Title
82249
    1SAPS     N    1   4.480   5.216  11.243 -0.3867  0.0231 -0.3660
    1SAPS   HN1    2   4.413   5.161  11.185  1.5723 -2.6664 -0.2807
    1SAPS   HN2    3   4.538   5.275  11.179  0.5734 -2.0329 -1.4991
    1SAPS   HN3    4   4.531   5.136  11.285 -0.8031 -0.4170 -0.6769
    1SAPS   C12    5   4.424   5.303  11.345  0.3910 -0.5059 -0.1638
    1SAPS  H12A    6   4.325   5.267  11.371 -1.0239  1.3000 -2.5651
    1SAPS   C13    7   4.511   5.311  11.475  0.0734  0.5981  0.5882
    1SAPS  O13A    8   4.636   5.290  11.467  0.3218 -0.4065 -0.2770
    1SAPS  O13B    9   4.454   5.343  11.584  0.8155  0.9644 -0.6443
    1SAPS   C11   10   4.408   5.445  11.290  1.0144  0.0025  0.0775
    1SAPS  H11A   11   4.506   5.494  11.271 -0.1052  2.5572  0.5034
    1SAPS  H11B   12   4.356   5.496  11.374  1.5036  0.9234 -0.1667
    1SAPS     P   13   4.200   5.558  11.173 -0.2365  0.5334  0.0252
    1SAPS   O13   14   4.093   5.514  11.262  0.3111 -0.4014 -0.1190
    1SAPS   O14   15   4.252   5.693  11.203 -0.3196 -0.4511 -0.0444
    1SAPS   O12   16   4.318   5.454  11.174 -0.0049  0.2509 -0.0166
    1SAPS   O11   17   4.153   5.547  11.020 -0.9429 -0.9287 -0.0343
    1SAPS    C1   18   4.167   5.415  10.966 -0.1625  0.3469 -0.5170
    1SAPS    HA   19   4.271   5.387  10.940 -0.5765 -1.7970 -0.0803
    1SAPS    HB   20   4.137   5.336  11.038  0.9465  1.3139  1.0422
    1SAPS    C2   21   4.079   5.406  10.840 -0.0283 -0.1392 -0.0291
    1SAPS    HS   22   4.081   5.302  10.802 -1.4868  0.4136 -1.7863
    1SAPS   O21   23   4.143   5.490  10.737  0.2020 -0.0242 -0.1160
    1SAPS   C21   24   4.134   5.439  10.614  0.0022  0.1747 -0.6566
    1SAPS   O22   25   4.100   5.330  10.583  0.0284  0.2384 -0.1530
    1SAPS   C22   26   4.175   5.541  10.515 -0.2767 -0.1006 -0.6413
    1SAPS   H2R   27   4.090   5.610  10.495  0.6010  1.4294  0.6739
    1SAPS   H2S   28   4.258   5.597  10.563 -1.6218  0.7956  0.7406
    1SAPS    C3   29   3.934   5.456  10.870 -0.0556  1.1261  1.1699
    1SAPS    HX   30   3.936   5.559  10.910  1.1416  1.7610 -0.4028
    1SAPS    HY   31   3.889   5.391  10.948  1.0305  0.3505  1.1848
    1SAPS   O31   32   3.852   5.461  10.749  0.2144 -0.0746 -0.4554
    1SAPS   C31   33   3.806   5.344  10.702  0.0434 -0.0523 -0.3986
    1SAPS   O32   34   3.824   5.237  10.757  0.5206  0.5074  0.2723
    1SAPS   C32   35   3.719   5.360  10.573 -0.0686  0.1523 -0.3134
    1SAPS   H2X   36   3.764   5.449  10.523 -0.1836 -0.1780 -1.0165
    1SAPS   H2Y   37   3.615   5.380  10.606  0.4559 -0.0092  1.5344
    1SAPS   C23   38   4.224   5.468  10.384  0.0306 -0.1048  0.4507
    1SAPS   H3R   39   4.137   5.409  10.347  0.5879  0.3467 -1.6688
    1SAPS   H3S   40   4.310   5.400  10.404 -1.0053 -2.1915 -1.6693
    1SAPS   C24   41   4.261   5.561  10.260  0.0453 -0.1937 -0.0377
    1SAPS   H4R   42   4.307   5.504  10.176  0.9558 -1.2109  1.1242
    1SAPS   H4S   43   4.339   5.636  10.286  1.4707 -0.4828 -3.0102
    1SAPS   C25   44   4.136   5.639  10.213 -0.4317  1.0470  0.1739
    1SAPS   H5R   45   4.057   5.655  10.287 -3.5145 -1.6405 -2.2633
    1SAPS   C26   46   4.117   5.680  10.093 -0.3239  0.5830 -0.2937
    1SAPS   H6R   47   4.026   5.740  10.078  1.6662  2.9948 -4.0261
    1SAPS   C27   48   4.212   5.684   9.974 -0.6532  0.4381 -0.0947
    1SAPS   H7R   49   4.276   5.593   9.980 -0.1435  0.6695 -1.5979
    1SAPS   H7S   50   4.281   5.770   9.986 -2.5087  1.7994  1.4688
    1SAPS   C28   51   4.172   5.678   9.828  0.8898 -0.1756  0.3876
    1SAPS   H8R   52   4.161   5.577   9.786  3.0670 -0.8846  1.3609
    1SAPS   C29   53   4.178   5.775   9.738  0.1009 -0.2218  0.4804
    1SAPS   H9R   54   4.149   5.752   9.634  0.5477 -3.2935  0.9202
    1SAPS  C210   55   4.217   5.915   9.764 -0.1405  0.0861 -0.2460
    1SAPS  H10R   56   4.323   5.933   9.735  0.1791  4.6329  2.7209
    1SAPS  H10S   57   4.216   5.947   9.870 -0.9611 -2.9521  0.7646
    1SAPS  C211   58   4.131   6.005   9.684 -0.1261 -0.8376  0.3906
    1SAPS  H11R   59   4.055   6.067   9.732  0.4574  0.7612 -0.6471
    1SAPS  C212   60   4.161   6.037   9.555 -0.3430  0.2225  0.5242
    1SAPS  H12R   61   4.089   6.104   9.504 -0.1186 -0.9968 -1.4972
    1SAPS  C213   62   4.271   5.984   9.475  0.2330 -0.2296  0.1524
    1SAPS  H13R   63   4.242   5.981   9.367  1.5091  2.2638 -0.3259
    1SAPS  H13S   64   4.313   5.887   9.509  1.5014  0.1566 -0.2450
    1SAPS  C214   65   4.392   6.075   9.492  0.4771 -0.0704 -0.0794
    1SAPS  H14R   66   4.453   6.066   9.583 -0.2714  2.7361  0.7875
    1SAPS  C215   67   4.432   6.170   9.406 -0.0780 -0.7645  0.3901
    1SAPS  H15R   68   4.521   6.231   9.428 -0.6644  0.0693  0.5183
    1SAPS  C216   69   4.365   6.200   9.272 -0.0844  0.5619  0.0241
    1SAPS  H16R   70   4.350   6.310   9.276  0.6935  0.6467  1.0604
    1SAPS  H16S   71   4.259   6.168   9.268  0.6051 -2.0673  0.8852
    1SAPS  C217   72   4.438   6.164   9.148 -0.1795 -0.1419  0.5338
    1SAPS  H17R   73   4.387   6.201   9.056  1.1625 -1.1201 -0.6458
    1SAPS  H17S   74   4.426   6.053   9.147 -1.9166 -0.0019  1.7392
    1SAPS  C218   75   4.579   6.215   9.138 -0.1298  0.2660 -0.2213
    1SAPS  H18R   76   4.626   6.211   9.238 -0.1528  0.3322 -0.2078
    1SAPS  H18S   77   4.576   6.323   9.110  0.7471 -0.1286 -1.9389
    1SAPS  C219   78   4.669   6.154   9.026  0.0576  0.2122  0.2139
    1SAPS  H19R   79   4.766   6.207   9.035 -0.4568  1.1303  0.4277
    1SAPS  H19S   80   4.622   6.181   8.929  0.3241  1.6923  0.4782
    1SAPS  C220   81   4.667   5.995   9.031  0.1145 -0.4285  0.3191
    1SAPS  H20R   82   4.768   5.947   9.027 -0.2074 -1.0650 -0.3914
    1SAPS  H20S   83   4.607   5.949   8.949 -1.1186  2.1543 -0.3107
    1SAPS  H20T   84   4.623   5.967   9.129 -1.6415  0.3792 -0.1984
    1SAPS   C33   85   3.722   5.235  10.477  0.1100 -0.4580 -0.1027
    1SAPS   H3X   86   3.629   5.178  10.499 -0.9948  1.3426  0.1638
    1SAPS   H3Y   87   3.808   5.166  10.486 -0.8233 -1.9402 -1.8622
    1SAPS   C34   88   3.719   5.275  10.330 -0.6076 -0.3933 -0.4569
    1SAPS   H4X   89   3.645   5.358  10.329  2.1454  2.2839  1.2416
    1SAPS   H4Y   90   3.681   5.185  10.277  0.6441 -1.4123  0.3274
    1SAPS   C35   91   3.865   5.306  10.281  0.1461 -0.0920 -0.5670
    1SAPS   H5X   92   3.940   5.237  10.323  0.4264  0.5600  0.0273
    1SAPS   H5Y   93   3.891   5.404  10.326 -1.0085 -0.6010  1.3044
    1SAPS   C36   94   3.893   5.328  10.129  0.8425  0.3948  0.6078
    1SAPS   H6X   95   3.872   5.238  10.067 -2.3889  2.2853 -1.3001
    1SAPS   H6Y   96   4.003   5.332  10.110  0.8340 -4.4794 -2.1631
    1SAPS   C37   97   3.831   5.460  10.073 -0.2577  0.3349  0.2352
    1SAPS   H7X   98   3.864   5.549  10.132  0.3567 -0.0736  0.5203
    1SAPS   H7Y   99   3.720   5.463  10.070 -0.3838 -0.5961  2.1196
    1SAPS   C38  100   3.888   5.486   9.925 -0.0480 -0.5056 -0.1832
    1SAPS   H8X  101   3.998   5.472   9.924 -0.2100 -2.1506  0.6772
    1SAPS   H8Y  102   3.858   5.592   9.911 -1.5561 -0.6104  1.8150
    1SAPS   C39  103   3.813   5.410   9.811  0.0694  0.0899 -0.9012
    1SAPS   H9X  104   3.704   5.413   9.833  0.1647  1.2478 -0.5248
    1SAPS   H9Y  105   3.850   5.307   9.829 -1.3697 -0.5561 -1.4638
    1SAPS  C310  106   3.843   5.463   9.674 -0.5951 -0.2257  0.6953
    1SAPS  H10X  107   3.951   5.489   9.667 -0.4609 -0.8254  0.5044
    1SAPS  H10Y  108   3.793   5.557   9.643 -0.2347  0.5028  2.2178
    1SAPS  C311  109   3.814   5.360   9.564  0.6152 -0.3453 -0.6006
    1SAPS  H11X  110   3.712   5.317   9.574  0.3830  0.3091 -0.0736
    1SAPS  H11Y  111   3.882   5.273   9.575  0.9851 -0.1171 -1.0752
    1SAPS  C312  112   3.836   5.410   9.421  0.6384 -0.6011  0.5792
    1SAPS  H12X  113   3.764   5.489   9.390  1.9854  0.2844 -0.4161
    1SAPS  H12Y  114   3.814   5.327   9.350  1.9474  0.1304 -0.7377
    1SAPS  C313  115   3.974   5.470   9.384 -0.4528 -0.4929  0.1350
    1SAPS  H13X  116   4.032   5.379   9.357  0.1219  0.3247 -1.5487
    1SAPS  H13Y  117   4.013   5.529   9.470 -3.2022  2.2258 -0.3045
    1SAPS  C314  118   3.977   5.564   9.262 -0.3250 -0.3681  0.6956
    1SAPS  H14X  119   3.902   5.534   9.186  0.5988  0.3456 -0.5253
    1SAPS  H14Y  120   4.079   5.562   9.217  0.5396  0.8623  2.4914
    1SAPS  C315  121   3.947   5.713   9.294 -0.0575  0.1347 -0.3287
    1SAPS  H15X  122   4.020   5.751   9.368 -0.4125 -1.0412  0.6527
    1SAPS  H15Y  123   3.848   5.719   9.344 -0.9625  0.9166 -2.1209
    1SAPS  C316  124   3.941   5.812   9.181  0.2538 -0.3939  0.3186
    1SAPS  H16X  125   3.849   5.874   9.183  0.7345  0.4631 -1.6099
    1SAPS  H16Y  126   3.935   5.756   9.085 -1.0010  0.1359  0.0670
    1SAPS  C317  127   4.071   5.905   9.178  0.6504  0.3978  0.1287
    1SAPS  H17X  128   4.165   5.846   9.173  1.3626  1.5149 -0.0329
    1SAPS  H17Y  129   4.066   5.963   9.273  0.3461  0.5244  0.0383
    1SAPS  C318  130   4.073   5.998   9.056 -0.0083  0.7141  0.2358
    1SAPS  H18X  131   4.031   5.946   8.968  2.1032 -0.2634 -0.2774
    1SAPS  H18Y  132   4.180   6.021   9.034  0.7935 -2.8757 -0.1941
    1SAPS  H18Z  133   4.010   6.088   9.072 -2.4230 -0.5382 -1.7213
    2SAPS     N  134   1.770   5.677  11.147  0.3282  0.2510 -0.9768
    2SAPS   HN1  135   1.867   5.640  11.139 -0.1423 -1.1574 -0.5234
    2SAPS   HN2  136   1.704   5.596  11.153 -0.8291  1.1895 -0.5262
    2SAPS   HN3  137   1.756   5.721  11.053 -0.1680  2.4255  0.0609
    2SAPS   C12  138   1.775   5.780  11.253 -0.0798  0.8907 -0.1754
    2SAPS  H12A  139   1.673   5.815  11.251 -0.7041 -0.5605  2.1961
    2SAPS   C13  140   1.804   5.737  11.399 -0.7258 -0.3879 -0.1624
    2SAPS  O13A  141   1.833   5.615  11.419  0.1491 -0.2662 -1.1510
    2SAPS  O13B  142   1.787   5.819  11.492  0.1579 -0.6862  0.7457
    2SAPS   C11  143   1.890   5.885  11.219 -0.6484  0.3277 -0.1955
    2SAPS  H11A  144   1.986   5.835  11.242 -0.3495  1.5133  1.3194
    2SAPS  H11B  145   1.885   5.959  11.302  0.1599 -0.8374  0.9194
    2SAPS     P  146   2.003   6.042  11.053 -0.4848 -0.2762 -0.1877
    2SAPS   O13  147   1.980   6.166  11.133 -0.0623  0.0894 -1.2155
    2SAPS   O14  148   2.128   5.974  11.077 -0.3518  0.2238  0.0747
    2SAPS   O12  149   1.882   5.945  11.085  0.0641  0.0116  0.2388
    2SAPS   O11  150   1.984   6.080  10.908  0.5711 -0.2725 -0.2632
    2SAPS    C1  151   1.953   5.981  10.804 -0.1835  0.3479 -0.4024
    2SAPS    HA  152   1.918   5.883  10.843  0.1952 -0.5981 -2.3168
    2SAPS    HB  153   1.871   6.008  10.734 -0.9521 -0.2181  0.2596
    2SAPS    C2  154   2.080   5.949  10.719 -0.1267 -0.5553  0.1896
    2SAPS    HS  155   2.163   5.917  10.785 -0.0703 -1.0513 -0.1182
    2SAPS   O21  156   2.119   6.067  10.652  0.2081  0.0537  0.1122
    2SAPS   C21  157   2.237   6.059  10.584  0.6067  1.1759 -0.0476
    2SAPS   O22  158   2.319   5.967  10.586  0.9357 -0.4079  0.3970
    2SAPS   C22  159   2.265   6.192  10.523 -0.4693  0.9693  0.3470
    2SAPS   H2R  160   2.178   6.223  10.461 -2.2155 -0.7187  1.8256
    2SAPS   H2S  161   2.267   6.267  10.605 -0.0487  0.2191  1.0426
    2SAPS    C3  162   2.054   5.831  10.616 -0.1786 -0.2043 -0.2280
    2SAPS    HX  163   2.034   5.742  10.680  2.6943 -0.1280  0.9233
    2SAPS    HY  164   2.150   5.811  10.563 -1.0342  1.7446 -2.7301
    2SAPS   O31  165   1.946   5.858  10.524  0.0743 -0.3437 -0.4781
    2SAPS   C31  166   1.977   5.903  10.402 -0.3121  0.0583  0.6100
    2SAPS   O32  167   2.091   5.894  10.353 -0.5574 -0.2087  0.0420
    2SAPS   C32  168   1.850   5.952  10.340 -0.1849 -0.3652  0.5921
    2SAPS   H2X  169   1.859   6.063  10.345  0.6534 -0.3988  0.0350
    2SAPS   H2Y  170   1.766   5.908  10.399 -0.1616 -2.2944 -0.7304
    2SAPS   C23  171   2.386   6.187  10.426  0.2537 -0.5034 -0.0491
    2SAPS   H3R  172   2.476   6.145  10.476  0.9378  0.5615 -0.3463
    2SAPS   H3S  173   2.402   6.292  10.393 -1.5884 -0.9189 -2.5373
    2SAPS   C24  174   2.355   6.121  10.291  0.3361  0.5961  0.1848
    2SAPS   H4R  175   2.384   6.181  10.202  0.1293  2.1375  1.1326
    2SAPS   H4S  176   2.246   6.124  10.269  0.6545  1.4473 -1.4392
    2SAPS   C25  177   2.415   5.982  10.282  0.4523  0.2874 -0.4363
    2SAPS   H5R  178   2.405   5.939  10.383 -0.0833  1.7819  0.1755
    2SAPS   C26  179   2.481   5.924  10.186 -0.3766 -0.1055  0.2891
    2SAPS   H6R  180   2.526   5.825  10.203  1.6280  0.7760  0.4847
    2SAPS   C27  181   2.516   5.984  10.052 -0.0392 -0.4656  0.5153
    2SAPS   H7R  182   2.620   6.023  10.044 -0.2091 -0.0613  0.2551
    2SAPS   H7S  183   2.464   6.081  10.041 -0.3008 -0.4012  2.1253
    2SAPS   C28  184   2.489   5.893   9.933  0.3373 -0.2340  0.6293
    2SAPS   H8R  185   2.421   5.807   9.946 -0.5166  0.4375  0.6747
    2SAPS   C29  186   2.548   5.898   9.811 -0.0815 -0.6257 -0.2536
    2SAPS   H9R  187   2.524   5.817   9.741  1.3535  0.5725 -2.2336
    2SAPS  C210  188   2.653   6.006   9.773 -0.5574 -0.1751 -0.7235
    2SAPS  H10R  189   2.745   5.954   9.738 -2.0006 -2.3677 -1.4529
    2SAPS  H10S  190   2.683   6.064   9.862 -1.9506 -1.6875  0.7895
    2SAPS  C211  191   2.605   6.092   9.664  0.5869 -0.0614 -0.4827
    2SAPS  H11R  192   2.552   6.179   9.704  0.4402 -0.9013  1.2578
    2SAPS  C212  193   2.631   6.089   9.533 -0.4496  0.3235 -0.6910
    2SAPS  H12R  194   2.603   6.166   9.460  0.9785  1.4827 -0.0516
    2SAPS  C213  195   2.707   5.985   9.456 -0.2208 -0.7293 -0.4788
    2SAPS  H13R  196   2.750   5.909   9.523  1.2170  0.3040 -0.1843
    2SAPS  H13S  197   2.790   6.021   9.391 -0.9181 -1.4753 -1.8366
    2SAPS  C214  198   2.610   5.911   9.364  0.5679  0.1445  0.6014
    2SAPS  H14R  199   2.574   5.812   9.397 -1.7297 -0.2536 -2.5543
    2SAPS  C215  200   2.570   5.954   9.241 -0.5759  1.2463  0.8458
    2SAPS  H15R  201   2.501   5.888   9.186  2.1855 -1.2269  0.0564
    2SAPS  C216  202   2.624   6.073   9.159  0.8588 -0.0341  0.1108
    2SAPS  H16R  203   2.684   6.133   9.231 -0.0186 -1.6982  2.3701
    2SAPS  H16S  204   2.541   6.143   9.134  1.4126  1.1872  1.5434
    2SAPS  C217  205   2.717   6.029   9.044  0.0010  0.3134  0.4523
    2SAPS  H17R  206   2.783   5.951   9.087  0.8733  0.5015 -0.5179
    2SAPS  H17S  207   2.778   6.114   9.007 -1.9535  0.2419 -3.3866
    2SAPS  C218  208   2.643   5.979   8.925 -0.3114 -0.9367 -0.6070
    2SAPS  H18R  209   2.547   6.033   8.911 -0.1685 -0.6052 -0.2992
    2SAPS  H18S  210   2.608   5.874   8.938 -2.0650 -0.2894  0.3330
    2SAPS  C219  211   2.731   5.980   8.799 -0.0779 -0.6271 -0.0315
    2SAPS  H19R  212   2.820   5.915   8.814  0.9716  1.2311  2.3810
    2SAPS  H19S  213   2.770   6.084   8.795 -1.7785  0.1159  1.3933
    2SAPS  C220  214   2.667   5.952   8.663 -0.1693 -0.6950 -0.2655
    2SAPS  H20R  215   2.626   5.849   8.667 -0.2046 -0.6847 -0.3689
    2SAPS  H20S  216   2.738   5.961   8.578 -1.1385 -1.9593 -1.2403
    2SAPS  H20T  217   2.587   6.027   8.646  1.5964  0.9049 -2.0448
    2SAPS   C33  218   1.829   5.892  10.197 -0.8524 -0.2884 -0.0152
    2SAPS   H3X  219   1.726   5.919  10.167 -0.2757  0.9950 -0.9208
    2SAPS   H3Y  220   1.835   5.781  10.190  1.3042 -0.2650  0.6718
    2SAPS   C34  221   1.934   5.934  10.094  0.1092  0.2936 -0.1746
    2SAPS   H4X  222   2.031   5.881  10.110  0.0929  0.8400  2.1404
    2SAPS   H4Y  223   1.959   6.043  10.096  1.7006 -0.0196 -1.1148
    2SAPS   C35  224   1.880   5.892   9.957 -0.4484  0.1615 -0.1991
    2SAPS   H5X  225   1.788   5.951   9.939 -0.5951 -0.5028 -1.7809
    2SAPS   H5Y  226   1.867   5.782   9.958 -0.3084  0.0414  3.8013
    2SAPS   C36  227   1.988   5.938   9.850 -0.6335  0.5737 -1.2279
    2SAPS   H6X  228   2.075   5.873   9.872 -1.5553  0.3139  2.2502
    2SAPS   H6Y  229   2.015   6.041   9.880  1.6110 -0.4443  0.5414
    2SAPS   C37  230   1.939   5.935   9.708 -0.3721 -0.1003  0.3514
    2SAPS   H7X  231   2.020   5.977   9.645 -1.1214  0.3166 -0.3590
    2SAPS   H7Y  232   1.861   6.014   9.698 -0.1017 -0.0673 -2.6661
    2SAPS   C38  233   1.905   5.796   9.649  0.5376 -0.3496 -1.1735
    2SAPS   H8X  234   1.812   5.752   9.693  1.2133 -0.9437 -0.3101
    2SAPS   H8Y  235   1.982   5.727   9.690  0.0534 -0.3841 -0.2893
    2SAPS   C39  236   1.891   5.793   9.500  0.0221 -0.1416  0.1586
    2SAPS   H9X  237   1.808   5.859   9.470 -0.0737 -0.7790 -1.0303
    2SAPS   H9Y  238   1.863   5.688   9.478  1.4710 -0.9065  1.7003
    2SAPS  C310  239   2.018   5.817   9.411  0.2464 -0.1701 -0.0341
    2SAPS  H10X  240   2.088   5.737   9.442  0.0645 -0.9543 -1.5556
    2SAPS  H10Y  241   2.071   5.913   9.429  2.1589 -0.8897 -1.4693
    2SAPS  C311  242   2.005   5.795   9.264  0.2598 -0.2324  0.5847
    2SAPS  H11X  243   1.936   5.711   9.240 -0.3743  0.6906 -1.0322
    2SAPS  H11Y  244   2.107   5.768   9.227 -0.0605 -0.0254 -0.4854
    2SAPS  C312  245   1.950   5.913   9.178  0.7015 -0.5261 -0.0255
    2SAPS  H12X  246   2.005   6.003   9.216 -0.6678 -0.0494  0.9273
    2SAPS  H12Y  247   1.848   5.935   9.216  0.4959 -1.7421  0.1700
    2SAPS  C313  248   1.967   5.897   9.026 -0.0623 -0.1942 -0.5929
    2SAPS  H13X  249   2.076   5.897   9.006  0.0713  1.5765 -0.0638
    2SAPS  H13Y  250   1.925   5.990   8.982  0.3748 -0.4023 -1.4662
    2SAPS  C314  251   1.892   5.778   8.962  0.8045 -0.0659  0.1155
    2SAPS  H14X  252   1.932   5.674   8.971 -0.7876 -0.8775 -1.4920
    2SAPS  H14Y  253   1.908   5.797   8.853  2.6984  3.4143  0.8426
    2SAPS  C315  254   1.742   5.769   8.990 -0.2156 -0.4292 -0.3290
    2SAPS  H15X  255   1.743   5.748   9.099  2.1058 -0.5071 -0.3149
    2SAPS  H15Y  256   1.701   5.679   8.938  1.9947 -1.7809  0.1380
    2SAPS  C316  257   1.655   5.896   8.953  0.3119  0.4875 -0.1344
    2SAPS  H16X  258   1.715   5.981   8.990  0.6450  0.9710 -1.7323
    2SAPS  H16Y  259   1.554   5.892   9.001  0.6203 -3.3790  0.5440
    2SAPS  C317  260   1.627   5.923   8.801 -0.3448  0.2844 -0.0633
    2SAPS  H17X  261   1.579   5.839   8.747 -0.2709  0.5115 -0.4914
    2SAPS  H17Y  262   1.723   5.923   8.745 -0.0360 -1.9236  0.3989
    2SAPS  C318  263   1.547   6.050   8.780  0.1663 -0.4313  0.0626
    2SAPS  H18X  264   1.459   6.038   8.847 -1.3019  1.9205 -1.2943
    2SAPS  H18Y  265   1.508   6.065   8.677 -2.3175 -0.7045  0.8854
    2SAPS  H18Z  266   1.613   6.135   8.806 -0.8846  0.0076  1.4458
    3SAPS     N  267   4.867   5.428  11.479 -0.0284 -0.1430  0.5260
    3SAPS   HN1  268   4.908   5.414  11.574  0.1004  1.1367  0.6721
    3SAPS   HN2  269   4.767   5.397  11.483 -0.7143  2.0009  2.2030
    3SAPS   HN3  270   4.916   5.361  11.417  0.0813 -0.3162  0.8009
    3SAPS   C12  271   4.885   5.563  11.422  0.0160  0.5002 -0.1738
    3SAPS  H12A  272   4.834   5.629  11.491 -0.6735  0.0687 -0.2513
    3SAPS   C13  273   5.031   5.619  11.420 -0.9166 -0.2454  0.6377
    3SAPS  O13A  274   5.125   5.530  11.438  0.7628 -0.0909 -0.2933
    3SAPS  O13B  275   5.053   5.733  11.388  0.2041 -0.2291  0.1405
    3SAPS   C11  276   4.826   5.564  11.276  0.2499 -0.0240  0.5628
    3SAPS  H11A  277   4.854   5.658  11.223 -1.9874  0.0352 -0.5989
    3SAPS  H11B  278   4.715   5.567  11.276  0.2514  1.2142  2.4044
    3SAPS     P  279   4.797   5.379  11.084  0.5081 -0.0708 -0.2385
    3SAPS   O13  280   4.872   5.264  11.038 -0.7141  0.6242 -0.8226
    3SAPS   O14  281   4.653   5.353  11.118 -0.5584 -0.1084 -0.0663
    3SAPS   O12  282   4.872   5.444  11.206 -0.1028  0.2087 -0.1779
    3SAPS   O11  283   4.813   5.504  10.988  0.9819 -0.1317  0.1203
    3SAPS    C1  284   4.697   5.593  10.989 -0.4883  0.2015  0.1961
    3SAPS    HA  285   4.637   5.607  11.082 -0.4657  2.1257 -0.0310
    3SAPS    HB  286   4.726   5.698  10.966 -2.2977  0.4739 -1.0571
    3SAPS    C2  287   4.591   5.549  10.876 -0.4067  0.2254 -0.3316
    3SAPS    HS  288   4.574   5.443  10.904  2.3329  0.2784  1.9361
    3SAPS   O21  289   4.661   5.555  10.754  0.0511  0.8799 -0.0099
    3SAPS   C21  290   4.607   5.489  10.653  1.0370  0.4176 -0.7360
    3SAPS   O22  291   4.502   5.427  10.655 -0.0360 -0.0038 -0.1741
    3SAPS   C22  292   4.688   5.521  10.530 -0.5842  0.3839  1.5653
    3SAPS   H2R  293   4.745   5.615  10.544  2.0923 -0.7068 -1.1056
    3SAPS   H2S  294   4.754   5.435  10.505 -1.9464 -0.5279  0.9534
    3SAPS    C3  295   4.459   5.632  10.880 -0.6116  0.6153  0.0392
    3SAPS    HX  296   4.420   5.606  10.981  3.3317  1.1593  1.8932
    3SAPS    HY  297   4.388   5.593  10.804 -0.9748  1.8408 -0.2776
    3SAPS   O31  298   4.491   5.771  10.867 -0.4390  0.0208  0.1541
    3SAPS   C31  299   4.484   5.831  10.751 -0.0038  0.1310  0.4001
    3SAPS   O32  300   4.436   5.781  10.649 -0.1924  0.1213 -0.2234
    3SAPS   C32  301   4.559   5.962  10.757 -0.6957 -0.0219 -0.6730
    3SAPS   H2X  302   4.652   5.950  10.817 -0.6875  0.1524 -0.6501
    3SAPS   H2Y  303   4.493   6.039  10.804 -2.0837  0.6084 -3.4656
    3SAPS   C23  304   4.614   5.540  10.395  0.3173  0.3923  0.3707
    3SAPS   H3R  305   4.556   5.633  10.414 -1.2391 -0.1409 -1.5156
    3SAPS   H3S  306   4.550   5.450  10.381 -0.8826  1.3703 -0.7181
    3SAPS   C24  307   4.701   5.541  10.264  0.2366 -0.0185  0.2060
    3SAPS   H4R  308   4.763   5.449  10.261  0.7021  0.2888  0.3137
    3SAPS   H4S  309   4.773   5.625  10.265 -1.0286  1.0824  1.1777
    3SAPS   C25  310   4.614   5.543  10.139  1.2650 -0.2072  0.2964
    3SAPS   H5R  311   4.546   5.629  10.132  0.8437 -0.5660 -0.0795
    3SAPS   C26  312   4.617   5.459  10.038  0.0881  0.2807 -0.6782
    3SAPS   H6R  313   4.544   5.476   9.958 -0.2379  2.5786  0.0227
    3SAPS   C27  314   4.707   5.339  10.017 -0.1053 -0.1062 -0.3026
    3SAPS   H7R  315   4.646   5.247  10.026 -0.1080 -0.3338 -2.2861
    3SAPS   H7S  316   4.789   5.337  10.092  1.0557  0.3765 -1.5339
    3SAPS   C28  317   4.771   5.340   9.873  0.1804 -0.5396  0.2267
    3SAPS   H8R  318   4.702   5.298   9.798 -0.6286 -0.1760  0.7482
    3SAPS   C29  319   4.882   5.397   9.828 -0.4757 -0.0146 -0.2171
    3SAPS   H9R  320   4.898   5.392   9.719  1.5354  0.4546  0.0123
    3SAPS  C210  321   4.989   5.470   9.914 -0.3959 -0.9279  0.2012
    3SAPS  H10R  322   5.089   5.431   9.886 -0.9195 -1.9448 -0.3147
    3SAPS  H10S  323   4.978   5.440  10.020 -0.6640  0.8182  0.6901
    3SAPS  C211  324   4.979   5.620   9.895 -0.7377  0.9472 -0.0885
    3SAPS  H11R  325   4.894   5.651   9.833 -1.1168 -0.1337 -0.1386
    3SAPS  C212  326   5.067   5.712   9.935  0.4477 -0.6803 -0.0995
    3SAPS  H12R  327   5.045   5.818   9.914  0.4219 -0.9293 -1.4432
    3SAPS  C213  328   5.186   5.684  10.023 -0.3174  0.5354  0.7729
    3SAPS  H13R  329   5.278   5.685   9.960 -0.3814 -0.3942  0.6508
    3SAPS  H13S  330   5.188   5.576  10.051 -0.4999  0.2114 -0.4049
    3SAPS  C214  331   5.196   5.779  10.139  0.1997  0.2501  0.2795
    3SAPS  H14R  332   5.105   5.810  10.191 -1.0229 -0.6857 -1.2372
    3SAPS  C215  333   5.311   5.830  10.193  0.7226 -0.0864 -0.2152
    3SAPS  H15R  334   5.299   5.912  10.265  1.1729 -0.9547  0.8611
    3SAPS  C216  335   5.450   5.806  10.132  0.6173 -0.1962 -0.5685
    3SAPS  H16R  336   5.452   5.717  10.066  0.5499  1.0455 -2.3096
    3SAPS  H16S  337   5.520   5.788  10.216  0.4429 -1.9619 -0.7641
    3SAPS  C217  338   5.519   5.920  10.051  0.0246 -0.0023 -0.8002
    3SAPS  H17R  339   5.629   5.900  10.052  0.2814  1.2389  0.9109
    3SAPS  H17S  340   5.506   6.017  10.104 -0.1575  0.2610 -1.3217
    3SAPS  C218  341   5.455   5.931   9.919 -0.1210  0.6128  0.4573
    3SAPS  H18R  342   5.348   5.906   9.932 -0.2867  0.6041 -0.8104
    3SAPS  H18S  343   5.499   5.848   9.859  0.1926 -0.4888  2.1342
    3SAPS  C219  344   5.491   6.065   9.847  0.2592  0.4907  0.7284
    3SAPS  H19R  345   5.599   6.053   9.827  0.0631 -1.2222  0.5636
    3SAPS  H19S  346   5.460   6.146   9.917  0.3095  0.7712  0.4314
    3SAPS  C220  347   5.417   6.098   9.720  0.1044  0.2260  0.4108
    3SAPS  H20R  348   5.458   6.028   9.643  2.1752  1.5292  0.2736
    3SAPS  H20S  349   5.438   6.203   9.692  1.3640  0.1830  1.1615
    3SAPS  H20T  350   5.306   6.091   9.720  0.0949  0.1894 -0.5249
    3SAPS   C33  351   4.597   6.015  10.616 -0.0841  0.1862 -0.0814
    3SAPS   H3X  352   4.632   6.119  10.635 -1.5584  0.7512 -0.3082
    3SAPS   H3Y  353   4.521   6.022  10.535  0.5635  3.2328 -0.5566
    3SAPS   C34  354   4.706   5.920  10.562  0.5672 -0.8581  0.3092
    3SAPS   H4X  355   4.706   5.815  10.597  1.7096 -0.6158  1.1033
    3SAPS   H4Y  356   4.801   5.974  10.582  0.1155  1.2505 -2.5567
    3SAPS   C35  357   4.710   5.912  10.408 -0.5664  0.6242 -1.0583
    3SAPS   H5X  358   4.619   5.851  10.388  0.9672 -1.9360 -0.6092
    3SAPS   H5Y  359   4.801   5.855  10.377  0.4801  1.0548  1.0638
    3SAPS   C36  360   4.716   6.042  10.339 -0.7166 -0.8735  0.6727
    3SAPS   H6X  361   4.785   6.110  10.393 -1.6382 -0.2461  1.0879
    3SAPS   H6Y  362   4.617   6.093  10.334 -0.4114 -0.2400  0.9105
    3SAPS   C37  363   4.761   6.022  10.191  0.6508  0.5273 -0.1972
    3SAPS   H7X  364   4.865   5.984  10.188 -0.0190 -1.3808 -0.5850
    3SAPS   H7Y  365   4.740   6.122  10.148  1.4602  1.4567  1.4775
    3SAPS   C38  366   4.676   5.907  10.123 -0.0196  0.1881 -0.9542
    3SAPS   H8X  367   4.569   5.922  10.151  0.2960 -0.8563  0.9584
    3SAPS   H8Y  368   4.701   5.809  10.168 -0.1625  0.8356  0.5914
    3SAPS   C39  369   4.695   5.907   9.975 -0.3002  0.1420  0.4047
    3SAPS   H9X  370   4.800   5.927   9.944 -0.5491 -2.4267 -2.6211
    3SAPS   H9Y  371   4.633   5.995   9.946  0.8274  0.2013 -2.1410
    3SAPS  C310  372   4.635   5.779   9.916 -0.2797  0.0368 -0.2125
    3SAPS  H10X  373   4.538   5.770   9.971 -0.3447  1.5117 -0.0556
    3SAPS  H10Y  374   4.701   5.696   9.948  0.6368  0.7247 -0.2861
    3SAPS  C311  375   4.626   5.781   9.766 -0.3899 -0.1460 -0.0718
    3SAPS  H11X  376   4.731   5.789   9.733  0.0024 -1.1144  0.8660
    3SAPS  H11Y  377   4.565   5.866   9.729 -1.2904 -1.4368 -1.6839
    3SAPS  C312  378   4.573   5.656   9.709  0.7045 -0.2511  0.5270
    3SAPS  H12X  379   4.479   5.624   9.759 -1.0018  0.9302 -1.7454
    3SAPS  H12Y  380   4.649   5.574   9.713  1.5724  0.2116 -3.1234
    3SAPS  C313  381   4.541   5.682   9.561  1.1711  0.5123 -0.6693
    3SAPS  H13X  382   4.635   5.715   9.511  2.8800  0.2099  2.0984
    3SAPS  H13Y  383   4.486   5.778   9.553 -0.1232 -0.0534  0.9139
    3SAPS  C314  384   4.464   5.557   9.496 -0.1682  0.1147 -0.7503
    3SAPS  H14X  385   4.374   5.540   9.559  0.6229  0.2580  0.4399
    3SAPS  H14Y  386   4.525   5.464   9.503 -0.7922 -0.3383 -1.1908
    3SAPS  C315  387   4.435   5.576   9.347  0.9576 -0.0988  0.2634
    3SAPS  H15X  388   4.374   5.666   9.323 -0.3057 -1.4222 -1.7571
    3SAPS  H15Y  389   4.368   5.492   9.319  0.3793  0.1215  0.9466
    3SAPS  C316  390   4.558   5.569   9.249 -0.6688  0.0318  0.1714
    3SAPS  H16X  391   4.598   5.465   9.250 -1.1867 -0.1703  1.2762
    3SAPS  H16Y  392   4.646   5.620   9.293 -0.0677  0.2462 -1.2330
    3SAPS  C317  393   4.526   5.625   9.111  0.0946  0.4313  0.6569
    3SAPS  H17X  394   4.629   5.626   9.069 -0.1170 -0.8597  0.0550
    3SAPS  H17Y  395   4.494   5.731   9.109 -0.1639  0.3459 -1.3104
    3SAPS  C318  396   4.414   5.551   9.031 -0.0457  0.1800 -0.4993
    3SAPS  H18X  397   4.409   5.592   8.927  1.3823 -1.2384 -1.1652
    3SAPS  H18Y  398   4.321   5.549   9.092 -0.3126  1.6675 -0.8100
    3SAPS  H18Z  399   4.444   5.445   9.035  1.4915  0.6222  0.3130
    4SAPS     N  400   5.399   1.864  11.097  0.3613  0.3607 -0.0461
    4SAPS   HN1  401   5.491   1.815  11.090  0.6583  0.8159  0.5761
    4SAPS   HN2  402   5.426   1.933  11.170  0.5106  0.1446  0.1060
    4SAPS   HN3  403   5.329   1.799  11.138 -0.4551 -0.0892 -2.0319
    4SAPS   C12  404   5.366   1.916  10.958  0.3156 -0.0785 -0.5521
    4SAPS  H12A  405   5.290   1.854  10.915 -0.0248  0.9274 -1.4567
    4SAPS   C13  406   5.307   2.056  10.961  0.4611 -0.4048 -0.4118
    4SAPS  O13A  407   5.296   2.120  11.070  0.1771  0.0501  0.1076
    4SAPS  O13B  408   5.285   2.112  10.845  0.3828 -0.3803 -0.8550
    4SAPS   C11  409   5.491   1.916  10.880 -0.1468 -0.6880  0.3318
    4SAPS  H11A  410   5.559   1.991  10.926 -1.9893  2.1753 -1.3436
    4SAPS  H11B  411   5.467   1.954  10.779 -1.1990 -3.3568 -0.5209
    4SAPS     P  412   5.689   1.746  10.919  0.2412 -0.4281  0.3505
    4SAPS   O13  413   5.684   1.780  11.060 -0.2486 -0.8762 -0.2133
    4SAPS   O14  414   5.721   1.608  10.887  0.0770  0.3070  0.1088
    4SAPS   O12  415   5.545   1.786  10.865  0.4498  0.4104  0.3908
    4SAPS   O11  416   5.788   1.839  10.839 -0.7000  0.2215  0.3129
    4SAPS    C1  417   5.758   1.887  10.708  0.2775 -0.3066  0.3401
    4SAPS    HA  418   5.718   1.810  10.639  1.3431  1.1771 -2.0805
    4SAPS    HB  419   5.689   1.974  10.715 -1.2804 -1.2830 -1.8034
    4SAPS    C2  420   5.886   1.939  10.634  0.1413  0.6920 -0.8080
    4SAPS    HS  421   5.952   1.980  10.713 -0.5836  1.8885 -0.7924
    4SAPS   O21  422   5.840   2.039  10.536  0.8411  0.6750 -0.0627
    4SAPS   C21  423   5.925   2.125  10.506  0.4553 -0.2893  0.3935
    4SAPS   O22  424   6.038   2.139  10.551  0.0535 -0.5665 -0.3928
    4SAPS   C22  425   5.874   2.214  10.391  0.3364 -0.8639  1.3149
    4SAPS   H2R  426   5.791   2.271  10.437  0.5189  0.8704 -0.3582
    4SAPS   H2S  427   5.949   2.292  10.367 -0.4920 -0.6561 -0.8512
    4SAPS    C3  428   5.972   1.831  10.567 -0.0058  0.3243 -0.0134
    4SAPS    HX  429   5.995   1.759  10.648 -2.1388 -2.2094 -1.5187
    4SAPS    HY  430   6.071   1.876  10.541  1.7796 -1.2667  3.3184
    4SAPS   O31  431   5.916   1.750  10.458  0.1054  0.0226  0.3513
    4SAPS   C31  432   5.972   1.644  10.413 -0.7020 -0.3996  0.7167
    4SAPS   O32  433   6.076   1.595  10.452  0.0316 -0.1425 -0.6621
    4SAPS   C32  434   5.901   1.590  10.278  0.4527 -0.3050  0.3668
    4SAPS   H2X  435   5.814   1.526  10.305 -0.5232  0.5386 -0.6551
    4SAPS   H2Y  436   5.980   1.519  10.246  0.7488  0.1148  0.1617
    4SAPS   C23  437   5.858   2.135  10.257 -0.1315 -0.3069  0.3824
    4SAPS   H3R  438   5.785   2.184  10.189 -0.5383  0.5238  1.3914
    4SAPS   H3S  439   5.828   2.031  10.282  0.8906 -0.7792 -0.2880
    4SAPS   C24  440   5.995   2.124  10.177 -0.6871 -0.6902  0.7400
    4SAPS   H4R  441   6.074   2.079  10.241  0.6177  0.3654 -0.0567
    4SAPS   H4S  442   6.017   2.231  10.158 -1.8951 -0.8365 -2.0389
    4SAPS   C25  443   5.973   2.051  10.051  0.2908  0.2654 -0.0565
    4SAPS   H5R  444   6.020   1.953  10.036  0.0423  0.1244  0.0738
    4SAPS   C26  445   5.910   2.095   9.942  0.8789  0.2429  1.0250
    4SAPS   H6R  446   5.896   2.021   9.861  1.4322  2.5699 -1.3184
    4SAPS   C27  447   5.843   2.224   9.895 -0.2723  0.2662 -0.3338
    4SAPS   H7R  448   5.819   2.288   9.983 -2.5013  1.4341 -1.6869
    4SAPS   H7S  449   5.748   2.214   9.839 -1.4816 -0.3700  1.7061
    4SAPS   C28  450   5.947   2.307   9.811  0.4156 -0.5034 -0.4313
    4SAPS   H8R  451   6.050   2.304   9.847  0.0260 -1.1871  0.6665
    4SAPS   C29  452   5.922   2.404   9.722  0.4277 -0.1634  0.2620
    4SAPS   H9R  453   6.006   2.459   9.676  0.1512 -0.4205 -0.5793
    4SAPS  C210  454   5.781   2.441   9.688 -0.0281 -0.0791 -0.0774
    4SAPS  H10R  455   5.712   2.417   9.772 -0.2366  1.0066  0.0794
    4SAPS  H10S  456   5.761   2.388   9.593  0.3414  2.0876 -1.4306
    4SAPS  C211  457   5.777   2.589   9.658 -0.1630 -0.9938 -0.0775
    4SAPS  H11R  458   5.855   2.653   9.702 -3.8917  2.7005  1.7848
    4SAPS  C212  459   5.678   2.640   9.579 -0.5711  0.8295  0.2842
    4SAPS  H12R  460   5.694   2.747   9.558  1.5810  1.1054  2.8270
    4SAPS  C213  461   5.561   2.568   9.517 -0.6961  0.2942 -0.5821
    4SAPS  H13R  462   5.466   2.615   9.550 -0.5894 -0.6149  1.1300
    4SAPS  H13S  463   5.558   2.460   9.545 -0.8753  0.2257 -0.8570
    4SAPS  C214  464   5.579   2.574   9.368 -0.6651  0.4043  0.2025
    4SAPS  H14R  465   5.670   2.524   9.330 -1.4893  1.0603 -2.9195
    4SAPS  C215  466   5.493   2.626   9.280 -0.0811  0.0492 -0.3714
    4SAPS  H15R  467   5.506   2.627   9.171  0.9139 -0.0872 -0.2650
    4SAPS  C216  468   5.363   2.690   9.316 -0.2049 -0.0226  0.2310
    4SAPS  H16R  469   5.325   2.633   9.403  0.0228 -3.3470 -1.6716
    4SAPS  H16S  470   5.288   2.683   9.234  0.6083  0.3886 -0.5621
    4SAPS  C217  471   5.378   2.839   9.362  0.4714  0.4294 -0.2711
    4SAPS  H17R  472   5.436   2.840   9.457 -0.6590 -1.3298  0.4689
    4SAPS  H17S  473   5.281   2.890   9.382  1.0878  1.3405  0.4865
    4SAPS  C218  474   5.440   2.926   9.251  0.6706  0.5826  0.4778
    4SAPS  H18R  475   5.386   2.896   9.159  2.1704 -1.0960  0.0780
    4SAPS  H18S  476   5.545   2.901   9.225  0.3846 -0.2296  0.0563
    4SAPS  C219  477   5.432   3.082   9.262 -0.0327 -0.3510  0.8065
    4SAPS  H19R  478   5.326   3.114   9.263 -0.1121 -0.3567 -1.7883
    4SAPS  H19S  479   5.473   3.120   9.166 -1.5843 -1.1632 -0.2181
    4SAPS  C220  480   5.507   3.147   9.374 -0.4284  0.4116 -0.1252
    4SAPS  H20R  481   5.463   3.126   9.474  0.5077 -1.9647 -0.1667
    4SAPS  H20S  482   5.505   3.257   9.356  3.5798  0.7197  0.5519
    4SAPS  H20T  483   5.615   3.126   9.379 -0.7720 -1.1518  1.7148
    4SAPS   C33  484   5.884   1.707  10.178  0.1053 -0.0233  0.4943
    4SAPS   H3X  485   5.982   1.755  10.157  0.0793 -0.8520 -1.6735
    4SAPS   H3Y  486   5.824   1.791  10.220 -1.8420 -0.2151 -1.7350
    4SAPS   C34  487   5.820   1.668  10.043  0.5093 -0.0588  0.6551
    4SAPS   H4X  488   5.857   1.569  10.011  1.6587  0.5496  0.0250
    4SAPS   H4Y  489   5.843   1.746   9.967 -0.4377 -0.6651 -0.2763
    4SAPS   C35  490   5.661   1.679  10.050 -0.2431  0.0899  0.1807
    4SAPS   H5X  491   5.628   1.776  10.093  0.3889  0.4367 -0.1020
    4SAPS   H5Y  492   5.636   1.607  10.131 -2.6873 -1.6232 -1.9179
    4SAPS   C36  493   5.593   1.636   9.919  0.0976  0.4906 -0.2452
    4SAPS   H6X  494   5.484   1.635   9.941  0.5081  1.7584  2.1678
    4SAPS   H6Y  495   5.625   1.531   9.902 -2.8301 -0.2598 -1.7684
    4SAPS   C37  496   5.637   1.734   9.804 -0.5488  0.0124 -1.0499
    4SAPS   H7X  497   5.740   1.703   9.778  0.1997 -0.6691  2.2261
    4SAPS   H7Y  498   5.624   1.835   9.850 -0.0566  0.4341 -1.8306
    4SAPS   C38  499   5.557   1.740   9.672 -0.9040 -0.8640 -0.1967
    4SAPS   H8X  500   5.462   1.791   9.697  1.1523  3.6843 -0.6922
    4SAPS   H8Y  501   5.548   1.636   9.633  3.9839 -2.3692  1.8785
    4SAPS   C39  502   5.611   1.823   9.558 -0.5935  0.7074  0.0584
    4SAPS   H9X  503   5.556   1.804   9.464  0.3139 -0.2671 -0.3058
    4SAPS   H9Y  504   5.711   1.785   9.527 -1.0317 -2.2042  1.8370
    4SAPS  C310  505   5.610   1.975   9.596  0.8704  0.3116 -0.8408
    4SAPS  H10X  506   5.689   2.029   9.540 -0.6728  2.5287 -0.9996
    4SAPS  H10Y  507   5.625   1.979   9.706  0.4500 -1.2252 -0.6971
    4SAPS  C311  508   5.480   2.057   9.581  0.5085 -0.1441 -0.7145
    4SAPS  H11X  509   5.405   2.010   9.649  2.0041 -0.0986  1.0602
    4SAPS  H11Y  510   5.456   2.032   9.476  0.7637 -1.2419 -0.5274
    4SAPS  C312  511   5.497   2.203   9.623  0.7828  0.4798 -0.1652
    4SAPS  H12X  512   5.562   2.243   9.542 -0.3908 -0.3113 -1.5282
    4SAPS  H12Y  513   5.549   2.206   9.722  0.1029 -0.5905  0.2360
    4SAPS  C313  514   5.360   2.284   9.630 -0.7953  0.0196  0.1380
    4SAPS  H13X  515   5.379   2.390   9.656 -1.8160  0.1216  0.4855
    4SAPS  H13Y  516   5.302   2.253   9.719  0.8185 -0.2375  1.1457
    4SAPS  C314  517   5.269   2.280   9.514  0.3557  0.1157 -0.1440
    4SAPS  H14X  518   5.194   2.362   9.511 -0.1381 -0.3525 -2.1193
    4SAPS  H14Y  519   5.206   2.189   9.499  2.5955 -1.5212 -0.1296
    4SAPS  C315  520   5.335   2.302   9.377  0.6320 -0.8608 -0.3872
    4SAPS  H15X  521   5.417   2.229   9.363 -0.7670 -2.1234 -2.8585
    4SAPS  H15Y  522   5.376   2.405   9.385 -1.3596 -0.0598  0.4173
    4SAPS  C316  523   5.225   2.291   9.260 -0.4124 -0.7187 -0.2599
    4SAPS  H16X  524   5.146   2.367   9.275  0.2599  0.4866 -2.4192
    4SAPS  H16Y  525   5.168   2.196   9.266 -1.5650  0.0275  2.0286
    4SAPS  C317  526   5.286   2.320   9.118  0.5132  0.0425  1.4052
    4SAPS  H17X  527   5.353   2.233   9.101 -0.9933 -0.6254 -1.8748
    4SAPS  H17Y  528   5.350   2.411   9.119 -0.3296  0.7102 -0.3808
    4SAPS  C318  529   5.180   2.330   9.004  1.1473 -0.5599  0.0137
    4SAPS  H18X  530   5.225   2.365   8.909 -1.9141  1.5926 -0.7860
    4SAPS  H18Y  531   5.096   2.399   9.026  0.3352 -1.2524 -0.7989
    4SAPS  H18Z  532   5.131   2.231   8.991 -1.2548  0.2014  2.2171
    5SAPS     N  533   4.308   0.982  11.399  0.7639 -0.1623  0.3160
    5SAPS   HN1  534   4.290   1.013  11.496 -1.1581 -1.8107  0.5662
    5SAPS   HN2  535   4.404   0.947  11.382  0.2647 -2.1387  1.1812
    5SAPS   HN3  536   4.303   1.054  11.324  0.9733 -0.7233 -0.2522
    5SAPS   C12  537   4.208   0.875  11.370 -0.1506 -0.1879  0.3533
    5SAPS  H12A  538   4.224   0.793  11.438  2.9228  0.7913  0.9344
    5SAPS   C13  539   4.056   0.906  11.386 -0.1022  0.0867 -0.4227
    5SAPS  O13A  540   4.015   1.016  11.437 -0.4569  0.5862  1.0862
    5SAPS  O13B  541   3.976   0.816  11.347  0.0415  0.2304  0.0277
    5SAPS   C11  542   4.230   0.836  11.214  0.8739 -0.3927  0.0222
    5SAPS  H11A  543   4.198   0.915  11.143 -0.7328  1.2006  2.3531
    5SAPS  H11B  544   4.171   0.744  11.192  0.4674 -0.0468 -0.3531
    5SAPS     P  545   4.426   0.662  11.176  0.1827  0.0763  0.6328
    5SAPS   O13  546   4.563   0.677  11.123 -0.3605 -0.5851 -0.0835
    5SAPS   O14  547   4.419   0.605  11.316 -0.3013 -0.5967  0.2934
    5SAPS   O12  548   4.361   0.807  11.177 -0.3333 -0.4476 -0.4504
    5SAPS   O11  549   4.325   0.581  11.081  0.6211  0.5514  0.0080
    5SAPS    C1  550   4.275   0.636  10.969  0.1591 -0.3424  0.3422
    5SAPS    HA  551   4.165   0.637  10.983  0.1096 -1.1672  0.0811
    5SAPS    HB  552   4.299   0.743  10.957 -1.0975  0.1717  2.0390
    5SAPS    C2  553   4.318   0.558  10.840  0.3805  0.2341 -0.1928
    5SAPS    HS  554   4.426   0.552  10.818  0.2408 -3.4587 -0.4033
    5SAPS   O21  555   4.241   0.604  10.727  0.7850 -0.2465 -0.5300
    5SAPS   C21  556   4.274   0.722  10.682  0.0802  0.3591  0.8581
    5SAPS   O22  557   4.368   0.791  10.734 -0.0350  0.0871 -0.0898
    5SAPS   C22  558   4.199   0.756  10.554  0.2557 -0.2531 -0.3276
    5SAPS   H2R  559   4.099   0.709  10.560  1.2610 -2.3500  0.9118
    5SAPS   H2S  560   4.175   0.865  10.561 -3.2913 -1.0062  2.1163
    5SAPS    C3  561   4.289   0.406  10.873 -0.0155  0.3399  0.2890
    5SAPS    HX  562   4.185   0.400  10.913 -0.8168  1.2810 -1.4936
    5SAPS    HY  563   4.356   0.370  10.953  0.1632  3.9414  1.9563
    5SAPS   O31  564   4.287   0.318  10.760 -0.2204  0.4005 -0.1896
    5SAPS   C31  565   4.401   0.287  10.707  0.2855 -0.3127  0.6108
    5SAPS   O32  566   4.508   0.338  10.733  0.1364  0.5347  0.1532
    5SAPS   C32  567   4.372   0.183  10.596  0.2285  0.2530 -0.0645
    5SAPS   H2X  568   4.268   0.201  10.562 -0.0892 -1.3140 -0.0060
    5SAPS   H2Y  569   4.380   0.087  10.651  1.2349  0.5099  0.2623
    5SAPS   C23  570   4.255   0.716  10.423 -0.2202 -0.3479  0.1457
    5SAPS   H3R  571   4.173   0.726  10.349  0.5896  1.3717 -0.5740
    5SAPS   H3S  572   4.297   0.613  10.428 -0.9678 -0.6232  0.9939
    5SAPS   C24  573   4.363   0.814  10.378 -0.6207 -0.1557  0.5189
    5SAPS   H4R  574   4.450   0.818  10.447 -1.2575  0.4785  1.3165
    5SAPS   H4S  575   4.323   0.918  10.371  1.0199  0.5884  1.5382
    5SAPS   C25  576   4.410   0.770  10.245  0.0538  0.2930  0.6986
    5SAPS   H5R  577   4.476   0.683  10.231 -0.4789  0.3810 -4.0116
    5SAPS   C26  578   4.396   0.831  10.126  0.0913 -0.0349  0.2755
    5SAPS   H6R  579   4.433   0.780  10.036  1.1771  1.0950  0.0617
    5SAPS   C27  580   4.331   0.964  10.091  0.2707 -1.2783  0.0909
    5SAPS   H7R  581   4.325   1.032  10.178  2.8579  0.2136 -0.7732
    5SAPS   H7S  582   4.224   0.942  10.071  0.2815 -2.6165  1.3429
    5SAPS   C28  583   4.390   1.033   9.972  0.3878  0.7326  0.5201
    5SAPS   H8R  584   4.464   1.112   9.992 -1.0427  1.9763  1.1309
    5SAPS   C29  585   4.373   1.000   9.840  0.4589 -0.1540  0.3516
    5SAPS   H9R  586   4.433   1.066   9.775  1.5119  1.0467  2.4216
    5SAPS  C210  587   4.295   0.891   9.777  0.7709  0.3405 -0.3162
    5SAPS  H10R  588   4.191   0.923   9.757  1.2228  0.8654 -2.0089
    5SAPS  H10S  589   4.272   0.807   9.847  1.9119 -0.0494 -0.3791
    5SAPS  C211  590   4.379   0.835   9.665 -0.2226 -0.4446  0.0859
    5SAPS  H11R  591   4.469   0.785   9.704 -0.6057 -0.0542  1.5415
    5SAPS  C212  592   4.359   0.855   9.530 -0.1219 -0.5954 -0.8138
    5SAPS  H12R  593   4.425   0.799   9.462 -1.6302 -3.0722 -0.3800
    5SAPS  C213  594   4.245   0.923   9.469  1.5237 -0.0847  0.0506
    5SAPS  H13R  595   4.156   0.903   9.532  1.5467 -0.6023 -0.0775
    5SAPS  H13S  596   4.219   0.901   9.364 -2.1280  0.5859  0.6738
    5SAPS  C214  597   4.279   1.074   9.470 -0.0161  0.5475 -0.1814
    5SAPS  H14R  598   4.345   1.115   9.547  1.2093 -1.0741 -0.3249
    5SAPS  C215  599   4.252   1.163   9.372  0.3660 -0.3244  0.0584
    5SAPS  H15R  600   4.300   1.262   9.375 -0.3550  0.0303  3.0009
    5SAPS  C216  601   4.161   1.139   9.255  0.0226  0.0029 -0.5344
    5SAPS  H16R  602   4.073   1.206   9.251 -0.1904 -0.1645  0.9305
    5SAPS  H16S  603   4.119   1.036   9.253 -0.1545  0.0792 -0.7678
    5SAPS  C217  604   4.233   1.151   9.115  0.2384 -0.5739 -0.1636
    5SAPS  H17R  605   4.320   1.081   9.109  0.6584 -0.1261  0.6690
    5SAPS  H17S  606   4.276   1.252   9.101  0.0968 -0.5603 -0.5164
    5SAPS  C218  607   4.130   1.131   9.002 -0.5201 -0.0192  0.6345
    5SAPS  H18R  608   4.075   1.039   9.029 -0.1738 -0.3103  0.3658
    5SAPS  H18S  609   4.063   1.220   8.997  0.0662  0.4101  0.1170
    5SAPS  C219  610   4.188   1.110   8.858 -0.1789 -0.4767 -0.9980
    5SAPS  H19R  611   4.261   1.026   8.866  1.9416  1.2674 -1.1950
    5SAPS  H19S  612   4.250   1.196   8.825  3.4247 -0.3125  4.7529
    5SAPS  C220  613   4.075   1.068   8.768 -0.2282  0.0721  0.3468
    5SAPS  H20R  614   4.121   1.026   8.676  0.1282 -0.1410  0.6210
    5SAPS  H20S  615   4.026   1.161   8.732  0.4752 -0.2790 -1.6620
    5SAPS  H20T  616   4.014   0.986   8.811 -0.0211 -0.1905  0.1433
    5SAPS   C33  617   4.471   0.178  10.483 -0.1975  0.3304 -0.4596
    5SAPS   H3X  618   4.463   0.086  10.420  0.1212 -1.7398  2.3472
    5SAPS   H3Y  619   4.573   0.168  10.525 -0.3957  1.7760  0.4155
    5SAPS   C34  620   4.459   0.289  10.383  0.4591 -0.5774 -0.2611
    5SAPS   H4X  621   4.475   0.387  10.433  0.8048 -0.3683 -0.7825
    5SAPS   H4Y  622   4.361   0.291  10.331  0.9313 -2.0910 -1.2865
    5SAPS   C35  623   4.567   0.285  10.275  0.9100  0.2435  0.2437
    5SAPS   H5X  624   4.569   0.185  10.226  2.2863  0.3094  0.1409
    5SAPS   H5Y  625   4.669   0.305  10.315 -0.0521  0.4536  2.8343
    5SAPS   C36  626   4.552   0.395  10.170  0.1396 -0.3499 -0.2217
    5SAPS   H6X  627   4.596   0.484  10.220  0.3883 -0.7532  0.2837
    5SAPS   H6Y  628   4.442   0.412  10.162  0.0962 -1.3272 -3.4692
    5SAPS   C37  629   4.602   0.360  10.032  0.0537  0.1455 -0.3441
    5SAPS   H7X  630   4.527   0.314   9.964  1.0751 -4.0903  1.0711
    5SAPS   H7Y  631   4.684   0.288  10.053 -0.1396  0.5339  1.9945
    5SAPS   C38  632   4.658   0.491   9.973 -0.2655 -0.1588  0.1955
    5SAPS   H8X  633   4.741   0.515  10.042  0.4614 -2.3625  0.1907
    5SAPS   H8Y  634   4.597   0.584   9.965 -0.9281 -0.7135 -2.3761
    5SAPS   C39  635   4.710   0.464   9.830  0.4223  0.6468 -0.4626
    5SAPS   H9X  636   4.760   0.365   9.822  1.0901  0.9437 -0.0459
    5SAPS   H9Y  637   4.775   0.550   9.802  2.3550 -0.5513  0.1685
    5SAPS  C310  638   4.594   0.451   9.723  0.4199  0.1650 -0.2750
    5SAPS  H10X  639   4.509   0.517   9.750  0.3034  0.0876 -0.4579
    5SAPS  H10Y  640   4.559   0.346   9.723  0.3742  0.1155  2.1185
    5SAPS  C311  641   4.626   0.497   9.576 -0.1153  0.6922 -0.1827
    5SAPS  H11X  642   4.708   0.432   9.538 -0.8003  0.9263 -2.2184
    5SAPS  H11Y  643   4.679   0.594   9.582  1.4022 -0.1434  0.4693
    5SAPS  C312  644   4.509   0.474   9.479 -0.2446  0.2840  0.1171
    5SAPS  H12X  645   4.426   0.534   9.522  0.7521 -0.6750  3.6550
    5SAPS  H12Y  646   4.477   0.368   9.475  0.8583 -0.1814  2.3119
    5SAPS  C313  647   4.540   0.525   9.336 -0.1908 -0.2141 -0.4898
    5SAPS  H13X  648   4.609   0.459   9.280  0.4983 -0.4094  0.5663
    5SAPS  H13Y  649   4.587   0.625   9.332 -1.5329  0.4105 -1.6590
    5SAPS  C314  650   4.410   0.543   9.258  0.4082 -0.0459  0.5113
    5SAPS  H14X  651   4.345   0.615   9.312 -0.6544 -0.3475 -0.3379
    5SAPS  H14Y  652   4.364   0.445   9.235 -1.3371  1.2146 -1.9245
    5SAPS  C315  653   4.432   0.602   9.117  0.3463 -0.3219 -0.0999
    5SAPS  H15X  654   4.512   0.539   9.073 -0.1042 -0.3522 -0.8990
    5SAPS  H15Y  655   4.471   0.706   9.117  0.7494 -0.4704  0.3392
    5SAPS  C316  656   4.305   0.606   9.032  0.7826  0.2316 -0.6528
    5SAPS  H16X  657   4.236   0.687   9.064  0.4479 -1.2500  2.8689
    5SAPS  H16Y  658   4.252   0.509   9.041 -1.0484  1.1170 -1.3225
    5SAPS  C317  659   4.330   0.605   8.884 -0.4766 -0.6638 -0.6697
    5SAPS  H17X  660   4.235   0.585   8.831 -0.7961 -2.1715  0.3985
    5SAPS  H17Y  661   4.390   0.515   8.859  0.2663 -0.2210 -0.5215
    5SAPS  C318  662   4.392   0.738   8.834 -0.4075 -0.8282  0.4358
    5SAPS  H18X  663   4.487   0.765   8.886 -0.1056 -1.9750  0.4926
    5SAPS  H18Y  664   4.320   0.822   8.842  0.1799 -0.1903 -0.6640
    5SAPS  H18Z  665   4.412   0.729   8.725  2.9822  1.0481  0.7423
    6SAPS     N  666   0.901   5.964  10.844  0.7423  0.5186 -0.2643
    6SAPS   HN1  667   0.835   5.887  10.819  1.4115 -0.4149  0.7489
    6SAPS   HN2  668   0.837   6.047  10.847 -0.1817 -0.1878  0.0642
    6SAPS   HN3  669   0.973   5.960  10.770 -0.8077 -0.3174 -1.8129
    6SAPS   C12  670   0.950   5.929  10.979  0.5604 -0.5707 -0.2575
    6SAPS  H12A  671   1.047   5.974  10.996  0.9344 -1.3956 -0.1363
    6SAPS   C13  672   0.863   5.972  11.104 -0.1295  0.2830  0.1524
    6SAPS  O13A  673   0.771   6.052  11.093 -0.6255 -0.3937  0.6051
    6SAPS  O13B  674   0.906   5.940  11.222  0.1637  0.6838 -0.1574
    6SAPS   C11  675   0.969   5.773  10.977 -0.4612 -0.4228  0.3155
    6SAPS  H11A  676   0.995   5.740  11.080  0.4696 -0.3164  0.1264
    6SAPS  H11B  677   1.062   5.755  10.919 -2.7258 -1.9608 -3.1949
    6SAPS     P  678   0.816   5.557  10.983  0.0621 -0.1859 -0.1637
    6SAPS   O13  679   0.927   5.463  11.000  0.1041 -0.1901  0.2392
    6SAPS   O14  680   0.749   5.603  11.111  0.2855  0.1877  0.4810
    6SAPS   O12  681   0.873   5.690  10.916 -0.0507  0.7465 -0.0375
    6SAPS   O11  682   0.715   5.504  10.875  0.0185  0.0745 -0.3423
    6SAPS    C1  683   0.665   5.583  10.763  0.4925  0.6300 -0.5507
    6SAPS    HA  684   0.561   5.555  10.737  0.6751 -0.9726  0.2851
    6SAPS    HB  685   0.662   5.692  10.784  0.3862  0.7310 -1.0869
    6SAPS    C2  686   0.749   5.560  10.633 -0.1676 -0.1796  0.8337
    6SAPS    HS  687   0.857   5.584  10.647 -0.2482  2.9802 -2.4969
    6SAPS   O21  688   0.706   5.648  10.526  0.4228  0.3564  0.1233
    6SAPS   C21  689   0.749   5.774  10.548 -0.0597 -0.1002  0.0213
    6SAPS   O22  690   0.827   5.808  10.636 -0.6154  0.3660  0.1415
    6SAPS   C22  691   0.702   5.859  10.434 -0.0715 -0.1382 -0.4177
    6SAPS   H2R  692   0.754   5.838  10.338 -1.8145 -1.5087 -1.1248
    6SAPS   H2S  693   0.597   5.828  10.417  0.2287 -1.3684 -0.1022
    6SAPS    C3  694   0.740   5.418  10.572 -0.4212  0.6967  0.1291
    6SAPS    HX  695   0.635   5.392  10.549 -0.2466 -0.2259  0.3488
    6SAPS    HY  696   0.790   5.346  10.640  0.5507  0.0559 -1.1934
    6SAPS   O31  697   0.815   5.412  10.445  0.1465  0.2093 -0.0884
    6SAPS   C31  698   0.816   5.290  10.386  0.5578  0.3807  0.3554
    6SAPS   O32  699   0.754   5.195  10.431 -0.4720 -0.1983 -0.1180
    6SAPS   C32  700   0.904   5.297  10.266 -0.7861 -0.3889  0.0778
    6SAPS   H2X  701   0.935   5.195  10.235 -0.9790 -1.0985  2.0918
    6SAPS   H2Y  702   0.996   5.351  10.297 -0.4171 -0.4363 -0.8770
    6SAPS   C23  703   0.702   6.010  10.467  0.8341  0.1738 -0.0338
    6SAPS   H3R  704   0.805   6.036  10.497  0.0437  0.3022  2.8438
    6SAPS   H3S  705   0.635   6.028  10.554 -1.0165 -0.3246 -1.2881
    6SAPS   C24  706   0.657   6.102  10.345 -0.3143 -0.0632 -0.7236
    6SAPS   H4R  707   0.718   6.072  10.257 -0.5069 -1.6763 -0.3252
    6SAPS   H4S  708   0.675   6.206  10.379  1.7355 -1.5146  3.2248
    6SAPS   C25  709   0.507   6.077  10.305 -0.1099  0.5543 -0.2671
    6SAPS   H5R  710   0.443   6.051  10.391  1.3710 -1.0238  0.4190
    6SAPS   C26  711   0.450   6.083  10.182  0.0950  0.1935  0.6107
    6SAPS   H6R  712   0.343   6.071  10.159  0.6250 -0.8093 -1.6818
    6SAPS   C27  713   0.525   6.105  10.054 -0.1473  0.1299  0.2223
    6SAPS   H7R  714   0.470   6.073   9.963 -1.2481  1.9406  0.2045
    6SAPS   H7S  715   0.628   6.062  10.055 -0.2832 -0.1903  0.8066
    6SAPS   C28  716   0.540   6.256  10.051 -0.0845 -0.1683  0.3251
    6SAPS   H8R  717   0.529   6.311  10.146  1.9260 -0.4071  0.7617
    6SAPS   C29  718   0.583   6.330   9.944  0.4036  0.4896 -0.3116
    6SAPS   H9R  719   0.596   6.440   9.947  2.9523  0.3436 -2.1393
    6SAPS  C210  720   0.613   6.267   9.811 -0.1013  0.2721  0.0437
    6SAPS  H10R  721   0.552   6.179   9.779  0.4543 -0.0209 -0.2251
    6SAPS  H10S  722   0.719   6.232   9.815  0.8686  2.9760  0.1266
    6SAPS  C211  723   0.609   6.373   9.702 -1.7068  0.1277 -0.0566
    6SAPS  H11R  724   0.604   6.479   9.731  0.8683  0.4531 -0.5837
    6SAPS  C212  725   0.630   6.349   9.570 -0.5022  0.3180 -0.4280
    6SAPS  H12R  726   0.624   6.435   9.501 -0.9549  0.6852  0.0615
    6SAPS  C213  727   0.653   6.211   9.509  0.1572 -0.4552  0.2169
    6SAPS  H13R  728   0.553   6.162   9.504  0.1770 -0.3485 -2.9274
    6SAPS  H13S  729   0.713   6.155   9.584 -0.9586 -0.6236  1.0018
    6SAPS  C214  730   0.727   6.214   9.375 -0.5322 -1.0379 -0.5408
    6SAPS  H14R  731   0.837   6.203   9.373 -0.3927  0.3238 -1.3399
    6SAPS  C215  732   0.667   6.260   9.262 -0.2067  0.2828 -0.4023
    6SAPS  H15R  733   0.734   6.265   9.176 -1.3554 -0.4254 -1.3713
    6SAPS  C216  734   0.527   6.310   9.231  0.2047  0.4579 -0.6310
    6SAPS  H16R  735   0.463   6.328   9.319  0.3429 -1.1712 -0.1664
    6SAPS  H16S  736   0.473   6.235   9.170  1.9015 -1.6969  0.3793
    6SAPS  C217  737   0.549   6.440   9.147 -0.0143  0.3303  0.3923
    6SAPS  H17R  738   0.623   6.517   9.179  0.9874  0.8767 -2.9023
    6SAPS  H17S  739   0.459   6.504   9.140  1.2578  2.1444 -0.1005
    6SAPS  C218  740   0.576   6.400   9.000 -0.5174  0.3907 -0.4537
    6SAPS  H18R  741   0.478   6.358   8.972  0.6319 -3.1979  0.4194
    6SAPS  H18S  742   0.641   6.310   8.992 -1.7077 -0.4603 -0.7168
    6SAPS  C219  743   0.626   6.514   8.910 -0.6711  0.3059  0.6207
    6SAPS  H19R  744   0.546   6.590   8.902  0.2033  1.2612  0.7559
    6SAPS  H19S  745   0.631   6.476   8.805 -2.4699 -2.0203  1.2934
    6SAPS  C220  746   0.758   6.575   8.950  0.2231  0.2650 -0.1548
    6SAPS  H20R  747   0.837   6.505   8.983 -1.3760 -1.4798  0.0858
    6SAPS  H20S  748   0.740   6.658   9.022 -0.5441  1.0407 -1.1887
    6SAPS  H20T  749   0.805   6.611   8.855  0.8923  0.1091  0.1106
    6SAPS   C33  750   0.841   5.369  10.147  0.2302  0.2595 -0.7298
    6SAPS   H3X  751   0.815   5.474  10.170  0.8310 -0.2228  2.8578
    6SAPS   H3Y  752   0.751   5.307  10.129  0.1367  0.1429  0.0890
    6SAPS   C34  753   0.914   5.355  10.016 -0.4838 -0.1316  0.6177
    6SAPS   H4X  754   0.959   5.254  10.019  0.3228  0.0295 -2.3692
    6SAPS   H4Y  755   0.985   5.440  10.006 -1.3714  0.4250 -1.6720
    6SAPS   C35  756   0.823   5.328   9.894  0.0398  0.6484 -0.4123
    6SAPS   H5X  757   0.764   5.421   9.882 -1.5037  0.1093  2.2485
    6SAPS   H5Y  758   0.747   5.251   9.918 -0.0088  1.0035  0.6347
    6SAPS   C36  759   0.900   5.291   9.774 -0.3695 -0.1389 -0.1377
    6SAPS   H6X  760   0.965   5.203   9.796  0.4769  0.3212 -0.7385
    6SAPS   H6Y  761   0.972   5.373   9.754 -1.2036  0.5595 -0.2940
    6SAPS   C37  762   0.815   5.264   9.647  0.0910 -0.2229  0.7042
    6SAPS   H7X  763   0.729   5.334   9.645 -0.1330 -0.5144 -0.4830
    6SAPS   H7Y  764   0.769   5.163   9.655  1.0057 -0.6597  0.5999
    6SAPS   C38  765   0.896   5.270   9.515 -0.5242  0.4782 -0.4097
    6SAPS   H8X  766   0.972   5.189   9.515 -1.8641 -0.8209 -0.7014
    6SAPS   H8Y  767   0.945   5.370   9.522 -0.8669  0.5635  0.8644
    6SAPS   C39  768   0.796   5.273   9.398  0.1716  0.3361 -0.3344
    6SAPS   H9X  769   0.730   5.361   9.411 -0.5367 -0.1780 -0.4134
    6SAPS   H9Y  770   0.737   5.179   9.409  1.4388 -0.3979  0.4490
    6SAPS  C310  771   0.881   5.275   9.266 -0.1023  0.0913  0.4668
    6SAPS  H10X  772   0.807   5.250   9.187  0.7778 -0.1588 -0.2899
    6SAPS  H10Y  773   0.961   5.199   9.275 -0.0184  0.2376  0.9930
    6SAPS  C311  774   0.959   5.401   9.226 -0.0409  0.1655  0.6747
    6SAPS  H11X  775   1.035   5.416   9.306 -1.6576  1.3821  2.0589
    6SAPS  H11Y  776   0.894   5.491   9.230 -0.4977 -0.1468  0.3747
    6SAPS  C312  777   1.031   5.397   9.092 -0.0138 -0.0551 -0.5507
    6SAPS  H12X  778   0.949   5.401   9.016 -0.8435  1.8436  0.3894
    6SAPS  H12Y  779   1.097   5.307   9.092  1.9543  1.3136  1.3759
    6SAPS  C313  780   1.123   5.517   9.079 -0.0244  0.8646  0.0921
    6SAPS  H13X  781   1.219   5.501   9.132 -0.0863  1.1548  0.2894
    6SAPS  H13Y  782   1.069   5.603   9.123 -0.7940  0.8846 -0.8456
    6SAPS  C314  783   1.149   5.551   8.927  0.0951 -0.3146  0.5049
    6SAPS  H14X  784   1.061   5.607   8.889  0.8576  0.1176 -0.6962
    6SAPS  H14Y  785   1.172   5.463   8.863 -1.1653  0.0547 -0.4983
    6SAPS  C315  786   1.264   5.642   8.917 -0.4857 -0.4969  0.4863
    6SAPS  H15X  787   1.342   5.596   8.982 -0.8825  1.4208  2.4488
    6SAPS  H15Y  788   1.236   5.740   8.962 -2.9823 -0.2301 -1.4501
    6SAPS  C316  789   1.306   5.680   8.772 -0.7777  0.3011 -0.3192
    6SAPS  H16X  790   1.375   5.767   8.782 -0.5986  0.1934 -0.6134
    6SAPS  H16Y  791   1.218   5.714   8.713 -1.7773  2.4777  2.2228
    6SAPS  C317  792   1.397   5.581   8.698 -0.6883 -0.1086  0.1947
    6SAPS  H17X  793   1.350   5.481   8.686  1.8061 -1.8601  3.2015
    6SAPS  H17Y  794   1.480   5.562   8.770  0.7714  1.6911 -0.9284
    6SAPS  C318  795   1.450   5.629   8.569 -0.1850 -0.3386  0.2104
    6SAPS  H18X  796   1.522   5.550   8.539  0.2739  0.6272 -1.3489
    6SAPS  H18Y  797   1.512   5.721   8.580  0.2889 -0.5211 -0.8339
    6SAPS  H18Z  798   1.378   5.636   8.485 -0.4140  1.6381  0.5135
    7SAPS     N  799   3.930   0.609  11.170  0.2139 -0.8139  0.0326
    7SAPS   HN1  800   3.985   0.522  11.184  1.6859  0.0529 -0.1005
    7SAPS   HN2  801   3.943   0.649  11.075  0.6381  0.6309  0.6726
    7SAPS   HN3  802   3.942   0.677  11.248  1.3937  1.1799 -1.7773
    7SAPS   C12  803   3.789   0.572  11.186 -0.2610  0.1612 -0.3985
    7SAPS  H12A  804   3.775   0.493  11.113  1.5330  0.2802 -0.9030
    7SAPS   C13  805   3.752   0.504  11.320 -0.4067  0.5574  0.9789
    7SAPS  O13A  806   3.845   0.454  11.386 -0.3491 -0.1083  0.1536
    7SAPS  O13B  807   3.633   0.459  11.335 -0.4429  0.5168  0.4000
    7SAPS   C11  808   3.703   0.697  11.153 -0.2805  0.4493  0.3566
    7SAPS  H11A  809   3.727   0.789  11.210  1.4452  0.1864  0.1343
    7SAPS  H11B  810   3.600   0.666  11.179 -0.1442 -0.2504  0.1016
    7SAPS     P  811   3.612   0.823  10.937 -0.3523 -0.5013  0.1788
    7SAPS   O13  812   3.522   0.886  11.033  0.4839  0.4398 -0.2137
    7SAPS   O14  813   3.690   0.913  10.850  0.0015  0.6334 -0.8328
    7SAPS   O12  814   3.712   0.725  11.008 -0.0394  0.3823  0.9380
    7SAPS   O11  815   3.527   0.730  10.841 -0.1590 -0.5343 -0.5007
    7SAPS    C1  816   3.543   0.591  10.821  0.2327  0.0933 -0.3973
    7SAPS    HA  817   3.557   0.535  10.916 -0.9968  0.0081 -0.2517
    7SAPS    HB  818   3.449   0.551  10.777  0.2552 -1.2107  0.6753
    7SAPS    C2  819   3.659   0.560  10.720 -0.3239 -0.8424  0.0457
    7SAPS    HS  820   3.752   0.608  10.756 -0.2963 -0.8364 -0.0334
    7SAPS   O21  821   3.610   0.626  10.597 -0.0531 -0.0067 -0.7509
    7SAPS   C21  822   3.697   0.671  10.515  0.5879 -0.0135  0.7859
    7SAPS   O22  823   3.817   0.698  10.536 -0.0786 -0.0383  0.1275
    7SAPS   C22  824   3.618   0.714  10.387 -0.0674 -0.7815 -1.0332
    7SAPS   H2R  825   3.539   0.785  10.421  0.7703 -0.9577  1.5260
    7SAPS   H2S  826   3.679   0.773  10.315 -1.0755  0.9662 -0.5064
    7SAPS    C3  827   3.682   0.404  10.691 -0.7351 -1.0130 -0.0426
    7SAPS    HX  828   3.579   0.370  10.667 -0.7277  0.0544 -1.8192
    7SAPS    HY  829   3.725   0.357  10.782  1.0351 -2.5298 -1.5716
    7SAPS   O31  830   3.770   0.379  10.579  0.1673 -0.2537  0.0627
    7SAPS   C31  831   3.907   0.373  10.604  0.1645  0.1218 -1.2751
    7SAPS   O32  832   3.950   0.371  10.718  0.1067  0.3444  0.3625
    7SAPS   C32  833   3.979   0.339  10.476  0.0730 -0.3678  0.4793
    7SAPS   H2X  834   3.931   0.242  10.449 -2.3027  0.6101  0.8891
    7SAPS   H2Y  835   4.084   0.316  10.502  0.6561 -2.5205 -3.0228
    7SAPS   C23  836   3.557   0.596  10.314 -0.2654  0.2940 -0.6638
    7SAPS   H3R  837   3.483   0.552  10.384  2.1376 -1.0599  1.2059
    7SAPS   H3S  838   3.630   0.512  10.305 -1.7172 -1.4718  2.4259
    7SAPS   C24  839   3.491   0.629  10.176  0.3276 -0.4727 -0.8467
    7SAPS   H4R  840   3.412   0.700  10.207  0.6141 -0.5035 -0.0448
    7SAPS   H4S  841   3.436   0.537  10.147  1.0033 -0.8517 -0.9637
    7SAPS   C25  842   3.589   0.669  10.071  0.2453 -0.5617  0.7332
    7SAPS   H5R  843   3.673   0.731  10.107  0.8491  0.4312 -2.1176
    7SAPS   C26  844   3.580   0.643   9.936 -0.1208  0.5327 -0.6096
    7SAPS   H6R  845   3.672   0.673   9.885  0.5341  0.9660  0.7765
    7SAPS   C27  846   3.473   0.563   9.861 -0.5345  0.5182  0.2906
    7SAPS   H7R  847   3.406   0.628   9.800  0.2151  1.0305  0.0075
    7SAPS   H7S  848   3.398   0.513   9.927  0.7507  0.6338  1.8958
    7SAPS   C28  849   3.541   0.471   9.760  0.2158 -0.1731  0.0730
    7SAPS   H8R  850   3.550   0.364   9.785  2.5523 -1.0301 -3.7515
    7SAPS   C29  851   3.571   0.506   9.637 -0.7031 -1.1267  0.5611
    7SAPS   H9R  852   3.610   0.435   9.563  0.6976  1.5594 -1.4520
    7SAPS  C210  853   3.558   0.646   9.575  1.2104  0.2649  0.0137
    7SAPS  H10R  854   3.630   0.670   9.494  0.5592  1.4533 -0.2299
    7SAPS  H10S  855   3.573   0.730   9.647 -1.7450  0.8127  0.1085
    7SAPS  C211  856   3.414   0.657   9.516 -0.3433 -0.8961 -0.2682
    7SAPS  H11R  857   3.330   0.636   9.583 -0.5239  0.9712  0.1554
    7SAPS  C212  858   3.387   0.705   9.386 -0.0322 -0.1229 -0.7238
    7SAPS  H12R  859   3.285   0.694   9.346 -0.3975 -1.1605  0.4584
    7SAPS  C213  860   3.498   0.760   9.296  0.6336  0.6231 -0.5765
    7SAPS  H13R  861   3.568   0.680   9.262  1.5787  0.2086  2.0685
    7SAPS  H13S  862   3.555   0.836   9.355 -0.7476  1.4172 -0.2352
    7SAPS  C214  863   3.447   0.828   9.171 -0.4544  0.0953 -0.4612
    7SAPS  H14R  864   3.378   0.909   9.198  0.3324  0.8708 -0.7627
    7SAPS  C215  865   3.474   0.811   9.034  0.3763 -0.4629  0.2474
    7SAPS  H15R  866   3.433   0.886   8.965  0.2136 -0.1693  0.6603
    7SAPS  C216  867   3.575   0.717   8.975 -0.1236  0.4856 -0.3978
    7SAPS  H16R  868   3.529   0.664   8.888  1.5176 -0.1387 -0.9208
    7SAPS  H16S  869   3.600   0.638   9.049  1.1952 -0.0212 -1.3349
    7SAPS  C217  870   3.710   0.779   8.927 -0.6099 -0.0371 -0.3023
    7SAPS  H17R  871   3.695   0.867   8.860  0.4637  0.8591  0.5950
    7SAPS  H17S  872   3.766   0.706   8.864  3.8953  1.1617  1.8948
    7SAPS  C218  873   3.798   0.825   9.037 -0.3035  0.1163 -0.8542
    7SAPS  H18R  874   3.743   0.888   9.110  0.5059  1.3791 -1.3085
    7SAPS  H18S  875   3.870   0.899   8.997  1.2366 -0.7631  0.2040
    7SAPS  C219  876   3.873   0.720   9.132 -0.4316  0.3572 -0.7400
    7SAPS  H19R  877   3.917   0.640   9.068 -0.7464 -2.4568  2.3147
    7SAPS  H19S  878   3.796   0.676   9.198 -0.0617  2.7042  1.4009
    7SAPS  C220  879   3.981   0.772   9.230 -0.1396 -0.2702 -0.1932
    7SAPS  H20R  880   4.030   0.693   9.292 -0.8775 -1.9561 -1.6753
    7SAPS  H20S  881   3.938   0.849   9.298 -0.4189  1.6999 -2.4846
    7SAPS  H20T  882   4.056   0.826   9.169 -1.2073  1.3031 -0.1625
    7SAPS   C33  883   3.947   0.441  10.364 -0.7111 -0.2889  0.7833
    7SAPS   H3X  884   3.948   0.549  10.394 -0.2911  1.0364 -3.4024
    7SAPS   H3Y  885   3.845   0.413  10.332 -0.5714  0.4695 -0.3741
    7SAPS   C34  886   4.047   0.429  10.255  0.2076  0.0743 -0.0371
    7SAPS   H4X  887   4.050   0.325  10.218  3.2865  0.8970 -2.5823
    7SAPS   H4Y  888   4.151   0.452  10.287 -0.3180  3.2396 -0.2523
    7SAPS   C35  889   4.011   0.508  10.129 -0.2101 -0.2433 -0.0745
    7SAPS   H5X  890   3.982   0.613  10.150  3.2501  0.9768 -0.7550
    7SAPS   H5Y  891   3.922   0.462  10.080 -0.0742 -0.5420 -0.0407
    7SAPS   C36  892   4.118   0.502  10.023 -0.0149 -0.1194 -0.1500
    7SAPS   H6X  893   4.113   0.403   9.971 -0.2789 -0.4427  0.4846
    7SAPS   H6Y  894   4.221   0.525  10.058  0.3100 -1.2577 -0.2936
    7SAPS   C37  895   4.088   0.609   9.916 -0.3906 -0.1337  0.3642
    7SAPS   H7X  896   4.172   0.613   9.843 -0.7253 -0.3457 -0.0349
    7SAPS   H7Y  897   4.101   0.709   9.963 -1.5717  0.9049 -1.4015
    7SAPS   C38  898   3.948   0.603   9.855 -0.4105 -0.3145  0.1110
    7SAPS   H8X  899   3.872   0.651   9.920 -1.1819 -0.1521 -0.9033
    7SAPS   H8Y  900   3.920   0.497   9.835 -2.3208  0.1571  0.0828
    7SAPS   C39  901   3.938   0.679   9.724 -0.1967 -0.4247  0.4385
    7SAPS   H9X  902   3.961   0.786   9.742  1.3899 -0.8234  0.8990
    7SAPS   H9Y  903   3.833   0.681   9.687 -0.2124  0.1927  0.5048
    7SAPS  C310  904   4.036   0.643   9.604  0.0730  0.7789 -0.3147
    7SAPS  H10X  905   4.139   0.638   9.646 -0.2341  0.0894  0.3914
    7SAPS  H10Y  906   4.039   0.725   9.530  0.0294  0.0075 -1.1894
    7SAPS  C311  907   4.004   0.498   9.554  0.0380  0.3282  0.4140
    7SAPS  H11X  908   3.902   0.493   9.510  0.0665  0.3519  0.3467
    7SAPS  H11Y  909   3.994   0.441   9.650  0.8473  0.1897  0.4194
    7SAPS  C312  910   4.108   0.446   9.460 -1.0223 -0.3507  0.1954
    7SAPS  H12X  911   4.200   0.422   9.516 -0.0001  0.3469 -1.1269
    7SAPS  H12Y  912   4.139   0.527   9.390 -2.3424 -1.3768 -1.6790
    7SAPS  C313  913   4.070   0.332   9.362 -0.8851 -0.3151 -0.6567
    7SAPS  H13X  914   4.022   0.247   9.414 -1.1509 -0.7008 -1.5071
    7SAPS  H13Y  915   4.163   0.294   9.313 -0.8225  0.2666 -0.9919
    7SAPS  C314  916   3.973   0.389   9.259 -0.0961  0.6089 -0.1794
    7SAPS  H14X  917   4.020   0.477   9.209 -0.3783  1.6310  1.3076
    7SAPS  H14Y  918   3.885   0.433   9.310  0.0018  0.8340 -0.2034
    7SAPS  C315  919   3.923   0.278   9.163 -0.5919 -0.5344  0.1336
    7SAPS  H15X  920   3.844   0.324   9.100  0.0592 -0.7522 -0.8806
    7SAPS  H15Y  921   3.891   0.186   9.217  1.9199 -1.3050  0.4619
    7SAPS  C316  922   4.032   0.227   9.061 -0.2746  0.7966  0.0396
    7SAPS  H16X  923   4.074   0.136   9.107  0.3536  0.3761 -1.2968
    7SAPS  H16Y  924   4.104   0.312   9.057  0.3722  0.2532  0.0922
    7SAPS  C317  925   3.976   0.190   8.922 -0.3082 -0.2423  0.5844
    7SAPS  H17X  926   3.941   0.281   8.869 -1.5052 -0.5226  0.8430
    7SAPS  H17Y  927   3.888   0.122   8.935 -0.0355 -0.6592  0.2954
    7SAPS  C318  928   4.066   0.111   8.820  0.4926  0.4064  0.1079
    7SAPS  H18X  929   4.153   0.172   8.787  0.0658  0.1412 -1.6019
    7SAPS  H18Y  930   4.007   0.098   8.726  0.6679  4.2586 -0.7252
    7SAPS  H18Z  931   4.102   0.014   8.860 -0.2542  0.1922  0.2787
    8SAPS     N  932   0.556   1.323  11.097  0.1710 -0.0500  0.0194
    8SAPS   HN1  933   0.498   1.244  11.060  0.2306  0.6811 -1.7693
    8SAPS   HN2  934   0.622   1.355  11.023 -1.4780  0.6281 -1.2161
    8SAPS   HN3  935   0.607   1.292  11.182 -1.2889 -1.7784  0.3350
    8SAPS   C12  936   0.461   1.438  11.126 -0.1143  0.4136 -0.5302
    8SAPS  H12A  937   0.387   1.419  11.050  1.8691 -2.7604 -1.9043
    8SAPS   C13  938   0.386   1.428  11.267 -0.2350  0.5756 -0.9181
    8SAPS  O13A  939   0.405   1.331  11.355 -0.3359 -1.5087  0.2134
    8SAPS  O13B  940   0.291   1.501  11.284 -0.2949 -0.7900 -0.4322
    8SAPS   C11  941   0.546   1.567  11.128 -0.1666  0.3664  0.6896
    8SAPS  H11A  942   0.505   1.661  11.169 -0.4216 -0.5938  2.7874
    8SAPS  H11B  943   0.582   1.574  11.023  1.0725 -0.7547  1.0092
    8SAPS     P  944   0.801   1.610  11.189 -0.1502  0.4164  0.0670
    8SAPS   O13  945   0.838   1.682  11.312  0.0330  0.8226  0.0413
    8SAPS   O14  946   0.891   1.509  11.132  0.5765 -0.2444 -0.1329
    8SAPS   O12  947   0.659   1.540  11.216 -0.1351  0.3359 -0.3258
    8SAPS   O11  948   0.773   1.721  11.086 -0.3760 -0.0205 -0.0624
    8SAPS    C1  949   0.875   1.801  11.029  0.0431 -0.6257 -0.0976
    8SAPS    HA  950   0.893   1.890  11.093 -2.0927 -0.0879 -0.1662
    8SAPS    HB  951   0.966   1.738  11.022  3.3370  3.7793 -1.0769
    8SAPS    C2  952   0.831   1.844  10.880  0.7023 -0.5359 -0.4156
    8SAPS    HS  953   0.754   1.924  10.886  2.3048  1.1482 -1.2653
    8SAPS   O21  954   0.781   1.743  10.796  0.4084  0.0911  0.1119
    8SAPS   C21  955   0.856   1.634  10.772 -0.0652 -0.3992 -0.3895
    8SAPS   O22  956   0.973   1.620  10.799  0.5463 -0.0104 -0.2304
    8SAPS   C22  957   0.772   1.535  10.704 -0.4023  0.2060  0.9338
    8SAPS   H2R  958   0.709   1.482  10.778  0.3089 -3.1482 -0.6835
    8SAPS   H2S  959   0.711   1.586  10.627  0.8680 -2.3990 -2.0241
    8SAPS    C3  960   0.951   1.917  10.812  0.0885 -0.0512 -0.1943
    8SAPS    HX  961   1.044   1.859  10.793  1.5535  2.8734 -2.8035
    8SAPS    HY  962   0.984   1.991  10.888 -0.8457 -1.2380  1.4379
    8SAPS   O31  963   0.915   1.975  10.684  0.1012  0.1455 -0.2011
    8SAPS   C31  964   0.954   2.099  10.663  0.0665 -0.1275  0.8182
    8SAPS   O32  965   1.018   2.168  10.735  0.1265 -0.0254  0.2612
    8SAPS   C32  966   0.887   2.148  10.532 -0.2303  0.3085  0.0288
    8SAPS   H2X  967   0.788   2.191  10.557 -0.2615 -0.2519  0.9217
    8SAPS   H2Y  968   0.861   2.057  10.474 -2.2228  1.0124 -0.2489
    8SAPS   C23  969   0.863   1.423  10.648  0.3467  0.2557 -0.2139
    8SAPS   H3R  970   0.921   1.378  10.731 -0.1124 -1.1568 -0.6309
    8SAPS   H3S  971   0.939   1.466  10.580  1.5518  2.2025  2.1902
    8SAPS   C24  972   0.782   1.320  10.579 -0.6806  0.3570 -0.5777
    8SAPS   H4R  973   0.720   1.371  10.502 -0.5523  0.6066 -0.5158
    8SAPS   H4S  974   0.705   1.280  10.649  0.8420 -0.4626  0.7105
    8SAPS   C25  975   0.879   1.213  10.520  0.4519  0.0640 -0.0289
    8SAPS   H5R  976   0.907   1.134  10.591  0.9041  1.2504  1.1596
    8SAPS   C26  977   0.912   1.220  10.389 -0.3065 -0.2790 -0.0536
    8SAPS   H6R  978   0.971   1.137  10.349 -0.9114 -0.1146 -1.3432
    8SAPS   C27  979   0.872   1.325  10.288 -0.4124  0.1935 -0.2757
    8SAPS   H7R  980   0.888   1.424  10.337  1.1294 -1.1232  2.0180
    8SAPS   H7S  981   0.762   1.320  10.274 -0.4733 -0.7182  0.4307
    8SAPS   C28  982   0.931   1.310  10.145  0.0966  0.1062 -0.2907
    8SAPS   H8R  983   1.013   1.237  10.141  0.2135  0.2003  0.3164
    8SAPS   C29  984   0.902   1.375  10.035  0.0172 -0.8029  0.2756
    8SAPS   H9R  985   0.951   1.340   9.943 -0.1101 -1.2953  0.3966
    8SAPS  C210  986   0.793   1.484  10.026 -0.5023  0.4212 -0.4150
    8SAPS  H10R  987   0.784   1.546  10.118  0.4735  0.6832 -0.4866
    8SAPS  H10S  988   0.692   1.439  10.014 -0.4503 -0.2533  1.4478
    8SAPS  C211  989   0.831   1.567   9.906 -0.3012 -0.2413 -0.3896
    8SAPS  H11R  990   0.902   1.647   9.931  0.2408 -0.4535 -1.2102
    8SAPS  C212  991   0.790   1.550   9.777 -0.2846 -0.3212 -0.8896
    8SAPS  H12R  992   0.804   1.631   9.703  0.0144 -0.4023 -0.9232
    8SAPS  C213  993   0.700   1.437   9.729  0.4721 -0.9489 -0.6401
    8SAPS  H13R  994   0.635   1.474   9.647  3.8293  1.0110 -2.6269
    8SAPS  H13S  995   0.636   1.402   9.813 -2.8327  2.5202 -1.4028
    8SAPS  C214  996   0.785   1.335   9.668  0.0485 -0.7109 -1.2091
    8SAPS  H14R  997   0.818   1.261   9.743  2.2368  2.2493  0.9897
    8SAPS  C215  998   0.841   1.339   9.543 -0.3550  0.0096  0.0758
    8SAPS  H15R  999   0.888   1.247   9.505 -0.5081 -0.0722  0.0868
    8SAPS  C216 1000   0.812   1.449   9.442  0.1641  0.1778  0.2342
    8SAPS  H16R 1001   0.880   1.537   9.448 -0.2687  0.4730  1.1698
    8SAPS  H16S 1002   0.705   1.473   9.461 -0.2253 -2.3604  1.7946
    8SAPS  C217 1003   0.849   1.403   9.294  0.4144 -0.0620  0.1508
    8SAPS  H17R 1004   0.943   1.344   9.295 -0.2831 -1.2507  2.1357
    8SAPS  H17S 1005   0.852   1.483   9.218  0.0988 -0.6207 -0.4596
    8SAPS  C218 1006   0.742   1.319   9.239 -0.1953  0.1902  0.3700
    8SAPS  H18R 1007   0.748   1.327   9.129 -1.4770  2.0018  0.3878
    8SAPS  H18S 1008   0.641   1.350   9.275 -1.2846 -0.1199 -2.2402
    8SAPS  C219 1009   0.751   1.169   9.276  0.3495 -0.5484 -0.1744
    8SAPS  H19R 1010   0.733   1.151   9.384 -0.1946 -0.6536 -0.2821
    8SAPS  H19S 1011   0.854   1.128   9.268  1.5751  2.2388  0.1100
    8SAPS  C220 1012   0.651   1.083   9.196 -0.0802  1.2587 -0.2466
    8SAPS  H20R 1013   0.547   1.113   9.222 -0.2069 -0.8089  1.9997
    8SAPS  H20S 1014   0.664   0.975   9.222 -1.5401  0.7344 -1.5174
    8SAPS  H20T 1015   0.673   1.090   9.088  2.1122  0.1163  0.0702
    8SAPS   C33 1016   0.976   2.252  10.469  0.5207 -0.3522 -0.0264
    8SAPS   H3X 1017   1.049   2.211  10.396 -0.1201 -0.6251 -0.5285
    8SAPS   H3Y 1018   1.043   2.304  10.541  2.5573 -0.3922 -1.7976
    8SAPS   C34 1019   0.888   2.354  10.394  0.1409 -0.8089  0.3330
    8SAPS   H4X 1020   0.834   2.420  10.466 -1.8502  0.3214 -2.0736
    8SAPS   H4Y 1021   0.807   2.303  10.339  0.4318 -1.1261  0.1969
    8SAPS   C35 1022   0.980   2.442  10.300 -0.7567 -0.2002 -0.4702
    8SAPS   H5X 1023   1.062   2.383  10.253 -1.7605 -1.9660 -0.0843
    8SAPS   H5Y 1024   1.023   2.522  10.363  0.0829 -0.9898 -0.0291
    8SAPS   C36 1025   0.911   2.515  10.183 -0.1138  0.7890 -0.1397
    8SAPS   H6X 1026   0.958   2.603  10.135  0.5844 -0.2748 -1.4723
    8SAPS   H6Y 1027   0.821   2.570  10.218  0.4528  0.9100  1.1665
    8SAPS   C37 1028   0.886   2.426  10.054  0.0106 -0.3221 -0.3277
    8SAPS   H7X 1029   0.821   2.339  10.077  0.7388 -0.7031  0.3322
    8SAPS   H7Y 1030   0.986   2.385  10.028  0.1449 -0.6683  0.6774
    8SAPS   C38 1031   0.824   2.500   9.937 -0.2382 -0.2118  0.1861
    8SAPS   H8X 1032   0.879   2.595   9.918 -0.2962 -0.4819 -1.5108
    8SAPS   H8Y 1033   0.720   2.529   9.961 -0.1535 -0.2626  0.6188
    8SAPS   C39 1034   0.830   2.413   9.811  0.1887 -0.7891 -0.3521
    8SAPS   H9X 1035   0.781   2.317   9.838  1.6579 -0.9295  2.1281
    8SAPS   H9Y 1036   0.938   2.394   9.795  0.5745 -0.7315  1.9178
    8SAPS  C310 1037   0.764   2.469   9.691 -0.6418  0.8220  0.2732
    8SAPS  H10X 1038   0.782   2.574   9.661 -1.1593  0.4050 -1.5919
    8SAPS  H10Y 1039   0.655   2.486   9.705 -0.3820  2.1238  0.7789
    8SAPS  C311 1040   0.767   2.391   9.559  0.0001  0.4446 -0.1618
    8SAPS  H11X 1041   0.720   2.290   9.569  0.5807  0.1190 -0.6388
    8SAPS  H11Y 1042   0.870   2.379   9.521 -0.3977  0.0746 -1.1640
    8SAPS  C312 1043   0.694   2.464   9.450 -0.0445 -0.8432  0.7090
    8SAPS  H12X 1044   0.588   2.484   9.478  0.3659 -0.1898  1.8634
    8SAPS  H12Y 1045   0.681   2.401   9.360 -0.2646 -1.7282  1.3516
    8SAPS  C313 1046   0.770   2.586   9.403 -0.0848 -0.6383  0.4318
    8SAPS  H13X 1047   0.881   2.579   9.403  0.0846  1.4419 -0.0843
    8SAPS  H13Y 1048   0.734   2.672   9.462 -3.7460 -1.4965 -0.3116
    8SAPS  C314 1049   0.734   2.626   9.260  0.7760 -0.9626  0.3610
    8SAPS  H14X 1050   0.624   2.618   9.244  1.0116  1.1914 -3.7741
    8SAPS  H14Y 1051   0.785   2.553   9.194 -0.7146 -2.6306  0.9655
    8SAPS  C315 1052   0.773   2.771   9.220  0.2926  0.3784  0.2099
    8SAPS  H15X 1053   0.883   2.779   9.231  0.3794  3.5140 -1.6992
    8SAPS  H15Y 1054   0.733   2.849   9.288  0.9706 -0.3460  1.4805
    8SAPS  C316 1055   0.731   2.804   9.075  0.1468 -0.4476  0.3546
    8SAPS  H16X 1056   0.758   2.911   9.063  0.5554 -0.1315  3.3019
    8SAPS  H16Y 1057   0.620   2.801   9.067  0.2009 -0.6979 -0.3828
    8SAPS  C317 1058   0.803   2.723   8.963 -0.2249 -0.2018 -0.0031
    8SAPS  H17X 1059   0.772   2.617   8.978  1.4212 -0.8515 -0.9347
    8SAPS  H17Y 1060   0.911   2.734   8.986 -0.6127  3.9330  0.4190
    8SAPS  C318 1061   0.769   2.765   8.825  0.1744 -0.5248  0.1554
    8SAPS  H18X 1062   0.825   2.714   8.743  3.1144  2.9717 -0.2823
    8SAPS  H18Y 1063   0.790   2.874   8.820  0.3770 -0.6095 -2.5524
    8SAPS  H18Z 1064   0.663   2.749   8.797 -0.3710  0.5969  1.4716
    9SAPS     N 1065   4.571   4.808   6.552 -0.4910  0.1791  0.2261
    9SAPS   HN1 1066   4.467   4.803   6.553 -0.6863  2.3095 -1.7061
    9SAPS   HN2 1067   4.622   4.754   6.625  1.2356  0.7839 -0.4878
    9SAPS   HN3 1068   4.596   4.907   6.573  1.0890  0.4646 -2.6248
    9SAPS   C12 1069   4.622   4.781   6.417 -0.6036  0.4314 -0.0681
    9SAPS  H12A 1070   4.615   4.675   6.395  2.4374  0.2900 -0.7390
    9SAPS   C13 1071   4.548   4.845   6.299  0.4570 -1.0484 -0.7791
    9SAPS  O13A 1072   4.440   4.906   6.321 -0.5469  0.1088 -0.1458
    9SAPS  O13B 1073   4.595   4.826   6.186 -0.3016 -0.1873  0.2776
    9SAPS   C11 1074   4.773   4.820   6.407 -0.7569  0.8891  0.1392
    9SAPS  H11A 1075   4.792   4.922   6.446 -0.1254  0.6339  0.5251
    9SAPS  H11B 1076   4.804   4.811   6.301  2.4377  2.4471  0.8094
    9SAPS     P 1077   4.999   4.708   6.458 -0.1866 -0.3789 -0.7404
    9SAPS   O13 1078   5.044   4.591   6.544 -0.5189 -0.7644 -0.2023
    9SAPS   O14 1079   5.037   4.710   6.316 -0.3092  0.5228  0.2226
    9SAPS   O12 1080   4.840   4.710   6.473  0.4951 -0.2330  0.5894
    9SAPS   O11 1081   5.043   4.852   6.518 -0.5165  0.5267 -0.3593
    9SAPS    C1 1082   4.982   4.952   6.597 -0.4021  0.1766  0.2042
    9SAPS    HA 1083   4.969   5.039   6.529 -1.3415 -0.1655 -0.0743
    9SAPS    HB 1084   4.880   4.913   6.618 -0.0170 -2.1864 -1.9209
    9SAPS    C2 1085   5.059   4.988   6.722  0.0558  0.4978  0.1406
    9SAPS    HS 1086   5.165   5.012   6.700  0.7915 -1.0943  1.7512
    9SAPS   O21 1087   5.045   4.875   6.806 -0.3809  0.2135  0.1254
    9SAPS   C21 1088   5.143   4.785   6.791 -0.3684 -0.5565  0.0203
    9SAPS   O22 1089   5.249   4.803   6.729  0.1424  0.3330  0.1755
    9SAPS   C22 1090   5.108   4.653   6.865 -0.6820  0.2351  0.0681
    9SAPS   H2R 1091   5.079   4.674   6.970  1.9339 -2.9462  1.5988
    9SAPS   H2S 1092   5.025   4.597   6.817 -0.0450  0.1638 -0.9787
    9SAPS    C3 1093   4.993   5.110   6.781  0.7678  0.0395 -0.0705
    9SAPS    HX 1094   4.882   5.101   6.784  0.8497 -1.6930 -0.7987
    9SAPS    HY 1095   5.014   5.194   6.712  0.4503  1.8612  1.9378
    9SAPS   O31 1096   5.028   5.136   6.917 -0.3868  0.0120  0.8704
    9SAPS   C31 1097   5.138   5.197   6.938 -0.5003  0.0520  0.1368
    9SAPS   O32 1098   5.220   5.228   6.853 -0.3674  0.2218 -0.2104
    9SAPS   C32 1099   5.155   5.245   7.081  0.0215  0.0471 -0.0658
    9SAPS   H2X 1100   5.057   5.231   7.130 -0.8816  0.5753 -1.6622
    9SAPS   H2Y 1101   5.172   5.355   7.078 -2.5117  0.4903  0.0311
    9SAPS   C23 1102   5.240   4.564   6.854 -0.3287 -0.0613 -0.2536
    9SAPS   H3R 1103   5.321   4.624   6.901 -0.4282  0.5121 -0.8095
    9SAPS   H3S 1104   5.261   4.545   6.747 -1.6316  2.5812 -1.0894
    9SAPS   C24 1105   5.225   4.428   6.919 -0.3617  0.5593 -0.0802
    9SAPS   H4R 1106   5.154   4.359   6.869  1.4863 -2.4224  1.1700
    9SAPS   H4S 1107   5.172   4.436   7.016 -2.4362  3.6451 -1.2990
    9SAPS   C25 1108   5.365   4.358   6.939  0.0361 -0.0640  0.3237
    9SAPS   H5R 1109   5.411   4.302   6.856 -1.2345  0.3764 -0.6998
    9SAPS   C26 1110   5.439   4.361   7.055  0.8313 -0.4757 -0.1837
    9SAPS   H6R 1111   5.528   4.297   7.067 -0.8814 -2.6287  2.0833
    9SAPS   C27 1112   5.392   4.428   7.186 -0.1800  0.2080 -0.0603
    9SAPS   H7R 1113   5.325   4.515   7.166  0.6195  0.9800  0.5144
    9SAPS   H7S 1114   5.479   4.483   7.229 -1.8569  3.2185 -0.2569
    9SAPS   C28 1115   5.333   4.328   7.279 -0.3623  0.5972 -0.0881
    9SAPS   H8R 1116   5.239   4.280   7.247 -1.4518  2.4580  0.2232
    9SAPS   C29 1117   5.385   4.289   7.398  0.6254  0.6615  0.0074
    9SAPS   H9R 1118   5.323   4.224   7.462 -0.0028  1.3382  0.1041
    9SAPS  C210 1119   5.507   4.334   7.473  0.0607 -0.5891 -0.2545
    9SAPS  H10R 1120   5.559   4.418   7.422  1.4598 -2.0906 -1.4217
    9SAPS  H10S 1121   5.585   4.255   7.463  0.3743 -0.2518 -0.5558
    9SAPS  C211 1122   5.485   4.361   7.624  0.7504 -0.3133  0.1346
    9SAPS  H11R 1123   5.406   4.433   7.648  1.5863  0.2178  1.4235
    9SAPS  C212 1124   5.558   4.298   7.716 -0.1927  0.0607 -0.4987
    9SAPS  H12R 1125   5.528   4.319   7.820  2.4549  2.2901 -0.0915
    9SAPS  C213 1126   5.665   4.197   7.710 -0.5360 -0.0557  0.2923
    9SAPS  H13R 1127   5.734   4.216   7.625 -1.0074 -1.5092 -0.4587
    9SAPS  H13S 1128   5.618   4.096   7.699  0.5323 -0.5332 -0.0345
    9SAPS  C214 1129   5.739   4.181   7.835 -0.1334  0.0394 -0.0834
    9SAPS  H14R 1130   5.749   4.268   7.900  1.2845 -0.1221 -0.0551
    9SAPS  C215 1131   5.812   4.077   7.860 -0.3309  0.2331 -0.4767
    9SAPS  H15R 1132   5.851   4.073   7.963 -2.9246  0.2640  0.6077
    9SAPS  C216 1133   5.838   3.962   7.774 -0.1965  0.7599 -0.3560
    9SAPS  H16R 1134   5.841   3.994   7.668  1.4558  1.3410 -0.1708
    9SAPS  H16S 1135   5.762   3.881   7.774  0.5231  0.0582  0.4918
    9SAPS  C217 1136   5.975   3.892   7.812 -0.6330 -0.4231  0.0281
    9SAPS  H17R 1137   6.000   3.861   7.916  0.0342  1.7585  0.5714
    9SAPS  H17S 1138   6.051   3.971   7.793 -1.0196 -0.2249 -0.7697
    9SAPS  C218 1139   6.020   3.787   7.709  0.1369  0.8641  0.1907
    9SAPS  H18R 1140   5.973   3.802   7.609  0.5033  0.4953 -0.0433
    9SAPS  H18S 1141   5.982   3.684   7.726 -2.4562  1.1679 -2.9032
    9SAPS  C219 1142   6.177   3.786   7.698  0.3642  0.1588  0.4210
    9SAPS  H19R 1143   6.192   3.892   7.668 -2.7192  0.1094 -1.7881
    9SAPS  H19S 1144   6.208   3.729   7.607 -1.5771  0.6057 -0.5988
    9SAPS  C220 1145   6.246   3.744   7.824 -0.7013  0.5464 -1.0291
    9SAPS  H20R 1146   6.355   3.747   7.804 -0.3943 -1.1022  0.2388
    9SAPS  H20S 1147   6.228   3.636   7.843  0.6581  0.6450  1.0239
    9SAPS  H20T 1148   6.207   3.814   7.901 -1.3494 -0.6369 -0.2559
    9SAPS   C33 1149   5.254   5.159   7.159 -0.2767  0.6989  0.1365
    9SAPS   H3X 1150   5.357   5.171   7.119 -0.0493 -0.5647  0.2932
    9SAPS   H3Y 1151   5.218   5.055   7.143 -2.2136  1.3435  0.0769
    9SAPS   C34 1152   5.252   5.184   7.311  0.5507  0.4491  0.4887
    9SAPS   H4X 1153   5.156   5.161   7.362  0.8555  1.9079  1.7852
    9SAPS   H4Y 1154   5.271   5.293   7.320  1.0047  0.5452 -1.3597
    9SAPS   C35 1155   5.369   5.120   7.385  0.1377 -0.0803  0.1602
    9SAPS   H5X 1156   5.466   5.134   7.332  1.0523  2.1296  2.2353
    9SAPS   H5Y 1157   5.355   5.010   7.390  0.1326 -0.1583 -1.1426
    9SAPS   C36 1158   5.396   5.174   7.526  0.0672 -0.4644 -0.0292
    9SAPS   H6X 1159   5.446   5.273   7.533  0.8243 -0.9343  1.4884
    9SAPS   H6Y 1160   5.450   5.091   7.576 -2.2755 -0.9876  1.8229
    9SAPS   C37 1161   5.270   5.195   7.606  0.1821 -0.3852 -0.0454
    9SAPS   H7X 1162   5.207   5.106   7.584 -1.2162  0.1548  1.5764
    9SAPS   H7Y 1163   5.223   5.289   7.569  2.2248  1.3141  1.4459
    9SAPS   C38 1164   5.291   5.216   7.750 -0.0760 -0.6345 -0.4623
    9SAPS   H8X 1165   5.363   5.299   7.761 -1.0973  0.2321 -0.0948
    9SAPS   H8Y 1166   5.340   5.131   7.803  0.5932  0.5682  0.9139
    9SAPS   C39 1167   5.159   5.254   7.829  0.0735  0.5049 -0.1826
    9SAPS   H9X 1168   5.093   5.167   7.811  0.6050  0.1588 -0.5006
    9SAPS   H9Y 1169   5.103   5.338   7.784  1.4710  1.2295 -0.6424
    9SAPS  C310 1170   5.171   5.265   7.981 -0.3431 -0.0611 -0.1714
    9SAPS  H10X 1171   5.220   5.169   8.011 -1.0578 -0.2428  0.4477
    9SAPS  H10Y 1172   5.070   5.268   8.027  0.4672 -0.4358  1.7455
    9SAPS  C311 1173   5.262   5.380   8.032  0.7830 -0.5276  0.2720
    9SAPS  H11X 1174   5.243   5.464   7.961  0.4562 -1.1538 -0.3928
    9SAPS  H11Y 1175   5.367   5.346   8.019  0.5269 -1.5123  0.7149
    9SAPS  C312 1176   5.254   5.411   8.176 -0.5727 -0.3949 -1.3208
    9SAPS  H12X 1177   5.167   5.479   8.189 -0.0420  0.4251 -1.9198
    9SAPS  H12Y 1178   5.341   5.468   8.214 -1.4967  0.3273 -0.2311
    9SAPS  C313 1179   5.247   5.291   8.276 -0.0477 -0.6138  0.1961
    9SAPS  H13X 1180   5.155   5.238   8.244 -1.8018  1.9266  0.7433
    9SAPS  H13Y 1181   5.226   5.330   8.378 -1.0202 -1.5956  0.3871
    9SAPS  C314 1182   5.361   5.189   8.270  0.2345 -0.8701  0.3161
    9SAPS  H14X 1183   5.458   5.243   8.261 -0.0633 -0.6712 -2.9405
    9SAPS  H14Y 1184   5.351   5.138   8.172 -0.9163  0.2528 -0.1859
    9SAPS  C315 1185   5.370   5.086   8.382 -0.6305  0.1530 -0.1413
    9SAPS  H15X 1186   5.292   5.007   8.370  1.2254 -1.5815 -1.4222
    9SAPS  H15Y 1187   5.354   5.146   8.474 -0.1534 -0.7828  0.5617
    9SAPS  C316 1188   5.516   5.019   8.392 -0.5969  0.2381  0.7034
    9SAPS  H16X 1189   5.594   5.091   8.363 -1.2619  0.9766  0.7145
    9SAPS  H16Y 1190   5.506   4.923   8.337 -1.2988  0.2476  0.8055
    9SAPS  C317 1191   5.552   4.974   8.546 -0.1860 -0.0781  0.4146
    9SAPS  H17X 1192   5.475   4.898   8.569 -0.6046  0.5015  0.9391
    9SAPS  H17Y 1193   5.532   5.071   8.597 -0.7787  0.6942 -1.2045
    9SAPS  C318 1194   5.693   4.928   8.562  0.6615 -0.3805  0.1875
    9SAPS  H18X 1195   5.763   5.005   8.600 -1.0898  0.2314  2.4164
    9SAPS  H18Y 1196   5.733   4.887   8.466 -1.3916 -2.3522  0.0863
    9SAPS  H18Z 1197   5.685   4.847   8.638 -2.5660 -0.4395 -0.0864
   10SAPS     N 1198   6.113   3.570   6.262 -0.0598 -0.3978 -0.0681
   10SAPS   HN1 1199   6.138   3.512   6.344  1.3854  0.7498  0.3593
   10SAPS   HN2 1200   6.033   3.543   6.201 -0.3616 -0.6697  0.4485
   10SAPS   HN3 1201   6.192   3.556   6.195  0.4102  1.0088  0.1649
   10SAPS   C12 1202   6.111   3.712   6.304  0.3029 -0.2246  0.5391
   10SAPS  H12A 1203   6.180   3.717   6.386  2.3403  2.3473 -1.1986
   10SAPS   C13 1204   6.168   3.812   6.207  0.1194  0.2813  0.1154
   10SAPS  O13A 1205   6.213   3.769   6.095 -0.5977  0.0097 -0.5122
   10SAPS  O13B 1206   6.200   3.922   6.257  0.1881  0.2722  0.2468
   10SAPS   C11 1207   5.969   3.748   6.350  0.3480  0.0954  0.7716
   10SAPS  H11A 1208   5.909   3.739   6.256  1.8658  0.7428 -0.2867
   10SAPS  H11B 1209   5.967   3.853   6.386  2.1016 -0.0610  1.4225
   10SAPS     P 1210   5.789   3.670   6.525 -0.2723  0.1619 -0.1300
   10SAPS   O13 1211   5.715   3.789   6.484 -0.0857 -0.2413 -0.0750
   10SAPS   O14 1212   5.721   3.539   6.515 -0.2062 -0.0534 -0.2689
   10SAPS   O12 1213   5.928   3.664   6.462 -0.0584 -0.7028 -0.1123
   10SAPS   O11 1214   5.840   3.702   6.670  0.3778  0.4926  0.1408
   10SAPS    C1 1215   5.886   3.599   6.758  0.1352  0.5201  0.0176
   10SAPS    HA 1216   5.808   3.574   6.833  1.7518  0.6559  1.7995
   10SAPS    HB 1217   5.909   3.502   6.708 -2.7078 -1.2606  1.8810
   10SAPS    C2 1218   6.004   3.650   6.842 -0.2871 -0.1063  0.3178
   10SAPS    HS 1219   6.038   3.559   6.896 -0.0145 -0.4634 -0.4380
   10SAPS   O21 1220   5.955   3.747   6.935  0.3100 -0.1712 -0.1721
   10SAPS   C21 1221   5.869   3.720   7.034 -0.1788  0.6040 -0.4956
   10SAPS   O22 1222   5.819   3.608   7.063  0.3229  0.0228  0.1959
   10SAPS   C22 1223   5.849   3.833   7.127 -0.4150  0.1193  0.1496
   10SAPS   H2R 1224   5.925   3.911   7.107 -1.7492  1.6411  0.8146
   10SAPS   H2S 1225   5.755   3.879   7.090 -0.0007  0.3723 -0.6182
   10SAPS    C3 1226   6.114   3.712   6.757  0.0161 -0.7326 -0.2372
   10SAPS    HX 1227   6.082   3.805   6.706 -1.8166 -0.9941  0.3507
   10SAPS    HY 1228   6.143   3.646   6.673  1.6444  1.0091 -1.1080
   10SAPS   O31 1229   6.224   3.724   6.850  0.5897 -0.4080  0.1322
   10SAPS   C31 1230   6.248   3.859   6.885 -0.5086  1.1458  0.6008
   10SAPS   O32 1231   6.185   3.955   6.851  0.6615  0.1840 -0.4103
   10SAPS   C32 1232   6.373   3.854   6.967  0.3595  0.2125 -0.1528
   10SAPS   H2X 1233   6.442   3.900   6.893  0.4183 -0.0996 -0.2938
   10SAPS   H2Y 1234   6.404   3.750   6.986 -0.6844 -0.2213 -0.7110
   10SAPS   C23 1235   5.828   3.785   7.273 -0.4688 -0.7292 -0.4966
   10SAPS   H3R 1236   5.914   3.725   7.308  1.1001  1.4199 -0.5056
   10SAPS   H3S 1237   5.733   3.727   7.284 -0.9998  0.2824  0.4735
   10SAPS   C24 1238   5.813   3.906   7.372 -0.1480 -0.7491  0.3276
   10SAPS   H4R 1239   5.910   3.960   7.369 -1.0099  0.8178 -0.6115
   10SAPS   H4S 1240   5.814   3.869   7.477  0.7762  2.6320  1.6361
   10SAPS   C25 1241   5.705   4.010   7.345  0.2959 -0.1964  0.1081
   10SAPS   H5R 1242   5.745   4.107   7.313 -0.0219 -0.1464 -0.1456
   10SAPS   C26 1243   5.571   3.997   7.346 -0.4028  0.5564  0.3146
   10SAPS   H6R 1244   5.509   4.080   7.309 -1.8515 -0.4581  0.3692
   10SAPS   C27 1245   5.497   3.872   7.383  0.8052  0.1331 -0.3883
   10SAPS   H7R 1246   5.544   3.825   7.472  0.4333 -0.4775 -0.5095
   10SAPS   H7S 1247   5.493   3.799   7.300  0.8460 -1.2784  0.8077
   10SAPS   C28 1248   5.357   3.899   7.428  0.0901  0.2721 -0.0358
   10SAPS   H8R 1249   5.294   3.941   7.348 -1.5537 -1.1784  0.4440
   10SAPS   C29 1250   5.306   3.900   7.550  0.7503  0.8751 -0.5886
   10SAPS   H9R 1251   5.203   3.939   7.553  1.0088  1.5461 -0.1321
   10SAPS  C210 1252   5.366   3.861   7.686 -0.3849 -0.0510 -0.2508
   10SAPS  H10R 1253   5.474   3.834   7.683  0.0384  1.5826 -0.3534
   10SAPS  H10S 1254   5.319   3.777   7.742 -0.2966  0.9295  1.3504
   10SAPS  C211 1255   5.344   3.979   7.782  0.9526 -0.4801  0.1183
   10SAPS  H11R 1256   5.276   4.060   7.752  0.8838 -0.5351  0.1236
   10SAPS  C212 1257   5.409   3.995   7.899  0.4609 -0.0374 -0.2256
   10SAPS  H12R 1258   5.396   4.090   7.953  1.2098 -0.2456  0.3404
   10SAPS  C213 1259   5.496   3.891   7.959  0.3315 -0.0804  0.2836
   10SAPS  H13R 1260   5.597   3.937   7.968  0.3799 -0.2323  0.5581
   10SAPS  H13S 1261   5.508   3.801   7.895  0.7374  0.4093 -0.3441
   10SAPS  C214 1262   5.450   3.837   8.093  0.5486 -0.5561 -0.4192
   10SAPS  H14R 1263   5.350   3.793   8.078  0.7017 -0.7651 -0.8231
   10SAPS  C215 1264   5.510   3.828   8.213  0.2635 -0.3149 -0.3113
   10SAPS  H15R 1265   5.470   3.771   8.298  3.0918 -1.5246  0.3425
   10SAPS  C216 1266   5.656   3.881   8.224 -0.4494  0.1181 -0.0894
   10SAPS  H16R 1267   5.691   3.953   8.146  1.1905  0.1246  0.6024
   10SAPS  H16S 1268   5.730   3.798   8.227 -0.8514 -0.2267  1.4774
   10SAPS  C217 1269   5.686   3.939   8.362 -0.2591 -0.0290  0.6570
   10SAPS  H17R 1270   5.655   3.851   8.423 -1.4072 -1.0398 -1.2468
   10SAPS  H17S 1271   5.615   4.021   8.386 -0.1578  0.2372  0.0712
   10SAPS  C218 1272   5.827   3.963   8.387  0.0827 -0.2365 -0.2377
   10SAPS  H18R 1273   5.855   4.050   8.324  0.8537  0.0301  0.4597
   10SAPS  H18S 1274   5.889   3.881   8.345  2.4172  1.7040 -0.7596
   10SAPS  C219 1275   5.851   3.997   8.536 -0.6781  0.2961 -0.0457
   10SAPS  H19R 1276   5.956   4.004   8.570  0.1484 -1.6585 -1.9729
   10SAPS  H19S 1277   5.809   3.911   8.591  1.2894  0.0706  1.1897
   10SAPS  C220 1278   5.776   4.125   8.591 -0.5498  0.3878 -0.3008
   10SAPS  H20R 1279   5.682   4.145   8.536 -0.6680 -0.3116 -0.3554
   10SAPS  H20S 1280   5.848   4.210   8.592  0.8285 -0.6803  2.7355
   10SAPS  H20T 1281   5.750   4.094   8.695  0.3600  2.0200  0.4599
   10SAPS   C33 1282   6.372   3.953   7.084  0.5206  0.0920  0.0677
   10SAPS   H3X 1283   6.365   4.058   7.048 -2.9873 -0.3687 -0.9243
   10SAPS   H3Y 1284   6.465   3.954   7.145 -0.1408  0.5992  1.1039
   10SAPS   C34 1285   6.254   3.944   7.187 -1.1749  0.4691 -0.6177
   10SAPS   H4X 1286   6.164   3.984   7.136 -3.0973 -3.4198 -0.6630
   10SAPS   H4Y 1287   6.257   4.014   7.273  0.4457  0.6752 -0.8071
   10SAPS   C35 1288   6.225   3.801   7.231  0.0646 -0.3929 -0.1617
   10SAPS   H5X 1289   6.184   3.725   7.161  2.2855 -0.6614 -1.2832
   10SAPS   H5Y 1290   6.152   3.816   7.313 -0.4246 -1.3657 -0.4032
   10SAPS   C36 1291   6.353   3.727   7.287 -0.0023 -0.6192 -0.9378
   10SAPS   H6X 1292   6.431   3.702   7.213  1.6294 -1.4092  0.9667
   10SAPS   H6Y 1293   6.313   3.633   7.330 -0.0868  0.4551  1.4925
   10SAPS   C37 1294   6.429   3.817   7.391  0.9484 -0.2794  0.9156
   10SAPS   H7X 1295   6.362   3.867   7.464  1.4344  0.7663  0.6595
   10SAPS   H7Y 1296   6.476   3.904   7.340 -0.6989  0.1437  0.0552
   10SAPS   C38 1297   6.536   3.732   7.462  0.0296  0.2278  0.3491
   10SAPS   H8X 1298   6.588   3.674   7.383 -3.2284 -4.4778  1.1999
   10SAPS   H8Y 1299   6.487   3.646   7.513 -0.7775  0.4089 -0.1064
   10SAPS   C39 1300   6.636   3.815   7.540  0.2378 -0.4935  0.8525
   10SAPS   H9X 1301   6.580   3.892   7.596  0.7024  0.5982 -0.1426
   10SAPS   H9Y 1302   6.689   3.864   7.455 -2.2012  1.8888  0.5725
   10SAPS  C310 1303   6.732   3.718   7.612  0.0551  0.2559 -0.0829
   10SAPS  H10X 1304   6.777   3.650   7.536 -1.3778  0.1835 -0.8918
   10SAPS  H10Y 1305   6.674   3.644   7.671 -0.8470  0.1476 -1.0693
   10SAPS  C311 1306   6.850   3.789   7.680  0.2482  0.2242  0.0025
   10SAPS  H11X 1307   6.898   3.858   7.607  1.0730 -0.5836 -0.2453
   10SAPS  H11Y 1308   6.922   3.707   7.700  1.4331  1.1273 -0.4435
   10SAPS  C312 1309   6.821   3.854   7.815  0.0567  0.2844  0.1210
   10SAPS  H12X 1310   6.729   3.915   7.811 -1.9935 -2.5266  1.4647
   10SAPS  H12Y 1311   6.911   3.917   7.835  2.3819 -2.3901 -1.1345
   10SAPS  C313 1312   6.800   3.737   7.919  0.6454 -0.1507  0.3284
   10SAPS  H13X 1313   6.855   3.643   7.899 -2.7699 -1.6892 -2.9977
   10SAPS  H13Y 1314   6.694   3.710   7.903  0.8075 -1.0523  0.7299
   10SAPS  C314 1315   6.845   3.783   8.060 -0.8293  0.2446 -0.2475
   10SAPS  H14X 1316   6.783   3.874   8.077 -1.1705  0.4107 -2.1575
   10SAPS  H14Y 1317   6.949   3.821   8.067 -1.3292  1.3102  2.9014
   10SAPS  C315 1318   6.817   3.671   8.167  0.1551 -0.3509  0.2766
   10SAPS  H15X 1319   6.874   3.579   8.144  0.5488 -0.2171  0.7173
   10SAPS  H15Y 1320   6.712   3.637   8.154  0.5474 -0.7217 -2.5153
   10SAPS  C316 1321   6.861   3.714   8.307  0.7024 -0.2675 -0.0343
   10SAPS  H16X 1322   6.833   3.821   8.317 -2.2399 -1.0903  1.9204
   10SAPS  H16Y 1323   6.972   3.709   8.307  0.8128  1.6755  0.1658
   10SAPS  C317 1324   6.806   3.628   8.421  0.3488  0.0752  0.2460
   10SAPS  H17X 1325   6.826   3.520   8.411  0.6629  0.0900  0.7272
   10SAPS  H17Y 1326   6.696   3.642   8.424  0.4547  0.9770  0.2596
   10SAPS  C318 1327   6.863   3.681   8.551  0.0893  0.0620 -0.8308
   10SAPS  H18X 1328   6.782   3.697   8.626 -1.1514  0.7874 -2.2693
   10SAPS  H18Y 1329   6.904   3.783   8.537  1.7510 -0.3794  0.5516
   10SAPS  H18Z 1330   6.943   3.619   8.596  0.7137  0.7620 -0.9614
   11SAPS     N 1331   0.587   0.003   6.347 -0.4429  0.4903 -0.1394
   11SAPS   HN1 1332   0.561  -0.093   6.318 -0.1616  0.1373  0.7276
   11SAPS   HN2 1333   0.681  -0.007   6.391 -0.1990 -0.3452 -0.8101
   11SAPS   HN3 1334   0.518   0.046   6.411 -1.1790 -0.2152 -0.4498
   11SAPS   C12 1335   0.623   0.093   6.245  0.3909  0.0669 -0.5393
   11SAPS  H12A 1336   0.553   0.095   6.163 -1.4249  2.6512  0.9203
   11SAPS   C13 1337   0.626   0.244   6.291  0.2614 -0.8352  0.7277
   11SAPS  O13A 1338   0.583   0.281   6.402 -0.4253 -0.0108 -0.1803
   11SAPS  O13B 1339   0.619   0.329   6.194 -0.6977 -0.2141  0.3235
   11SAPS   C11 1340   0.765   0.051   6.190  0.3294  0.0867 -0.0033
   11SAPS  H11A 1341   0.806   0.128   6.121 -0.4842 -1.4324 -2.2985
   11SAPS  H11B 1342   0.751  -0.047   6.139 -1.3709 -0.8164  2.0663
   11SAPS     P 1343   1.007   0.053   6.291 -0.5935 -0.0405 -0.2538
   11SAPS   O13 1344   1.068  -0.076   6.258  0.5250 -0.1145 -0.3452
   11SAPS   O14 1345   1.041   0.171   6.207  0.6774 -0.1874  0.1099
   11SAPS   O12 1346   0.852   0.034   6.301  0.3211 -0.1033 -0.4272
   11SAPS   O11 1347   1.040   0.086   6.439 -0.1171 -0.1151 -0.9585
   11SAPS    C1 1348   0.951   0.175   6.512  0.3279  0.6684 -0.5082
   11SAPS    HA 1349   0.920   0.257   6.444  1.3127 -0.0889 -1.9394
   11SAPS    HB 1350   0.853   0.126   6.531  1.6190 -2.4745 -1.3134
   11SAPS    C2 1351   1.015   0.227   6.640  0.1265 -0.2767  0.6090
   11SAPS    HS 1352   1.122   0.247   6.620  0.6293 -1.1811  2.2796
   11SAPS   O21 1353   1.010   0.124   6.728 -0.2555  0.0931 -0.1262
   11SAPS   C21 1354   1.116   0.097   6.807 -0.3132 -0.0626 -0.5422
   11SAPS   O22 1355   1.211   0.171   6.816 -0.1476 -0.2317 -0.2582
   11SAPS   C22 1356   1.096  -0.041   6.867  0.2435  0.2988  0.3519
   11SAPS   H2R 1357   0.995  -0.084   6.856 -0.0471  0.5431  1.8074
   11SAPS   H2S 1358   1.164  -0.111   6.814 -1.0117 -0.5816 -0.1425
   11SAPS    C3 1359   0.937   0.360   6.682  0.3989 -0.2035 -0.6442
   11SAPS    HX 1360   0.834   0.333   6.714 -0.3140  0.0763 -2.5836
   11SAPS    HY 1361   0.923   0.416   6.587 -3.4799  1.1728  0.5541
   11SAPS   O31 1362   1.008   0.442   6.782 -0.2204  0.1020 -0.3063
   11SAPS   C31 1363   1.125   0.489   6.755 -0.0843 -0.8829 -0.9834
   11SAPS   O32 1364   1.194   0.472   6.655 -0.4244  0.2602  0.1093
   11SAPS   C32 1365   1.178   0.583   6.868  0.2109  1.0066 -0.6261
   11SAPS   H2X 1366   1.097   0.593   6.943 -0.7220 -2.2548 -1.0651
   11SAPS   H2Y 1367   1.210   0.682   6.828 -2.1160  2.2867  0.4690
   11SAPS   C23 1368   1.144  -0.044   7.017 -0.0348  0.1906  0.5572
   11SAPS   H3R 1369   1.072   0.018   7.075  0.7367 -0.5351  2.3541
   11SAPS   H3S 1370   1.241   0.010   7.027 -0.7455  1.4662  0.7407
   11SAPS   C24 1371   1.151  -0.188   7.079 -0.2652  0.3098  0.0621
   11SAPS   H4R 1372   1.198  -0.189   7.180 -0.9398 -1.5873  0.4126
   11SAPS   H4S 1373   1.219  -0.248   7.014 -0.1756 -0.1267  0.5479
   11SAPS   C25 1374   1.019  -0.252   7.085  0.4596 -0.2521  0.4076
   11SAPS   H5R 1375   0.982  -0.295   6.990 -0.1724 -0.2647  0.6572
   11SAPS   C26 1376   0.949  -0.251   7.197  0.5954 -0.2255 -0.2175
   11SAPS   H6R 1377   0.850  -0.299   7.198 -0.1279  1.1808  1.4618
   11SAPS   C27 1378   0.983  -0.190   7.332 -0.1270 -0.2328  0.1078
   11SAPS   H7R 1379   1.057  -0.107   7.324 -1.2357  0.6122 -2.4731
   11SAPS   H7S 1380   1.034  -0.273   7.386 -0.6782 -1.1610 -0.7774
   11SAPS   C28 1381   0.858  -0.131   7.400 -0.3309 -0.6959 -0.1411
   11SAPS   H8R 1382   0.768  -0.121   7.338  0.7079 -0.7919 -1.7258
   11SAPS   C29 1383   0.859  -0.085   7.531 -0.4144  0.5598  0.8506
   11SAPS   H9R 1384   0.766  -0.045   7.575 -1.5227  0.0527 -0.9066
   11SAPS  C210 1385   0.975  -0.100   7.620  0.6305 -0.6469  0.4616
   11SAPS  H10R 1386   1.074  -0.109   7.570  0.8781  1.1579  0.5658
   11SAPS  H10S 1387   0.959  -0.194   7.677 -1.5314 -0.3395  0.4488
   11SAPS  C211 1388   0.998   0.026   7.704  0.4203 -1.0043 -0.5011
   11SAPS  H11R 1389   0.997   0.114   7.638 -1.1785 -0.8502 -0.3145
   11SAPS  C212 1390   1.017   0.034   7.835 -0.3349 -0.2991 -0.2673
   11SAPS  H12R 1391   1.030   0.134   7.880 -0.3735 -0.7865  0.8809
   11SAPS  C213 1392   1.015  -0.073   7.943 -0.0329 -0.6058  0.2605
   11SAPS  H13R 1393   1.117  -0.102   7.977 -0.2715 -0.9351  0.7113
   11SAPS  H13S 1394   0.978  -0.161   7.887  1.3168 -0.4572 -0.9410
   11SAPS  C214 1395   0.920  -0.041   8.058  0.1487 -0.3550 -0.5457
   11SAPS  H14R 1396   0.834   0.027   8.047  0.9762  0.8292  0.0943
   11SAPS  C215 1397   0.936  -0.079   8.186 -0.2174  0.2890  0.0412
   11SAPS  H15R 1398   0.860  -0.057   8.262 -0.3133  1.0893 -0.2718
   11SAPS  C216 1399   1.055  -0.154   8.239 -0.0372 -0.2367  0.5541
   11SAPS  H16R 1400   1.096  -0.084   8.315 -1.8240  0.9862  0.4627
   11SAPS  H16S 1401   1.139  -0.170   8.168  0.1350  0.1314  0.6684
   11SAPS  C217 1402   1.031  -0.288   8.302 -0.4282  0.5057 -0.0828
   11SAPS  H17R 1403   1.120  -0.354   8.303  0.2777  1.3900 -1.5767
   11SAPS  H17S 1404   0.963  -0.340   8.231 -0.1645  0.0558 -0.0052
   11SAPS  C218 1405   0.967  -0.287   8.439 -0.1117 -0.1485  0.3865
   11SAPS  H18R 1406   0.938  -0.392   8.460 -0.0628 -0.5156 -1.2420
   11SAPS  H18S 1407   0.878  -0.221   8.453  0.9423  1.5077 -0.3089
   11SAPS  C219 1408   1.058  -0.243   8.562 -0.3418  0.2958  0.0753
   11SAPS  H19R 1409   1.127  -0.157   8.561 -1.6574  1.5096  2.9507
   11SAPS  H19S 1410   1.122  -0.333   8.574 -0.6956  0.0173 -0.0775
   11SAPS  C220 1411   0.964  -0.218   8.681 -0.6260  0.1011 -0.0811
   11SAPS  H20R 1412   0.927  -0.117   8.653 -3.8700 -1.2151 -1.0390
   11SAPS  H20S 1413   1.017  -0.214   8.779 -0.5714  2.4495 -0.1417
   11SAPS  H20T 1414   0.877  -0.287   8.681 -2.0886  1.8669  0.1563
   11SAPS   C33 1415   1.299   0.515   6.940 -0.2117  0.7414  0.0961
   11SAPS   H3X 1416   1.383   0.492   6.871  1.1936 -1.6265  2.4023
   11SAPS   H3Y 1417   1.267   0.419   6.985  0.6612 -0.3885 -1.5467
   11SAPS   C34 1418   1.377   0.601   7.045 -0.3263  0.2204  0.4955
   11SAPS   H4X 1419   1.413   0.688   6.986  0.2781 -0.8608 -0.7624
   11SAPS   H4Y 1420   1.464   0.543   7.084 -0.8980  0.1161  1.6641
   11SAPS   C35 1421   1.292   0.657   7.156 -0.0199  0.4765  0.2430
   11SAPS   H5X 1422   1.183   0.651   7.132  0.2089  1.8082 -1.2823
   11SAPS   H5Y 1423   1.306   0.767   7.159 -1.8639  0.7375  0.5410
   11SAPS   C36 1424   1.315   0.581   7.287  0.1468  0.1370 -0.0865
   11SAPS   H6X 1425   1.418   0.597   7.326 -0.8863 -0.0706  2.9766
   11SAPS   H6Y 1426   1.303   0.472   7.270 -2.8293 -0.2115  3.1532
   11SAPS   C37 1427   1.219   0.633   7.397 -0.6277  0.2925  0.4616
   11SAPS   H7X 1428   1.112   0.629   7.364  0.2167 -1.8496 -2.5028
   11SAPS   H7Y 1429   1.244   0.738   7.420  1.5108 -0.2759  0.9163
   11SAPS   C38 1430   1.242   0.568   7.531 -0.1095  0.3531 -0.1609
   11SAPS   H8X 1431   1.349   0.573   7.563 -0.2893  0.0355  0.5121
   11SAPS   H8Y 1432   1.205   0.463   7.529  2.6140 -0.7377  1.2866
   11SAPS   C39 1433   1.152   0.643   7.634  0.0900 -0.6388 -0.4138
   11SAPS   H9X 1434   1.048   0.615   7.609  0.2757 -0.7943 -1.0139
   11SAPS   H9Y 1435   1.167   0.753   7.639 -1.6212 -0.3390 -1.1144
   11SAPS  C310 1436   1.184   0.593   7.778 -0.3720 -0.1345 -1.0673
   11SAPS  H10X 1437   1.291   0.581   7.805 -0.9794 -0.2444  1.5329
   11SAPS  H10Y 1438   1.127   0.498   7.783 -3.1036  1.4449  0.6301
   11SAPS  C311 1439   1.124   0.693   7.886  0.3369 -0.0574  0.5695
   11SAPS  H11X 1440   1.020   0.706   7.850  0.9832 -0.3118 -1.5046
   11SAPS  H11Y 1441   1.166   0.796   7.882  1.2671 -0.4554 -0.3625
   11SAPS  C312 1442   1.158   0.648   8.026  0.2965  0.3221  0.1007
   11SAPS  H12X 1443   1.263   0.612   8.017 -0.0587 -0.3662 -1.5950
   11SAPS  H12Y 1444   1.091   0.566   8.058 -0.1978  1.4795  2.2559
   11SAPS  C313 1445   1.149   0.760   8.125 -0.5541  0.0175 -0.2909
   11SAPS  H13X 1446   1.052   0.813   8.117  0.3105  1.5519 -0.9950
   11SAPS  H13Y 1447   1.231   0.829   8.098 -2.5350  2.9687  0.7495
   11SAPS  C314 1448   1.173   0.724   8.276 -0.3539 -0.3852 -0.0949
   11SAPS  H14X 1449   1.089   0.670   8.325 -1.1141  0.2261 -0.6837
   11SAPS  H14Y 1450   1.165   0.826   8.321  0.5376 -0.2394 -0.2529
   11SAPS  C315 1451   1.305   0.661   8.296 -0.2140 -0.3950 -0.3637
   11SAPS  H15X 1452   1.375   0.724   8.237  0.1210 -0.7832 -0.3803
   11SAPS  H15Y 1453   1.299   0.561   8.248 -1.1407  0.2760 -1.6953
   11SAPS  C316 1454   1.344   0.661   8.445  0.5221  0.0423 -0.0684
   11SAPS  H16X 1455   1.294   0.585   8.509  3.4081  0.2314  2.7031
   11SAPS  H16Y 1456   1.328   0.763   8.485  0.5057  0.7814 -1.8796
   11SAPS  C317 1457   1.490   0.624   8.456  0.0056 -0.3122  0.5339
   11SAPS  H17X 1458   1.544   0.692   8.386  1.2610 -0.2681  1.5073
   11SAPS  H17Y 1459   1.503   0.521   8.417  0.1972  0.1475 -0.6453
   11SAPS  C318 1460   1.542   0.649   8.595 -0.3725  0.0882  1.0437
   11SAPS  H18X 1461   1.526   0.756   8.616 -0.7196  1.0130 -3.0249
   11SAPS  H18Y 1462   1.649   0.622   8.604 -0.1078  0.5647 -0.3291
   11SAPS  H18Z 1463   1.493   0.585   8.671  0.2318  0.4937  1.7743
   12SAPS     N 1464   1.002   1.961   5.958 -0.1456  0.3852  0.2245
   12SAPS   HN1 1465   1.064   1.895   6.009  2.3680 -2.0400 -5.1331
   12SAPS   HN2 1466   0.932   1.908   5.902  0.0837  0.2926  0.0235
   12SAPS   HN3 1467   1.066   2.010   5.893 -0.6249  2.5028  1.2625
   12SAPS   C12 1468   0.938   2.066   6.044  0.1451  0.1991  0.1708
   12SAPS  H12A 1469   1.007   2.109   6.115  0.2997 -1.0640  0.8208
   12SAPS   C13 1470   0.866   2.185   5.981 -0.4377  0.0273  0.5283
   12SAPS  O13A 1471   0.865   2.196   5.851  0.2128 -0.7014  0.0102
   12SAPS  O13B 1472   0.838   2.285   6.056  0.2579  0.1626 -0.0082
   12SAPS   C11 1473   0.826   2.000   6.130  0.4572  0.2295 -0.6118
   12SAPS  H11A 1474   0.753   1.968   6.052  0.8513  0.7846 -1.2167
   12SAPS  H11B 1475   0.786   2.068   6.208  0.7589 -0.6680  0.3524
   12SAPS     P 1476   0.882   1.854   6.343 -0.1145 -0.0733  0.0733
   12SAPS   O13 1477   0.846   1.714   6.354  0.0459 -0.1373 -0.1066
   12SAPS   O14 1478   1.019   1.892   6.396 -0.0693 -0.2559  0.3665
   12SAPS   O12 1479   0.882   1.883   6.184 -0.1418  0.2088 -0.3394
   12SAPS   O11 1480   0.777   1.949   6.415  0.3943 -0.0255  0.4433
   12SAPS    C1 1481   0.632   1.936   6.389  0.3158  0.0186 -0.1547
   12SAPS    HA 1482   0.601   2.005   6.308  0.5290  0.2131 -0.0716
   12SAPS    HB 1483   0.606   1.832   6.360  0.7338  0.3698 -1.9051
   12SAPS    C2 1484   0.531   1.956   6.513 -0.3523 -0.4792  0.3580
   12SAPS    HS 1485   0.563   2.049   6.564  1.8809 -1.0715  0.1454
   12SAPS   O21 1486   0.548   1.848   6.602  0.0375  0.3917  0.3075
   12SAPS   C21 1487   0.652   1.834   6.684  0.0451 -0.0437  0.2299
   12SAPS   O22 1488   0.745   1.921   6.695  0.1596 -0.0530  0.0667
   12SAPS   C22 1489   0.666   1.695   6.739 -0.8699  0.8118  0.1582
   12SAPS   H2R 1490   0.654   1.633   6.647 -2.5885  0.0547  0.8579
   12SAPS   H2S 1491   0.770   1.676   6.774 -1.1500 -2.4514 -0.4875
   12SAPS    C3 1492   0.382   1.976   6.464  0.1131  0.5577 -0.2060
   12SAPS    HX 1493   0.353   1.879   6.418 -2.5222  0.7767  0.7859
   12SAPS    HY 1494   0.384   2.062   6.395  1.9635  1.3877  0.8203
   12SAPS   O31 1495   0.278   1.996   6.566 -0.6171 -0.1717  0.1618
   12SAPS   C31 1496   0.288   2.116   6.626 -0.4205 -0.1983 -0.1703
   12SAPS   O32 1497   0.370   2.201   6.592  0.0812 -0.2933  0.1918
   12SAPS   C32 1498   0.192   2.131   6.740  0.3203 -0.5289  0.3433
   12SAPS   H2X 1499   0.134   2.039   6.760 -0.1896 -0.4231 -0.6385
   12SAPS   H2Y 1500   0.124   2.217   6.724 -0.2351 -1.0821 -0.3287
   12SAPS   C23 1501   0.571   1.664   6.862 -0.8898  0.4380  0.4917
   12SAPS   H3R 1502   0.584   1.558   6.893  1.5472 -0.1672 -2.2113
   12SAPS   H3S 1503   0.462   1.671   6.840 -0.9996 -0.6692  0.6203
   12SAPS   C24 1504   0.599   1.748   6.991 -0.2786  0.4906 -0.7672
   12SAPS   H4R 1505   0.518   1.709   7.056  1.4475 -0.6358  0.8186
   12SAPS   H4S 1506   0.590   1.855   6.963 -0.9506 -0.0160 -2.6014
   12SAPS   C25 1507   0.726   1.721   7.065 -0.5480  0.2045  0.4595
   12SAPS   H5R 1508   0.815   1.725   7.000 -0.4787 -1.1755  0.4220
   12SAPS   C26 1509   0.744   1.695   7.199  0.3538 -0.9273  0.2057
   12SAPS   H6R 1510   0.842   1.664   7.237 -0.2963 -2.5085  0.6948
   12SAPS   C27 1511   0.636   1.690   7.299  0.2278 -0.9143 -0.2237
   12SAPS   H7R 1512   0.617   1.586   7.334 -0.0151 -1.4093 -1.7293
   12SAPS   H7S 1513   0.539   1.729   7.262 -0.1353  0.5499  2.0783
   12SAPS   C28 1514   0.693   1.798   7.394  0.5880  0.2407  0.2356
   12SAPS   H8R 1515   0.730   1.890   7.347 -1.3999  1.0215  0.1024
   12SAPS   C29 1516   0.670   1.803   7.523  0.2685  0.1152  0.0535
   12SAPS   H9R 1517   0.701   1.896   7.571  1.0635  0.6495 -1.4221
   12SAPS  C210 1518   0.601   1.713   7.624  0.0548  0.2465  0.1366
   12SAPS  H10R 1519   0.502   1.670   7.597  0.2923 -0.7769  0.8370
   12SAPS  H10S 1520   0.572   1.785   7.703 -2.0066  0.2439 -0.5502
   12SAPS  C211 1521   0.680   1.594   7.669 -0.0830  0.3477 -0.0717
   12SAPS  H11R 1522   0.693   1.516   7.592  2.7025 -0.3246  0.9794
   12SAPS  C212 1523   0.717   1.555   7.790 -0.5072  0.1113 -0.7097
   12SAPS  H12R 1524   0.776   1.463   7.801  0.7990  1.1992  2.3915
   12SAPS  C213 1525   0.690   1.637   7.912 -0.2660 -0.0475 -0.4278
   12SAPS  H13R 1526   0.597   1.699   7.905  1.5825  2.8220 -1.2815
   12SAPS  H13S 1527   0.778   1.705   7.912  0.9655 -1.5908 -0.0372
   12SAPS  C214 1528   0.692   1.569   8.045  0.5378 -0.3443  0.3415
   12SAPS  H14R 1529   0.751   1.476   8.052  2.8460  0.5068 -4.0404
   12SAPS  C215 1530   0.632   1.622   8.156  0.0553 -0.4919 -0.3272
   12SAPS  H15R 1531   0.624   1.571   8.253 -1.4834 -1.1891 -0.7854
   12SAPS  C216 1532   0.556   1.752   8.177 -0.4407 -0.1241  0.0361
   12SAPS  H16R 1533   0.454   1.734   8.217 -0.6332 -0.0568 -0.4297
   12SAPS  H16S 1534   0.539   1.791   8.075  1.5022  0.0888 -0.2503
   12SAPS  C217 1535   0.619   1.865   8.274 -0.8040 -0.1115  0.2857
   12SAPS  H17R 1536   0.561   1.959   8.272 -2.9776 -1.3932 -1.0454
   12SAPS  H17S 1537   0.720   1.886   8.233 -0.2420  0.1518  1.7707
   12SAPS  C218 1538   0.631   1.809   8.414 -0.0261 -0.7779  0.6174
   12SAPS  H18R 1539   0.694   1.719   8.395  1.0666  0.2784 -1.0554
   12SAPS  H18S 1540   0.536   1.778   8.463  1.0627 -0.8291  2.8210
   12SAPS  C219 1541   0.684   1.913   8.509  0.4652  0.3029 -0.4911
   12SAPS  H19R 1542   0.777   1.956   8.464  1.4409  0.2976  1.4494
   12SAPS  H19S 1543   0.715   1.871   8.607 -1.6582  1.9820  0.9901
   12SAPS  C220 1544   0.592   2.030   8.554 -0.1608 -0.3117  0.3771
   12SAPS  H20R 1545   0.506   1.993   8.613  0.3072 -1.4894  0.3586
   12SAPS  H20S 1546   0.557   2.090   8.468  1.7229 -1.7750 -1.5349
   12SAPS  H20T 1547   0.655   2.089   8.624  0.1463 -0.1578 -0.0259
   12SAPS   C33 1548   0.277   2.156   6.869  0.1739  0.0259 -0.7961
   12SAPS   H3X 1549   0.324   2.256   6.869  0.3932 -0.0742 -1.2443
   12SAPS   H3Y 1550   0.354   2.078   6.885 -0.2350 -0.1246  0.5128
   12SAPS   C34 1551   0.187   2.143   6.993  0.0605 -1.2856  0.5619
   12SAPS   H4X 1552   0.113   2.061   6.975 -0.3431 -1.1028  1.3223
   12SAPS   H4Y 1553   0.133   2.240   7.004 -0.6646 -1.6401  0.1953
   12SAPS   C35 1554   0.253   2.097   7.120 -0.3611  0.1964 -0.2571
   12SAPS   H5X 1555   0.340   2.164   7.135 -0.0773 -0.3458  0.5391
   12SAPS   H5Y 1556   0.292   1.995   7.100 -0.9004 -0.2112  0.7024
   12SAPS   C36 1557   0.164   2.091   7.243 -0.0661 -0.3881 -0.4245
   12SAPS   H6X 1558   0.111   1.995   7.224 -0.5261 -0.8274  2.5367
   12SAPS   H6Y 1559   0.086   2.169   7.260  1.6360  1.5489 -1.0498
   12SAPS   C37 1560   0.245   2.079   7.371  0.0880  0.2895 -0.5017
   12SAPS   H7X 1561   0.282   2.182   7.391  0.5186  0.0156  0.1692
   12SAPS   H7Y 1562   0.333   2.013   7.352 -0.3224 -0.2668 -0.4987
   12SAPS   C38 1563   0.169   2.043   7.502  0.0256 -0.3008 -0.3203
   12SAPS   H8X 1564   0.109   1.951   7.489  1.1373 -1.4618  2.1438
   12SAPS   H8Y 1565   0.097   2.123   7.530  0.8313  1.5349 -3.0918
   12SAPS   C39 1566   0.275   2.036   7.619 -0.4333 -0.3468 -0.0422
   12SAPS   H9X 1567   0.320   2.137   7.629 -1.7574  0.1589  1.1183
   12SAPS   H9Y 1568   0.358   1.966   7.596 -1.6604 -2.8492  2.5388
   12SAPS  C310 1569   0.205   2.001   7.743  0.0332  0.4615 -0.0418
   12SAPS  H10X 1570   0.151   1.904   7.735 -1.6512  1.4855 -2.1653
   12SAPS  H10Y 1571   0.120   2.073   7.752 -1.0818 -0.5468 -1.9087
   12SAPS  C311 1572   0.294   1.998   7.867  0.1242 -0.0960  0.5526
   12SAPS  H11X 1573   0.371   2.077   7.854 -1.5555  1.6127  0.5547
   12SAPS  H11Y 1574   0.351   1.904   7.882  2.3155  1.1299  0.2461
   12SAPS  C312 1575   0.228   2.018   8.006  0.4259  0.5211  0.5734
   12SAPS  H12X 1576   0.201   1.921   8.052  0.1609  0.2249 -0.1818
   12SAPS  H12Y 1577   0.135   2.079   8.009  0.0138 -0.1125  1.0456
   12SAPS  C313 1578   0.320   2.093   8.107 -0.8880 -0.1225 -0.2033
   12SAPS  H13X 1579   0.355   2.193   8.075 -0.1421  0.6698  2.7784
   12SAPS  H13Y 1580   0.412   2.032   8.126  0.0419  0.0711 -3.3515
   12SAPS  C314 1581   0.246   2.127   8.238 -0.0092 -0.1885 -0.6835
   12SAPS  H14X 1582   0.227   2.031   8.291  2.6535  0.8713  2.5608
   12SAPS  H14Y 1583   0.148   2.167   8.205 -0.7134 -0.6219  0.8265
   12SAPS  C315 1584   0.329   2.232   8.318 -0.7696  0.5051  0.9444
   12SAPS  H15X 1585   0.336   2.332   8.270  2.7080  0.0204  0.2006
   12SAPS  H15Y 1586   0.428   2.182   8.324 -0.8149 -0.1355 -1.9916
   12SAPS  C316 1587   0.279   2.270   8.468  0.8882 -0.1468 -0.2318
   12SAPS  H16X 1588   0.361   2.283   8.543  0.7591  1.0258 -0.2760
   12SAPS  H16Y 1589   0.223   2.178   8.495  1.7922 -0.4765  0.5749
   12SAPS  C317 1590   0.186   2.384   8.491 -0.7861  0.9308 -0.8042
   12SAPS  H17X 1591   0.100   2.394   8.420  0.0282  0.8674 -1.8201
   12SAPS  H17Y 1592   0.234   2.481   8.465  2.3281 -0.5677 -1.0004
   12SAPS  C318 1593   0.127   2.396   8.639  0.0713  0.0313  0.5534
   12SAPS  H18X 1594   0.207   2.387   8.716  1.5180 -0.5344 -0.9342
   12SAPS  H18Y 1595   0.063   2.306   8.651  2.3523 -1.9733 -1.1992
   12SAPS  H18Z 1596   0.070   2.491   8.643 -1.1250 -0.6321 -0.2241
   13SAPS     N 1597   0.519   4.639   6.176 -0.0726  0.5981 -0.1151
   13SAPS   HN1 1598   0.547   4.613   6.079 -0.0489 -0.8845  0.2641
   13SAPS   HN2 1599   0.569   4.729   6.190  2.3317 -0.7181  0.1237
   13SAPS   HN3 1600   0.539   4.566   6.247 -1.2797 -1.7250 -2.0405
   13SAPS   C12 1601   0.371   4.651   6.175  0.0037 -0.4685  0.1341
   13SAPS  H12A 1602   0.343   4.714   6.092  0.7678 -0.0850  0.1515
   13SAPS   C13 1603   0.289   4.527   6.138  0.2520 -0.6527 -0.1710
   13SAPS  O13A 1604   0.345   4.424   6.088  0.0941 -0.1062  0.3365
   13SAPS  O13B 1605   0.162   4.537   6.133 -0.2356  0.0487 -0.0623
   13SAPS   C11 1606   0.325   4.729   6.305  0.6367 -0.1994 -0.0795
   13SAPS  H11A 1607   0.349   4.667   6.394 -2.0984 -0.9615  0.2190
   13SAPS  H11B 1608   0.216   4.738   6.282  0.3802 -2.0832  0.2622
   13SAPS     P 1609   0.353   4.970   6.396  0.3710 -0.0798  0.3433
   13SAPS   O13 1610   0.390   5.106   6.343 -0.1511  0.7706 -0.6130
   13SAPS   O14 1611   0.205   4.967   6.423 -0.5263  0.3144  0.3359
   13SAPS   O12 1612   0.393   4.853   6.309  0.7218 -0.5889 -0.5035
   13SAPS   O11 1613   0.428   4.944   6.532 -0.1859 -0.4312  0.4787
   13SAPS    C1 1614   0.544   4.854   6.534 -0.0223  0.4997  0.4956
   13SAPS    HA 1615   0.538   4.768   6.463  2.4919  1.5553 -1.1454
   13SAPS    HB 1616   0.643   4.897   6.509  1.6850 -1.9732  2.4485
   13SAPS    C2 1617   0.565   4.790   6.671  0.2506  0.5761 -0.2395
   13SAPS    HS 1618   0.495   4.705   6.669 -1.1595  1.7027 -1.9578
   13SAPS   O21 1619   0.546   4.886   6.776  0.1275  0.3197  0.4010
   13SAPS   C21 1620   0.499   4.838   6.885  0.7185 -0.5524 -0.0504
   13SAPS   O22 1621   0.435   4.736   6.894 -0.8005  0.1139  0.8925
   13SAPS   C22 1622   0.529   4.927   7.004  0.3070  0.0401 -0.7022
   13SAPS   H2R 1623   0.638   4.922   7.025  0.2028 -1.1045 -0.3927
   13SAPS   H2S 1624   0.494   5.029   6.977 -1.1754 -0.8930 -2.5790
   13SAPS    C3 1625   0.710   4.733   6.680 -0.4572 -0.3903 -0.5271
   13SAPS    HX 1626   0.781   4.813   6.651  1.8932 -2.0208  0.3546
   13SAPS    HY 1627   0.729   4.654   6.603  2.1866  0.0260 -0.3947
   13SAPS   O31 1628   0.743   4.689   6.815 -0.2118 -0.3108 -0.3758
   13SAPS   C31 1629   0.825   4.597   6.820 -0.2190 -0.1415 -0.1678
   13SAPS   O32 1630   0.868   4.530   6.726  0.3309  0.2493  0.1015
   13SAPS   C32 1631   0.871   4.562   6.969  0.5351 -0.0429  0.6525
   13SAPS   H2X 1632   0.978   4.591   6.969  0.3221  0.7799  0.9508
   13SAPS   H2Y 1633   0.859   4.452   6.981  0.8602 -0.1618 -0.0677
   13SAPS   C23 1634   0.455   4.876   7.134 -0.3630  0.0944 -0.4059
   13SAPS   H3R 1635   0.477   4.768   7.152 -0.7386  0.3808  2.3009
   13SAPS   H3S 1636   0.345   4.881   7.120 -0.4436 -2.2087 -0.9898
   13SAPS   C24 1637   0.485   4.969   7.249  0.2993  0.0970 -0.8943
   13SAPS   H4R 1638   0.454   5.071   7.218  0.5298  0.5218  0.2009
   13SAPS   H4S 1639   0.595   4.972   7.265  0.1708 -1.3636  0.5558
   13SAPS   C25 1640   0.429   4.926   7.380 -0.4843 -0.0794  0.2353
   13SAPS   H5R 1641   0.381   4.828   7.394  0.3130 -0.6592 -0.8932
   13SAPS   C26 1642   0.423   5.014   7.486 -0.1606  1.1299  0.7372
   13SAPS   H6R 1643   0.365   4.980   7.573 -0.4672  0.0817  0.1336
   13SAPS   C27 1644   0.464   5.155   7.498  0.2542  0.1675 -0.3129
   13SAPS   H7R 1645   0.487   5.194   7.396 -0.4541 -0.7423 -0.8478
   13SAPS   H7S 1646   0.559   5.160   7.555  1.5792  2.2641 -2.5393
   13SAPS   C28 1647   0.357   5.243   7.554  0.1113  0.1556  0.1657
   13SAPS   H8R 1648   0.293   5.292   7.478 -0.5419 -5.2641 -3.2880
   13SAPS   C29 1649   0.329   5.258   7.686  0.1188 -0.2065  0.0312
   13SAPS   H9R 1650   0.251   5.326   7.723 -0.8364 -1.6685  0.8438
   13SAPS  C210 1651   0.403   5.195   7.804  0.5025  0.6199 -0.3098
   13SAPS  H10R 1652   0.495   5.138   7.779 -0.2778 -0.3827 -0.9804
   13SAPS  H10S 1653   0.332   5.122   7.849 -0.1560  0.0588 -2.1483
   13SAPS  C211 1654   0.445   5.297   7.902  0.2426 -0.1860  0.1764
   13SAPS  H11R 1655   0.512   5.379   7.870  0.2597 -0.2532  0.0407
   13SAPS  C212 1656   0.406   5.298   8.031  0.3034  0.0502  0.8288
   13SAPS  H12R 1657   0.444   5.376   8.098  0.3512  0.7960 -0.0342
   13SAPS  C213 1658   0.309   5.211   8.106 -0.1349 -0.6552  0.1002
   13SAPS  H13R 1659   0.357   5.115   8.134 -0.2616 -0.9670 -0.7227
   13SAPS  H13S 1660   0.229   5.181   8.036  3.3165 -2.8900 -3.3129
   13SAPS  C214 1661   0.260   5.284   8.230  0.5592 -0.1781  0.3259
   13SAPS  H14R 1662   0.302   5.252   8.326  0.1331 -1.5471  0.0864
   13SAPS  C215 1663   0.161   5.375   8.237  0.5453  0.3214 -0.1793
   13SAPS  H15R 1664   0.139   5.408   8.339 -2.6556  1.4754 -1.1329
   13SAPS  C216 1665   0.077   5.427   8.120  0.7535 -0.3891 -0.2566
   13SAPS  H16R 1666  -0.028   5.424   8.157  0.4324  3.7984 -0.3349
   13SAPS  H16S 1667   0.097   5.374   8.025 -1.2591 -0.8707 -0.4691
   13SAPS  C217 1668   0.100   5.577   8.094 -0.1840 -0.6497  0.8990
   13SAPS  H17R 1669   0.209   5.596   8.089 -0.5381  2.0571  2.0355
   13SAPS  H17S 1670   0.073   5.648   8.175  0.8862  4.4325 -2.7288
   13SAPS  C218 1671   0.025   5.632   7.965 -0.0958  0.3773  0.1309
   13SAPS  H18R 1672   0.033   5.743   7.961 -1.2080  0.6468  2.9346
   13SAPS  H18S 1673  -0.080   5.596   7.963  0.3281 -0.9635 -2.9527
   13SAPS  C219 1674   0.075   5.593   7.825 -0.1662 -0.3815 -0.3459
   13SAPS  H19R 1675   0.067   5.482   7.813  2.8006 -0.5717 -1.2578
   13SAPS  H19S 1676   0.185   5.602   7.840 -0.1494 -0.6644 -0.2929
   13SAPS  C220 1677   0.021   5.668   7.706  0.0960  0.3722  0.7375
   13SAPS  H20R 1678  -0.086   5.637   7.707 -0.7089  2.7882 -0.7333
   13SAPS  H20S 1679   0.068   5.662   7.605  0.0129  2.3643  0.5361
   13SAPS  H20T 1680   0.028   5.779   7.714  2.9883  0.3736 -0.6714
   13SAPS   C33 1681   0.798   4.638   7.072  0.1932  0.0736 -0.3012
   13SAPS   H3X 1682   0.694   4.602   7.089  0.0706  0.6111  0.1344
   13SAPS   H3Y 1683   0.802   4.745   7.041  3.4091 -0.0015 -0.4568
   13SAPS   C34 1684   0.877   4.637   7.207  0.2674  0.3245  0.2417
   13SAPS   H4X 1685   0.975   4.690   7.197 -0.1339  0.9783 -0.3433
   13SAPS   H4Y 1686   0.892   4.530   7.232  0.4317  0.3594  0.2972
   13SAPS   C35 1687   0.787   4.708   7.316  0.4382  0.0384  0.4602
   13SAPS   H5X 1688   0.693   4.650   7.305  0.7257 -0.4120  0.3329
   13SAPS   H5Y 1689   0.777   4.813   7.280 -0.1441 -0.6460 -1.5360
   13SAPS   C36 1690   0.842   4.717   7.456  0.5811  0.0248 -0.2542
   13SAPS   H6X 1691   0.946   4.756   7.459 -0.6279  3.5361  1.6467
   13SAPS   H6Y 1692   0.856   4.611   7.484  1.1055  0.1599  0.0169
   13SAPS   C37 1693   0.757   4.803   7.546  0.4854 -0.6269  0.2091
   13SAPS   H7X 1694   0.667   4.740   7.560 -0.2352  0.5061  0.7767
   13SAPS   H7Y 1695   0.721   4.893   7.492 -0.0805 -1.5577 -1.0087
   13SAPS   C38 1696   0.827   4.843   7.672 -0.7713  0.0140 -0.4789
   13SAPS   H8X 1697   0.892   4.933   7.659 -1.9357  0.6455 -2.4455
   13SAPS   H8Y 1698   0.892   4.761   7.707 -0.3784  0.9970  1.1729
   13SAPS   C39 1699   0.735   4.876   7.785 -0.0362  0.2057  0.0317
   13SAPS   H9X 1700   0.659   4.795   7.789  0.3192 -0.1004  1.6550
   13SAPS   H9Y 1701   0.679   4.968   7.761 -1.2323 -1.0435 -2.2935
   13SAPS  C310 1702   0.803   4.884   7.922 -0.4298  0.2772  0.5392
   13SAPS  H10X 1703   0.888   4.955   7.930  0.6964 -1.0832  1.1062
   13SAPS  H10Y 1704   0.840   4.784   7.951  0.4774  0.3500 -0.3090
   13SAPS  C311 1705   0.697   4.925   8.022  0.4023  0.3055 -0.0499
   13SAPS  H11X 1706   0.638   4.836   8.053 -0.2044 -0.1813 -2.3934
   13SAPS  H11Y 1707   0.625   4.999   7.981 -1.8556 -1.7115  0.0625
   13SAPS  C312 1708   0.745   4.977   8.159  0.0069  0.0517  0.7996
   13SAPS  H12X 1709   0.814   5.061   8.139  2.8732 -2.5482 -1.2175
   13SAPS  H12Y 1710   0.804   4.894   8.204  0.0991  0.3154  1.1722
   13SAPS  C313 1711   0.637   5.027   8.260  0.3170 -0.3150 -0.2447
   13SAPS  H13X 1712   0.559   4.953   8.287  1.1083 -0.7366  0.9510
   13SAPS  H13Y 1713   0.580   5.105   8.206  0.6497 -0.6326 -1.0711
   13SAPS  C314 1714   0.682   5.086   8.399  1.0047  0.1626  0.1152
   13SAPS  H14X 1715   0.779   5.141   8.393  0.9308  0.4028  0.9063
   13SAPS  H14Y 1716   0.700   4.996   8.462  2.5204 -0.4981 -1.1820
   13SAPS  C315 1717   0.571   5.177   8.443  0.3026 -0.0990 -0.5471
   13SAPS  H15X 1718   0.481   5.116   8.466 -0.5373  1.1760 -0.3132
   13SAPS  H15Y 1719   0.546   5.249   8.362  1.7002  1.1603  0.0820
   13SAPS  C316 1720   0.619   5.242   8.583 -0.1968  0.2226 -0.0520
   13SAPS  H16X 1721   0.708   5.306   8.566 -0.8708  1.6967  1.6018
   13SAPS  H16Y 1722   0.646   5.158   8.651  0.1974  0.2723 -0.1494
   13SAPS  C317 1723   0.503   5.328   8.638 -0.0952 -0.2262 -0.1267
   13SAPS  H17X 1724   0.410   5.272   8.661 -0.9806  0.8070 -1.0646
   13SAPS  H17Y 1725   0.474   5.402   8.560  0.5402  1.0886  0.8362
   13SAPS  C318 1726   0.559   5.407   8.756 -0.6529  0.4611  0.1603
   13SAPS  H18X 1727   0.623   5.490   8.720 -2.9049  2.0893 -0.2756
   13SAPS  H18Y 1728   0.619   5.336   8.816 -0.2724 -1.8851 -2.7406
   13SAPS  H18Z 1729   0.476   5.447   8.818 -0.2722 -2.5268  2.9104
   14SAPS     N 1730   6.396   1.648   5.838 -0.5745 -0.2208 -0.0928
   14SAPS   HN1 1731   6.312   1.586   5.839 -0.3795 -0.4880  0.7672
   14SAPS   HN2 1732   6.422   1.676   5.742  1.9106 -0.6456  0.3981
   14SAPS   HN3 1733   6.482   1.601   5.872 -1.4706 -0.0437  2.7049
   14SAPS   C12 1734   6.373   1.774   5.914 -0.5472 -0.2154  0.6711
   14SAPS  H12A 1735   6.470   1.810   5.947  0.0622  1.2612 -2.3636
   14SAPS   C13 1736   6.312   1.905   5.842  0.5608  0.6111 -0.5706
   14SAPS  O13A 1737   6.290   1.886   5.721  0.7002 -0.7098  0.4082
   14SAPS  O13B 1738   6.302   2.016   5.896 -0.1913  0.0866 -0.6926
   14SAPS   C11 1739   6.277   1.743   6.032  0.6355  0.6953 -0.3062
   14SAPS  H11A 1740   6.182   1.696   5.997 -0.2594  0.3236  2.4311
   14SAPS  H11B 1741   6.246   1.828   6.096 -1.0661 -1.2088  1.5419
   14SAPS     P 1742   6.438   1.695   6.242  0.4090 -0.1395 -0.2256
   14SAPS   O13 1743   6.563   1.614   6.232 -0.2190  0.3751 -0.2668
   14SAPS   O14 1744   6.448   1.839   6.254 -0.1903 -0.2080  0.3428
   14SAPS   O12 1745   6.343   1.651   6.123 -0.0832 -0.0962 -0.0310
   14SAPS   O11 1746   6.353   1.656   6.360  0.1758 -0.5177 -0.6132
   14SAPS    C1 1747   6.371   1.536   6.436 -0.3021 -0.1583  0.2615
   14SAPS    HA 1748   6.271   1.490   6.446 -1.5872  2.4438  0.1827
   14SAPS    HB 1749   6.429   1.460   6.380 -0.1196  1.4353 -1.8042
   14SAPS    C2 1750   6.429   1.553   6.577 -0.0681  0.0313  0.1100
   14SAPS    HS 1751   6.468   1.455   6.613  1.1842  0.5742  0.2882
   14SAPS   O21 1752   6.333   1.605   6.669  0.0467 -0.2855  0.4498
   14SAPS   C21 1753   6.230   1.521   6.706 -0.0184 -0.1472  0.1187
   14SAPS   O22 1754   6.219   1.407   6.666  0.0798  0.7672  0.1449
   14SAPS   C22 1755   6.136   1.594   6.797 -0.4325 -0.0382 -0.7602
   14SAPS   H2R 1756   6.192   1.681   6.836 -0.2114 -0.3168 -0.4498
   14SAPS   H2S 1757   6.048   1.626   6.737 -1.2707 -0.9250 -0.0410
   14SAPS    C3 1758   6.544   1.651   6.586 -0.1429 -0.0917 -1.0011
   14SAPS    HX 1759   6.507   1.750   6.551  0.4553 -0.2056 -1.9955
   14SAPS    HY 1760   6.620   1.630   6.508  0.9178 -0.5194  0.1357
   14SAPS   O31 1761   6.606   1.665   6.716  0.4745 -0.5866  0.2822
   14SAPS   C31 1762   6.678   1.557   6.753  0.2328  0.0649  0.3197
   14SAPS   O32 1763   6.700   1.464   6.681  0.2229 -0.0431  0.4482
   14SAPS   C32 1764   6.731   1.575   6.896 -0.0768 -0.6861 -0.3905
   14SAPS   H2X 1765   6.649   1.562   6.970  1.2446  1.7028  1.6678
   14SAPS   H2Y 1766   6.770   1.679   6.905  0.6859 -1.0832  1.3708
   14SAPS   C23 1767   6.088   1.502   6.915  0.1681 -0.8035 -0.5245
   14SAPS   H3R 1768   6.178   1.472   6.972  1.1434  1.8382 -0.5107
   14SAPS   H3S 1769   6.047   1.409   6.869  0.3491 -1.2721  0.2636
   14SAPS   C24 1770   5.991   1.573   7.006  0.2637  0.0320 -0.5530
   14SAPS   H4R 1771   5.976   1.504   7.092 -1.0320 -1.8893 -2.2346
   14SAPS   H4S 1772   5.897   1.592   6.950 -0.6926  1.0634  1.2992
   14SAPS   C25 1773   6.061   1.705   7.050  0.3251 -0.0632 -0.0972
   14SAPS   H5R 1774   6.060   1.777   6.966  0.3170 -1.8769 -1.7298
   14SAPS   C26 1775   6.095   1.742   7.177  0.2416  0.4589 -0.3307
   14SAPS   H6R 1776   6.161   1.828   7.199 -1.4291  1.5995  0.4743
   14SAPS   C27 1777   6.076   1.661   7.303  0.3629  0.5183  0.9117
   14SAPS   H7R 1778   6.166   1.667   7.367 -0.7529 -0.5126  2.6504
   14SAPS   H7S 1779   6.076   1.552   7.281  0.5476  0.9659 -1.6701
   14SAPS   C28 1780   5.951   1.709   7.376 -0.8968 -0.2433 -0.0908
   14SAPS   H8R 1781   5.873   1.748   7.308 -1.0901  3.5421  2.0321
   14SAPS   C29 1782   5.924   1.721   7.504 -0.3933 -0.0081  0.8402
   14SAPS   H9R 1783   5.831   1.770   7.535 -1.7867 -2.4312  0.7334
   14SAPS  C210 1784   6.009   1.685   7.620 -0.2875 -0.1709  0.5597
   14SAPS  H10R 1785   6.107   1.649   7.580 -0.4058  1.2890 -1.1580
   14SAPS  H10S 1786   5.963   1.596   7.667 -2.3007  0.4436 -0.1242
   14SAPS  C211 1787   6.029   1.796   7.720 -0.2377 -0.2416  0.5261
   14SAPS  H11R 1788   5.999   1.893   7.678 -0.5443 -0.1918  0.8489
   14SAPS  C212 1789   6.069   1.788   7.852  0.1745 -0.0833 -0.6533
   14SAPS  H12R 1790   6.075   1.883   7.908 -2.1230 -0.3123  0.0995
   14SAPS  C213 1791   6.103   1.663   7.930 -0.4326 -0.9196 -0.0873
   14SAPS  H13R 1792   6.200   1.678   7.984 -0.4762 -0.5030 -0.1170
   14SAPS  H13S 1793   6.134   1.588   7.854 -0.7014  1.5374 -2.8160
   14SAPS  C214 1794   5.995   1.612   8.018  0.2499 -0.5133 -0.2226
   14SAPS  H14R 1795   5.941   1.523   7.981  0.9213 -1.4920  1.0487
   14SAPS  C215 1796   5.966   1.658   8.139  1.0390 -0.0853 -0.7557
   14SAPS  H15R 1797   5.867   1.635   8.180  0.8785  1.4125 -0.2326
   14SAPS  C216 1798   6.030   1.764   8.215 -0.0553  0.2373  0.3345
   14SAPS  H16R 1799   5.966   1.853   8.236  0.9170  1.5459 -1.8762
   14SAPS  H16S 1800   6.124   1.802   8.171  2.7798 -3.2599  2.7518
   14SAPS  C217 1801   6.087   1.729   8.355  0.0725 -0.0566 -0.0768
   14SAPS  H17R 1802   6.161   1.646   8.361 -0.6782 -0.6429  1.6320
   14SAPS  H17S 1803   6.002   1.698   8.419  0.9688  0.1785  1.2789
   14SAPS  C218 1804   6.156   1.850   8.423  0.1978 -0.2729 -0.0321
   14SAPS  H18R 1805   6.085   1.926   8.463  1.1558  1.2742 -1.1459
   14SAPS  H18S 1806   6.222   1.892   8.344  1.8809 -0.8357  1.0419
   14SAPS  C219 1807   6.241   1.794   8.540 -0.0661 -0.8467 -0.4021
   14SAPS  H19R 1808   6.330   1.858   8.557  1.0662 -2.9191  2.1851
   14SAPS  H19S 1809   6.296   1.702   8.513 -1.3694 -1.3445 -1.4622
   14SAPS  C220 1810   6.164   1.771   8.667 -0.1158  0.6227  0.3545
   14SAPS  H20R 1811   6.227   1.712   8.737  1.1140  1.2970 -0.1475
   14SAPS  H20S 1812   6.065   1.721   8.666 -0.3001  0.9876  0.3163
   14SAPS  H20T 1813   6.154   1.869   8.717 -1.5172 -0.1810  1.7258
   14SAPS   C33 1814   6.859   1.489   6.932  0.5104  0.3057  0.4271
   14SAPS   H3X 1815   6.940   1.508   6.857  0.9811 -0.3455  0.7565
   14SAPS   H3Y 1816   6.831   1.383   6.915 -2.4236  0.7010  2.2447
   14SAPS   C34 1817   6.918   1.486   7.073  0.4528  0.8306  0.2059
   14SAPS   H4X 1818   7.010   1.426   7.090  1.1794  0.8916 -2.9237
   14SAPS   H4Y 1819   6.834   1.459   7.140 -1.6131  1.6957 -1.9034
   14SAPS   C35 1820   6.950   1.624   7.125 -0.2032 -0.4993  0.2054
   14SAPS   H5X 1821   6.861   1.690   7.128  1.2838  1.6360  0.0278
   14SAPS   H5Y 1822   7.017   1.677   7.053  0.4554  1.7451  2.3594
   14SAPS   C36 1823   7.024   1.630   7.257  0.1329  0.8402 -0.3670
   14SAPS   H6X 1824   7.078   1.726   7.254 -0.8781  1.4045 -2.2645
   14SAPS   H6Y 1825   7.084   1.538   7.273 -0.4743  0.7803  2.0975
   14SAPS   C37 1826   6.922   1.635   7.377 -0.3215  0.5562  0.2733
   14SAPS   H7X 1827   6.854   1.548   7.366  0.4086  0.0619 -0.3916
   14SAPS   H7Y 1828   6.861   1.728   7.373  2.3506  2.4554  1.0100
   14SAPS   C38 1829   6.979   1.608   7.517  0.2916  0.4587  0.7238
   14SAPS   H8X 1830   7.067   1.675   7.523  0.1736  0.6773  0.1320
   14SAPS   H8Y 1831   7.017   1.504   7.526  0.6577  0.6214  1.1118
   14SAPS   C39 1832   6.877   1.617   7.633  0.1530  0.3218 -0.5542
   14SAPS   H9X 1833   6.820   1.522   7.637  1.0975 -0.2206  2.4551
   14SAPS   H9Y 1834   6.816   1.710   7.632 -0.5900 -0.0904  1.3602
   14SAPS  C310 1835   6.953   1.608   7.767 -0.3196  0.2697  0.7173
   14SAPS  H10X 1836   7.016   1.700   7.774  0.9010 -0.3892 -0.9042
   14SAPS  H10Y 1837   7.007   1.510   7.766 -0.6732  0.0715  0.8808
   14SAPS  C311 1838   6.856   1.599   7.887 -0.1783 -0.5867  0.7226
   14SAPS  H11X 1839   6.772   1.527   7.882 -1.4530  0.9072 -0.2853
   14SAPS  H11Y 1840   6.804   1.696   7.900 -0.2544 -0.5246 -0.0112
   14SAPS  C312 1841   6.929   1.579   8.021 -0.0653 -0.2517 -0.8831
   14SAPS  H12X 1842   6.852   1.594   8.100 -0.7886 -1.0089 -1.4310
   14SAPS  H12Y 1843   7.010   1.654   8.031  0.2873 -0.6666 -0.6029
   14SAPS  C313 1844   7.002   1.447   8.040  0.4496  0.1545  0.1353
   14SAPS  H13X 1845   7.102   1.442   7.992  0.8969  6.0350 -0.2943
   14SAPS  H13Y 1846   6.940   1.372   7.987 -2.9041  1.7555  1.4747
   14SAPS  C314 1847   7.029   1.423   8.188  0.3715 -0.1199 -0.4870
   14SAPS  H14X 1848   6.934   1.440   8.242  1.1581  1.1062  0.5677
   14SAPS  H14Y 1849   7.101   1.498   8.227  1.3461 -0.2751 -1.8868
   14SAPS  C315 1850   7.081   1.278   8.222 -0.0766 -0.4422  0.1364
   14SAPS  H15X 1851   7.136   1.283   8.319  0.1991  2.8077 -0.0754
   14SAPS  H15Y 1852   7.144   1.246   8.137 -1.3587  0.4944 -1.2182
   14SAPS  C316 1853   6.966   1.183   8.240  0.1298 -0.6771  0.2236
   14SAPS  H16X 1854   6.988   1.088   8.187  0.3873 -0.7942  0.5441
   14SAPS  H16Y 1855   6.880   1.230   8.187  1.0605  1.7752  0.7866
   14SAPS  C317 1856   6.932   1.158   8.397  0.4923  0.4317  0.3529
   14SAPS  H17X 1857   6.916   1.262   8.434  1.4589  0.3781  0.9600
   14SAPS  H17Y 1858   7.017   1.108   8.449 -0.4987 -1.4662  0.2058
   14SAPS  C318 1859   6.809   1.065   8.425 -0.7471  0.5411 -0.0191
   14SAPS  H18X 1860   6.718   1.089   8.366 -1.6960 -1.6909  0.4278
   14SAPS  H18Y 1861   6.782   1.073   8.533 -0.9179 -1.4005  0.1245
   14SAPS  H18Z 1862   6.845   0.961   8.410  2.3003  1.2961  1.2832
   15SAPS     N 1863   2.838   5.721   6.291  0.0390 -0.0829  0.1150
   15SAPS   HN1 1864   2.896   5.651   6.342  0.3210  0.4890  0.5872
   15SAPS   HN2 1865   2.738   5.698   6.309  0.2414  0.3469  1.9172
   15SAPS   HN3 1866   2.866   5.712   6.191 -0.5920  1.9576 -0.2853
   15SAPS   C12 1867   2.854   5.860   6.320  0.2570 -0.5072  0.3475
   15SAPS  H12A 1868   2.875   5.864   6.426  0.2714  1.3397  0.3166
   15SAPS   C13 1869   2.971   5.937   6.259  0.1970 -0.8020  0.2420
   15SAPS  O13A 1870   3.042   5.883   6.173  0.2698  0.1669  0.6495
   15SAPS  O13B 1871   2.993   6.051   6.304 -0.1930  0.2300  0.5300
   15SAPS   C11 1872   2.714   5.923   6.273 -0.1160  0.1559  0.6282
   15SAPS  H11A 1873   2.708   5.908   6.163  0.1885 -0.9952  0.7487
   15SAPS  H11B 1874   2.722   6.030   6.302 -1.3793  0.7776 -1.1962
   15SAPS     P 1875   2.467   5.938   6.361 -0.1749 -0.0100 -0.0131
   15SAPS   O13 1876   2.457   6.041   6.260 -0.4392  0.0067 -0.3036
   15SAPS   O14 1877   2.361   5.835   6.383  0.4445  0.1496 -0.2144
   15SAPS   O12 1878   2.603   5.859   6.338 -0.2015 -0.0835  0.4838
   15SAPS   O11 1879   2.495   6.014   6.497  0.0006  0.0188 -0.2074
   15SAPS    C1 1880   2.599   5.977   6.587  0.3965 -0.8368  0.2591
   15SAPS    HA 1881   2.606   5.867   6.604  0.1520 -0.9129 -0.1037
   15SAPS    HB 1882   2.696   6.011   6.542  0.3420  0.5058  1.1104
   15SAPS    C2 1883   2.584   6.044   6.730  0.2959 -0.1777 -0.1937
   15SAPS    HS 1884   2.602   6.153   6.718 -0.8484 -0.0580 -1.0889
   15SAPS   O21 1885   2.670   5.977   6.825 -0.3708 -0.0755 -0.2871
   15SAPS   C21 1886   2.795   6.019   6.814 -0.0101  0.4652 -0.0476
   15SAPS   O22 1887   2.833   6.101   6.732  0.5415 -0.1170  0.3142
   15SAPS   C22 1888   2.876   5.951   6.924  0.5863  0.1205  0.2156
   15SAPS   H2R 1889   2.825   5.973   7.020 -0.0821 -3.0597  0.6959
   15SAPS   H2S 1890   2.872   5.841   6.916 -0.5385 -0.0160  2.0946
   15SAPS    C3 1891   2.438   6.032   6.781  0.4671 -0.2684  0.4286
   15SAPS    HX 1892   2.407   5.926   6.766 -0.0667 -0.0789  0.1810
   15SAPS    HY 1893   2.361   6.081   6.718  0.2386 -1.2037 -0.0423
   15SAPS   O31 1894   2.418   6.048   6.927 -0.3928 -0.1843 -0.2781
   15SAPS   C31 1895   2.391   6.180   6.950 -0.2854 -0.2174  0.4015
   15SAPS   O32 1896   2.394   6.266   6.865  0.3481 -0.4026 -0.0743
   15SAPS   C32 1897   2.332   6.201   7.092 -0.2674  0.0477  0.4111
   15SAPS   H2X 1898   2.376   6.123   7.157  0.0061  1.3453  1.8236
   15SAPS   H2Y 1899   2.224   6.182   7.080  0.0643 -3.1805  1.6742
   15SAPS   C23 1900   3.022   6.013   6.936  0.9720 -1.0372 -0.0116
   15SAPS   H3R 1901   3.016   6.122   6.952 -1.0936 -0.5874 -2.9975
   15SAPS   H3S 1902   3.071   6.000   6.838  3.4120 -0.5082  1.0590
   15SAPS   C24 1903   3.104   5.942   7.047 -0.0300 -0.5643  0.2297
   15SAPS   H4R 1904   3.047   5.953   7.142 -0.6778  0.7400 -0.2917
   15SAPS   H4S 1905   3.201   5.994   7.062  0.5287 -1.0188 -1.6179
   15SAPS   C25 1906   3.141   5.804   7.009  0.1620  0.8704  0.1771
   15SAPS   H5R 1907   3.214   5.791   6.927  0.6320 -1.6530  0.9193
   15SAPS   C26 1908   3.105   5.685   7.060  0.3245  0.6737  0.5406
   15SAPS   H6R 1909   3.131   5.601   6.995  1.6742  1.6417 -0.2378
   15SAPS   C27 1910   3.008   5.662   7.169  0.5241  0.1055 -0.3877
   15SAPS   H7R 1911   2.930   5.594   7.128  2.1795 -2.3251  0.2470
   15SAPS   H7S 1912   2.956   5.754   7.203  1.8471  1.3375 -1.5823
   15SAPS   C28 1913   3.087   5.585   7.275  0.0114 -0.6597 -0.4529
   15SAPS   H8R 1914   3.117   5.487   7.234 -0.2340  0.0765 -2.5262
   15SAPS   C29 1915   3.109   5.609   7.403  0.7995  0.0319  0.1141
   15SAPS   H9R 1916   3.160   5.536   7.467  0.0775 -0.6094 -0.0344
   15SAPS  C210 1917   3.050   5.725   7.483  0.0863 -0.0441  0.3805
   15SAPS  H10R 1918   2.949   5.696   7.520 -0.4907  0.0838 -1.0524
   15SAPS  H10S 1919   3.041   5.817   7.422 -2.2930  0.0198  0.7161
   15SAPS  C211 1920   3.137   5.760   7.605  0.5744  0.1731 -0.2889
   15SAPS  H11R 1921   3.235   5.807   7.586  1.1836  0.6651  3.4522
   15SAPS  C212 1922   3.114   5.712   7.728  0.5509  0.3123 -0.0497
   15SAPS  H12R 1923   3.197   5.730   7.797 -0.0047  0.1798  0.6618
   15SAPS  C213 1924   2.998   5.621   7.753  0.7767 -0.6550  0.2473
   15SAPS  H13R 1925   3.042   5.546   7.822 -0.5205 -1.7098 -0.0052
   15SAPS  H13S 1926   2.959   5.561   7.667 -2.1736 -2.3709  2.5494
   15SAPS  C214 1927   2.880   5.693   7.825  0.0134  0.1847  0.0034
   15SAPS  H14R 1928   2.809   5.754   7.768  0.5977  1.2441  0.3845
   15SAPS  C215 1929   2.867   5.691   7.959  0.2313  0.4180 -0.8430
   15SAPS  H15R 1930   2.779   5.734   8.011  1.1181 -2.9078  4.2133
   15SAPS  C216 1931   2.947   5.622   8.059 -0.4208 -0.4772 -0.4319
   15SAPS  H16R 1932   3.044   5.674   8.059 -1.1288  0.8736 -0.8631
   15SAPS  H16S 1933   2.963   5.515   8.032 -1.2517 -1.5623  2.8586
   15SAPS  C217 1934   2.885   5.627   8.198 -0.3806  0.1322 -0.1088
   15SAPS  H17R 1935   2.781   5.587   8.197  0.2024 -1.4288 -0.9357
   15SAPS  H17S 1936   2.890   5.731   8.237  1.3389  0.2957 -0.6847
   15SAPS  C218 1937   2.974   5.554   8.302  0.6973  0.6956 -0.2288
   15SAPS  H18R 1938   3.077   5.544   8.263  0.0868 -0.4207 -1.6544
   15SAPS  H18S 1939   2.939   5.450   8.321 -2.6690  1.4197 -1.6309
   15SAPS  C219 1940   2.982   5.624   8.439 -0.7323 -0.4525  0.0738
   15SAPS  H19R 1941   2.881   5.612   8.482 -0.9279 -1.2079 -0.5770
   15SAPS  H19S 1942   3.014   5.730   8.424 -1.4986  0.2602  2.9097
   15SAPS  C220 1943   3.084   5.562   8.537 -0.0463  0.1588  0.0463
   15SAPS  H20R 1944   3.053   5.465   8.580 -3.0715  2.5337  3.9180
   15SAPS  H20S 1945   3.101   5.626   8.626  1.3670 -2.3863  1.7313
   15SAPS  H20T 1946   3.190   5.554   8.503  0.3688  2.4657  0.5820
   15SAPS   C33 1947   2.370   6.340   7.151  0.2533 -0.7362  0.2174
   15SAPS   H3X 1948   2.332   6.421   7.084 -0.2103 -1.3502 -0.2718
   15SAPS   H3Y 1949   2.478   6.365   7.162 -0.1262  0.0212  3.0965
   15SAPS   C34 1950   2.318   6.341   7.296  0.0747 -0.1080 -0.1732
   15SAPS   H4X 1951   2.358   6.260   7.361 -0.3759  1.2437  1.8559
   15SAPS   H4Y 1952   2.209   6.325   7.301  0.1765 -0.9396 -0.4680
   15SAPS   C35 1953   2.356   6.481   7.364 -0.1398  0.7574 -0.0538
   15SAPS   H5X 1954   2.305   6.556   7.300  1.9141 -0.5065 -3.4146
   15SAPS   H5Y 1955   2.466   6.488   7.359 -0.2943  2.8778 -3.1286
   15SAPS   C36 1956   2.307   6.478   7.511  0.6471 -0.0171  0.5105
   15SAPS   H6X 1957   2.332   6.387   7.570 -0.1094 -1.0660 -0.7486
   15SAPS   H6Y 1958   2.197   6.485   7.510  0.6441 -0.0167 -1.1276
   15SAPS   C37 1959   2.360   6.595   7.592 -0.0758  0.4322  0.3856
   15SAPS   H7X 1960   2.332   6.693   7.549 -2.3307 -0.8368 -1.2399
   15SAPS   H7Y 1961   2.470   6.596   7.610  0.2480 -0.1787 -1.3509
   15SAPS   C38 1962   2.306   6.601   7.736 -0.5150  0.3050 -0.3269
   15SAPS   H8X 1963   2.319   6.498   7.774 -0.0496  0.8077  0.9251
   15SAPS   H8Y 1964   2.199   6.615   7.708 -1.1151 -1.2824  1.0193
   15SAPS   C39 1965   2.357   6.714   7.813  0.4358  1.1914 -0.4093
   15SAPS   H9X 1966   2.325   6.799   7.748  2.2937  0.8882 -1.8143
   15SAPS   H9Y 1967   2.468   6.714   7.815  0.4419  0.7017 -0.5819
   15SAPS  C310 1968   2.312   6.717   7.959  0.6032  0.2891  0.1767
   15SAPS  H10X 1969   2.370   6.644   8.019 -1.6785 -2.5153 -0.7584
   15SAPS  H10Y 1970   2.202   6.697   7.963  0.3009  1.8844  0.5823
   15SAPS  C311 1971   2.327   6.852   8.031 -0.3007  0.6027 -0.3929
   15SAPS  H11X 1972   2.260   6.930   7.987 -1.2367  0.4389  0.6831
   15SAPS  H11Y 1973   2.434   6.879   8.022  0.2306 -0.0791  2.7427
   15SAPS  C312 1974   2.285   6.855   8.182 -0.1593 -0.1799 -0.2008
   15SAPS  H12X 1975   2.340   6.783   8.246  2.1139 -0.2071 -2.0399
   15SAPS  H12Y 1976   2.176   6.836   8.195 -0.5668  0.4766 -2.2939
   15SAPS  C313 1977   2.318   6.984   8.249  0.0563 -0.6875  0.5035
   15SAPS  H13X 1978   2.258   7.066   8.203 -0.7943 -2.2347 -1.2426
   15SAPS  H13Y 1979   2.424   7.009   8.223  0.4507 -2.1745  0.6083
   15SAPS  C314 1980   2.314   6.985   8.403  0.0187  0.0510 -0.6513
   15SAPS  H14X 1981   2.357   6.887   8.434 -1.4312 -0.7963 -1.2159
   15SAPS  H14Y 1982   2.206   6.978   8.428  0.0074  0.1621 -0.6704
   15SAPS  C315 1983   2.384   7.096   8.468 -0.3119  0.1199  0.2345
   15SAPS  H15X 1984   2.341   7.196   8.442 -0.3550 -0.3694 -1.7490
   15SAPS  H15Y 1985   2.490   7.087   8.437  0.6066  0.8914  2.9619
   15SAPS  C316 1986   2.390   7.091   8.619 -0.7315 -0.2804  0.1981
   15SAPS  H16X 1987   2.466   7.015   8.644  0.6642  0.9536 -0.1443
   15SAPS  H16Y 1988   2.293   7.068   8.669 -0.7275  1.2786  0.9717
   15SAPS  C317 1989   2.443   7.220   8.690 -0.6314 -0.2567 -0.4684
   15SAPS  H17X 1990   2.391   7.304   8.639  0.6170  0.2200 -0.9999
   15SAPS  H17Y 1991   2.551   7.225   8.665  0.0942 -2.4666  1.7945
   15SAPS  C318 1992   2.414   7.239   8.840 -0.0589  0.6895 -0.0704
   15SAPS  H18X 1993   2.509   7.227   8.897 -0.6745  0.7481  1.0062
   15SAPS  H18Y 1994   2.341   7.161   8.872  1.3564  0.2303  2.3367
   15SAPS  H18Z 1995   2.359   7.331   8.869 -1.1256 -0.1734  0.7416
   16SAPS     N 1996   1.803   2.195   6.414  0.1549  0.4813  0.4196
   16SAPS   HN1 1997   1.831   2.295   6.412 -1.7405  1.0417 -0.7579
   16SAPS   HN2 1998   1.780   2.170   6.315 -1.9408  2.3734  0.3597
   16SAPS   HN3 1999   1.713   2.195   6.467 -1.4503  1.6509 -2.1179
   16SAPS   C12 2000   1.916   2.117   6.467 -0.2903  0.2032 -0.5307
   16SAPS  H12A 2001   1.880   2.046   6.540 -0.3896 -0.6038 -1.3574
   16SAPS   C13 2002   1.996   2.045   6.355  0.3370 -0.7075 -0.3011
   16SAPS  O13A 2003   1.944   2.041   6.235  0.0878  0.0303  0.4965
   16SAPS  O13B 2004   2.107   1.996   6.379  0.1069  0.4474 -0.4763
   16SAPS   C11 2005   1.996   2.218   6.552  0.1039 -0.5375  0.1476
   16SAPS  H11A 2006   2.042   2.294   6.486 -0.8266 -0.6729 -0.6791
   16SAPS  H11B 2007   2.087   2.165   6.589  0.1460 -2.9136 -2.9624
   16SAPS     P 2008   1.963   2.395   6.742  0.0852  0.0688 -0.5073
   16SAPS   O13 2009   2.076   2.362   6.829  0.0541  0.2962 -0.8260
   16SAPS   O14 2010   1.979   2.506   6.652  0.2815 -0.2469  0.3906
   16SAPS   O12 2011   1.927   2.262   6.668  0.0180 -0.6515 -0.0728
   16SAPS   O11 2012   1.836   2.435   6.828 -0.3670 -0.4709  0.4507
   16SAPS    C1 2013   1.730   2.339   6.852  0.2494  0.2851  0.1150
   16SAPS    HA 2014   1.697   2.295   6.756 -0.9181  0.8336  0.2556
   16SAPS    HB 2015   1.758   2.248   6.909  1.8571  0.5317 -0.2263
   16SAPS    C2 2016   1.616   2.407   6.927  0.1910  1.0542  1.0901
   16SAPS    HS 2017   1.574   2.495   6.874 -0.0210  0.4056  0.1709
   16SAPS   O21 2018   1.664   2.445   7.046 -0.1510  0.1618 -0.1400
   16SAPS   C21 2019   1.590   2.525   7.120 -0.2628  0.3338  0.9910
   16SAPS   O22 2020   1.486   2.580   7.084 -0.2009  0.5657 -0.3668
   16SAPS   C22 2021   1.654   2.552   7.254 -0.1140  0.1766  0.3295
   16SAPS   H2R 2022   1.704   2.651   7.255 -0.3271  0.3332 -1.4737
   16SAPS   H2S 2023   1.565   2.563   7.319 -0.2707  1.5844 -0.0898
   16SAPS    C3 2024   1.489   2.318   6.938 -0.1162 -0.6605  0.0231
   16SAPS    HX 2025   1.463   2.283   6.836  3.4218 -1.4348 -0.7432
   16SAPS    HY 2026   1.396   2.373   6.962  0.0838 -0.6114  0.7111
   16SAPS   O31 2027   1.522   2.206   7.012  0.2331  0.1004  0.0726
   16SAPS   C31 2028   1.416   2.127   7.045  0.2052 -0.1561  0.1095
   16SAPS   O32 2029   1.299   2.151   7.025 -0.4771  0.0812 -0.0388
   16SAPS   C32 2030   1.470   2.029   7.155  0.6678  0.3810 -0.1612
   16SAPS   H2X 2031   1.565   1.980   7.125  0.7876  0.0608  0.7052
   16SAPS   H2Y 2032   1.394   1.950   7.173  0.9638  0.2051  0.3273
   16SAPS   C23 2033   1.740   2.433   7.302  0.0605  0.5053  0.1011
   16SAPS   H3R 2034   1.826   2.405   7.237 -0.0188 -1.0265  0.6060
   16SAPS   H3S 2035   1.679   2.340   7.297 -2.0756  1.6833  2.6267
   16SAPS   C24 2036   1.803   2.462   7.440 -0.1990  0.0316  0.9269
   16SAPS   H4R 2037   1.721   2.490   7.510  0.0794 -1.5818  1.9339
   16SAPS   H4S 2038   1.861   2.556   7.432  0.4554 -0.2886  1.8424
   16SAPS   C25 2039   1.870   2.346   7.503 -0.2719  0.2197 -0.8961
   16SAPS   H5R 2040   1.935   2.295   7.431  0.4456  1.4110 -1.1121
   16SAPS   C26 2041   1.850   2.295   7.628  0.6655  0.0949 -0.5779
   16SAPS   H6R 2042   1.921   2.221   7.667 -1.1674  0.4186  3.9453
   16SAPS   C27 2043   1.760   2.356   7.737 -0.0998 -0.7370 -0.3793
   16SAPS   H7R 2044   1.735   2.278   7.812  1.3947  0.4956  1.5151
   16SAPS   H7S 2045   1.663   2.388   7.693 -0.1953  0.8445  0.8863
   16SAPS   C28 2046   1.813   2.474   7.821 -0.8297 -0.6461  0.0038
   16SAPS   H8R 2047   1.898   2.525   7.773  0.1303  0.4128  2.6537
   16SAPS   C29 2048   1.760   2.532   7.931 -0.3922 -0.2200 -0.6583
   16SAPS   H9R 2049   1.826   2.600   7.988 -0.3387 -0.5247 -0.3531
   16SAPS  C210 2050   1.639   2.476   8.002 -0.4658  0.3685 -0.2021
   16SAPS  H10R 2051   1.670   2.395   8.072  0.0118  0.9337  0.2509
   16SAPS  H10S 2052   1.565   2.433   7.931 -0.0483 -0.1570 -0.3229
   16SAPS  C211 2053   1.583   2.585   8.089 -0.1854  0.1517  0.3488
   16SAPS  H11R 2054   1.523   2.659   8.034  1.4496  1.2489 -0.0322
   16SAPS  C212 2055   1.576   2.601   8.223  0.0097 -0.1296 -0.0378
   16SAPS  H12R 2056   1.534   2.697   8.257 -1.5524 -0.7679 -0.1078
   16SAPS  C213 2057   1.639   2.521   8.334  0.0733  1.0837  0.0642
   16SAPS  H13R 2058   1.610   2.415   8.354  1.7774  0.2504 -1.5347
   16SAPS  H13S 2059   1.613   2.577   8.426 -1.3766  1.3510 -0.4848
   16SAPS  C214 2060   1.786   2.539   8.322 -1.0784  0.4046  0.7949
   16SAPS  H14R 2061   1.827   2.502   8.228  0.3775 -0.7107  1.8326
   16SAPS  C215 2062   1.875   2.578   8.416 -0.3705 -0.3793 -0.0882
   16SAPS  H15R 2063   1.980   2.600   8.391 -0.2428 -1.7047 -0.8096
   16SAPS  C216 2064   1.835   2.624   8.558 -0.1463  0.3968  0.5140
   16SAPS  H16R 2065   1.782   2.541   8.610 -0.8332  0.3609 -0.2276
   16SAPS  H16S 2066   1.767   2.711   8.569 -0.4026  0.1614  0.8368
   16SAPS  C217 2067   1.948   2.641   8.657 -0.3251 -0.0747 -0.2341
   16SAPS  H17R 2068   2.041   2.693   8.625  0.2916 -0.9692  0.0562
   16SAPS  H17S 2069   1.971   2.536   8.686 -1.3854 -0.5765 -1.1252
   16SAPS  C218 2070   1.901   2.711   8.789 -0.2056  0.1895  0.5708
   16SAPS  H18R 2071   1.838   2.638   8.844 -1.7389  0.8328 -0.2663
   16SAPS  H18S 2072   1.839   2.802   8.774  1.8298  1.5601 -0.0270
   16SAPS  C219 2073   2.015   2.736   8.886  0.6753 -0.2348  0.2460
   16SAPS  H19R 2074   2.052   2.642   8.933 -3.1508 -0.3809  3.4185
   16SAPS  H19S 2075   1.976   2.798   8.968 -1.5804 -0.6431 -0.4390
   16SAPS  C220 2076   2.138   2.815   8.836 -0.6645 -0.0182  0.5312
   16SAPS  H20R 2077   2.116   2.912   8.786  3.4110  0.5451 -0.5190
   16SAPS  H20S 2078   2.197   2.756   8.763 -0.6393  0.9299 -0.2367
   16SAPS  H20T 2079   2.192   2.844   8.928  1.4514  1.3037 -1.0607
   16SAPS   C33 2080   1.476   2.095   7.294  0.0401 -0.2471 -0.4110
   16SAPS   H3X 2081   1.389   2.161   7.312 -0.9178 -1.2920 -1.1072
   16SAPS   H3Y 2082   1.565   2.162   7.297 -1.3513  1.7401 -1.2213
   16SAPS   C34 2083   1.476   2.004   7.418  0.0604  0.2875 -0.4596
   16SAPS   H4X 2084   1.558   1.940   7.380  0.2701  0.8644 -0.9990
   16SAPS   H4Y 2085   1.376   1.956   7.424 -0.3385  1.2305  1.0092
   16SAPS   C35 2086   1.500   2.095   7.543  0.9582  0.4497  0.5591
   16SAPS   H5X 2087   1.399   2.136   7.566  0.6349  1.1574 -1.8742
   16SAPS   H5Y 2088   1.577   2.172   7.519 -0.4600  1.9276  0.5808
   16SAPS   C36 2089   1.529   2.006   7.665  0.2170 -0.1647  0.5149
   16SAPS   H6X 2090   1.618   1.944   7.643  0.1183 -0.2621  0.3891
   16SAPS   H6Y 2091   1.450   1.929   7.665 -0.9302  0.8582 -2.3015
   16SAPS   C37 2092   1.552   2.077   7.797 -0.2735  0.0611 -0.8294
   16SAPS   H7X 2093   1.488   2.167   7.788  0.4379  0.3564 -4.5740
   16SAPS   H7Y 2094   1.657   2.098   7.825 -0.7931  2.1634 -0.2985
   16SAPS   C38 2095   1.481   1.993   7.910 -0.7357  0.1888 -0.6723
   16SAPS   H8X 2096   1.547   1.912   7.949 -0.2073  0.6018 -0.7022
   16SAPS   H8Y 2097   1.386   1.948   7.875 -0.1268 -1.6713 -0.0683
   16SAPS   C39 2098   1.440   2.089   8.027 -0.5371  0.6182  0.1063
   16SAPS   H9X 2099   1.330   2.104   8.015 -0.5144  1.5746  1.0321
   16SAPS   H9Y 2100   1.492   2.185   8.007 -1.4956  1.1110 -0.0818
   16SAPS  C310 2101   1.465   2.041   8.169 -0.7844  0.3836  0.9745
   16SAPS  H10X 2102   1.572   2.010   8.160 -1.1012 -0.2451 -1.2883
   16SAPS  H10Y 2103   1.401   1.951   8.174 -2.9069  1.9049  2.8437
   16SAPS  C311 2104   1.431   2.137   8.280  0.0388  0.0291 -0.5925
   16SAPS  H11X 2105   1.320   2.141   8.284  0.0999  1.2054  2.1011
   16SAPS  H11Y 2106   1.470   2.239   8.261  0.8378 -0.2726 -0.5869
   16SAPS  C312 2107   1.481   2.099   8.422  0.4376  0.0423  0.1030
   16SAPS  H12X 2108   1.592   2.095   8.416  0.4226  0.4707 -0.6513
   16SAPS  H12Y 2109   1.450   1.997   8.453 -2.1999  0.5415 -0.6738
   16SAPS  C313 2110   1.436   2.201   8.537  0.0205 -0.0038  0.6581
   16SAPS  H13X 2111   1.412   2.301   8.496 -1.4690 -0.3040  0.7346
   16SAPS  H13Y 2112   1.514   2.186   8.615 -2.4278 -1.6987  2.9897
   16SAPS  C314 2113   1.309   2.150   8.602  0.2960 -0.0274  0.4541
   16SAPS  H14X 2114   1.321   2.042   8.630 -0.7770 -0.2125  0.2314
   16SAPS  H14Y 2115   1.227   2.156   8.527  0.4694 -0.7824  0.1890
   16SAPS  C315 2116   1.275   2.224   8.730 -0.2699 -0.1315  0.2507
   16SAPS  H15X 2117   1.222   2.321   8.718 -1.6225 -0.6880  1.5062
   16SAPS  H15Y 2118   1.370   2.252   8.781 -0.7161  1.9764  0.0429
   16SAPS  C316 2119   1.185   2.137   8.823 -0.6077 -0.1494 -0.0020
   16SAPS  H16X 2120   1.178   2.194   8.919  1.2854  0.0063  0.0734
   16SAPS  H16Y 2121   1.248   2.049   8.848 -2.4042 -1.4046  0.2763
   16SAPS  C317 2122   1.048   2.105   8.776  0.7502  0.6090  0.6300
   16SAPS  H17X 2123   1.001   2.053   8.861 -2.0004 -0.2158 -1.2552
   16SAPS  H17Y 2124   1.058   2.036   8.689  1.2111  1.8912 -0.3730
   16SAPS  C318 2125   0.966   2.226   8.723  0.1217  0.1451  0.2699
   16SAPS  H18X 2126   1.017   2.266   8.633 -0.4863 -0.4983 -0.3632
   16SAPS  H18Y 2127   0.946   2.305   8.799  0.3981 -0.1224  0.6240
   16SAPS  H18Z 2128   0.870   2.176   8.700  1.3251 -2.8043  1.2014
   17SAPC     N 2129   5.437   5.137  10.644 -0.4267 -1.1278 -0.2999
   17SAPC   C12 2130   5.451   5.287  10.665  0.1780 -0.0851 -0.3961
   17SAPC  H12A 2131   5.463   5.310  10.770  1.3798 -0.5155 -0.4193
   17SAPC  H12B 2132   5.352   5.325  10.643 -0.2118  0.1945  1.6027
   17SAPC   C13 2133   5.556   5.069  10.712  0.0684 -0.4338  0.0883
   17SAPC  H13A 2134   5.545   5.078  10.819 -3.4726  0.7403 -0.2335
   17SAPC  H13B 2135   5.585   4.970  10.681  2.6500 -0.7583  3.0741
   17SAPC  H13C 2136   5.639   5.127  10.675 -1.6441  3.2764  1.5669
   17SAPC   C14 2137   5.316   5.092  10.715 -0.2026 -0.4808 -0.3132
   17SAPC  H14A 2138   5.237   5.143  10.662  2.1393  2.5995 -1.0748
   17SAPC  H14B 2139   5.315   4.984  10.714 -1.8299 -0.6608  3.5023
   17SAPC  H14C 2140   5.318   5.127  10.817  1.1287 -0.2607 -0.3967
   17SAPC   C15 2141   5.438   5.101  10.497  0.1591 -0.6890 -0.8544
   17SAPC  H15A 2142   5.444   4.994  10.499  0.6567 -0.8655  5.1996
   17SAPC  H15B 2143   5.352   5.140  10.444  0.9813  2.6515  0.0251
   17SAPC  H15C 2144   5.519   5.154  10.449 -0.4531  0.1080 -1.0412
   17SAPC   C11 2145   5.548   5.366  10.584  0.3248 -0.8430  0.6755
   17SAPC  H11A 2146   5.518   5.473  10.584  0.0790 -0.9040  1.3996
   17SAPC  H11B 2147   5.544   5.340  10.477 -0.4738  0.3070  0.4058
   17SAPC     P 2148   5.753   5.425  10.734 -0.2040 -0.1078  0.1136
   17SAPC   O13 2149   5.647   5.458  10.830 -0.4015 -0.6085  0.3198
   17SAPC   O14 2150   5.867   5.339  10.782  0.7411  0.0547 -0.0825
   17SAPC   O12 2151   5.687   5.353  10.613  0.1397  0.1232  0.5494
   17SAPC   O11 2152   5.803   5.568  10.679  0.2198  0.3947 -0.1540
   17SAPC    C1 2153   5.723   5.665  10.623  0.0436 -1.1495  0.8320
   17SAPC    HA 2154   5.674   5.614  10.537  2.0913 -3.0081  0.6780
   17SAPC    HB 2155   5.657   5.715  10.698 -1.8193  1.4288 -2.2395
   17SAPC    C2 2156   5.811   5.776  10.568  0.4808 -0.2462 -0.4406
   17SAPC    HS 2157   5.873   5.832  10.642 -0.2728  1.6664 -1.1851
   17SAPC   O21 2158   5.717   5.864  10.504 -0.1144 -0.3071 -0.4102
   17SAPC   C21 2159   5.751   5.992  10.495  0.5026 -0.6030 -0.4282
   17SAPC   O22 2160   5.818   6.050  10.577 -0.3380  0.2022 -0.5346
   17SAPC   C22 2161   5.668   6.055  10.378  0.7758 -0.2154  0.2660
   17SAPC   H2R 2162   5.723   6.027  10.286  0.4621 -0.9006  0.2837
   17SAPC   H2S 2163   5.566   6.010  10.376 -0.1483  1.8065  0.0012
   17SAPC    C3 2164   5.911   5.725  10.458 -0.2041 -0.1280 -0.2485
   17SAPC    HX 2165   5.965   5.643  10.511 -3.5316 -1.9931  0.5565
   17SAPC    HY 2166   5.975   5.812  10.435 -2.4270  1.1821 -1.8910
   17SAPC   O31 2167   5.864   5.662  10.340 -0.5956  0.1129  0.4644
   17SAPC   C31 2168   5.861   5.734  10.235  0.5269 -0.2073 -0.1237
   17SAPC   O32 2169   5.900   5.847  10.216 -0.0926 -0.2114 -0.4635
   17SAPC   C32 2170   5.783   5.658  10.132 -0.1996 -0.3069  1.4265
   17SAPC   H2X 2171   5.673   5.677  10.136 -0.3730 -0.7561 -0.3949
   17SAPC   H2Y 2172   5.804   5.550  10.140 -1.0851 -0.3939  3.0093
   17SAPC   C23 2173   5.652   6.211  10.393  0.3461 -0.3691  0.1390
   17SAPC   H3R 2174   5.751   6.260  10.392  0.6636 -0.9751  0.7737
   17SAPC   H3S 2175   5.606   6.230  10.493 -0.8992 -0.7986 -0.3332
   17SAPC   C24 2176   5.559   6.277  10.288 -0.3515  0.7177 -0.4076
   17SAPC   H4R 2177   5.463   6.223  10.280 -0.1342  0.3661 -0.6981
   17SAPC   H4S 2178   5.611   6.266  10.191  0.2800 -0.9915  0.0855
   17SAPC   C25 2179   5.542   6.421  10.320  0.0100  0.4067 -0.1221
   17SAPC   H5R 2180   5.580   6.460  10.416 -0.2218  0.5333 -0.0805
   17SAPC   C26 2181   5.502   6.511  10.227 -0.0287  0.0086 -0.4527
   17SAPC   H6R 2182   5.493   6.613  10.268  1.3742 -0.5488  1.3599
   17SAPC   C27 2183   5.457   6.500  10.083 -0.4576  0.6789  0.0467
   17SAPC   H7R 2184   5.346   6.502  10.086 -0.4549  1.0180 -0.0847
   17SAPC   H7S 2185   5.472   6.397  10.044 -1.2599  0.4377  0.3656
   17SAPC   C28 2186   5.518   6.608   9.994 -0.0185 -0.3787 -0.1413
   17SAPC   H8R 2187   5.563   6.699  10.036  1.6240  0.1059 -2.7359
   17SAPC   C29 2188   5.495   6.609   9.864 -0.6529 -0.6848 -0.0309
   17SAPC   H9R 2189   5.554   6.679   9.803 -2.7022 -0.5766 -2.0388
   17SAPC  C210 2190   5.423   6.520   9.771  0.5836  0.2795 -0.0872
   17SAPC  H10R 2191   5.368   6.450   9.838  2.0223  0.6398  1.5280
   17SAPC  H10S 2192   5.493   6.450   9.720 -0.4887  0.8009 -2.4228
   17SAPC  C211 2193   5.338   6.596   9.680 -0.0853 -0.4870  0.0835
   17SAPC  H11R 2194   5.294   6.688   9.721 -1.0040 -0.3781 -1.1020
   17SAPC  C212 2195   5.330   6.567   9.545  0.1062  0.7397 -0.1872
   17SAPC  H12R 2196   5.258   6.627   9.486 -0.6826 -1.0950 -1.1910
   17SAPC  C213 2197   5.390   6.448   9.475  0.3786 -0.1238 -0.5277
   17SAPC  H13R 2198   5.379   6.360   9.542 -1.3640 -1.1012 -1.9613
   17SAPC  H13S 2199   5.495   6.476   9.455 -0.2875  0.7153 -3.3347
   17SAPC  C214 2200   5.318   6.419   9.345  0.3129  0.3059 -0.5630
   17SAPC  H14R 2201   5.279   6.511   9.300  1.7806  1.7348  0.9283
   17SAPC  C215 2202   5.308   6.295   9.289 -0.1393 -0.0859 -0.5747
   17SAPC  H15R 2203   5.221   6.289   9.221 -1.2918  2.3037  0.5461
   17SAPC  C216 2204   5.367   6.159   9.332 -0.4536  0.3390 -0.3480
   17SAPC  H16R 2205   5.293   6.102   9.392 -1.9205  1.2678 -1.2420
   17SAPC  H16S 2206   5.455   6.183   9.395 -0.8028 -0.6136  0.5302
   17SAPC  C217 2207   5.409   6.072   9.210 -0.4021 -0.5410 -0.2326
   17SAPC  H17R 2208   5.481   6.123   9.143  0.6604 -1.6577  0.0252
   17SAPC  H17S 2209   5.318   6.052   9.149  0.1899  0.8081 -1.6250
   17SAPC  C218 2210   5.483   5.947   9.256  0.0183 -0.2471  0.5088
   17SAPC  H18R 2211   5.467   5.875   9.173  1.8512  2.9372 -2.9285
   17SAPC  H18S 2212   5.428   5.912   9.346  1.1882 -1.3045  0.8402
   17SAPC  C219 2213   5.631   5.968   9.283  0.3683  0.1985  0.2665
   17SAPC  H19R 2214   5.635   6.044   9.365  0.0706  1.2488 -0.6579
   17SAPC  H19S 2215   5.686   6.000   9.193  0.7215  0.6546  0.6343
   17SAPC  C220 2216   5.702   5.844   9.330  0.3080 -1.1111  0.1263
   17SAPC  H20R 2217   5.802   5.865   9.372  0.2392  1.2760 -0.7770
   17SAPC  H20S 2218   5.697   5.759   9.259  1.9125 -0.5328 -0.7189
   17SAPC  H20T 2219   5.641   5.807   9.416 -1.0406  0.9317  0.1349
   17SAPC   C33 2220   5.831   5.701   9.981  0.5248  0.5225  0.5162
   17SAPC   H3X 2221   5.930   5.753   9.978  0.8258 -0.0320  0.6782
   17SAPC   H3Y 2222   5.757   5.760   9.924 -1.5561 -0.9948  1.5031
   17SAPC   C34 2223   5.860   5.569   9.900 -0.3591 -0.2465 -0.5038
   17SAPC   H4X 2224   5.903   5.501   9.975  0.4709 -0.7036 -1.3801
   17SAPC   H4Y 2225   5.937   5.587   9.823  0.9535  1.4715  1.1184
   17SAPC   C35 2226   5.724   5.510   9.849 -0.0666 -0.6095  0.7058
   17SAPC   H5X 2227   5.672   5.588   9.788  3.8636  2.4691  0.9035
   17SAPC   H5Y 2228   5.651   5.489   9.930 -0.3365 -0.4209  0.5155
   17SAPC   C36 2229   5.750   5.373   9.771 -0.3976  0.7214  0.4930
   17SAPC   H6X 2230   5.651   5.324   9.781 -0.3471  0.3342 -0.7012
   17SAPC   H6Y 2231   5.830   5.309   9.813  1.0972  1.0529 -1.6693
   17SAPC   C37 2232   5.785   5.386   9.623 -0.1822  0.6747 -0.9713
   17SAPC   H7X 2233   5.777   5.286   9.575  0.8427  0.6813 -1.1858
   17SAPC   H7Y 2234   5.889   5.423   9.605  0.1252 -0.7564 -2.3661
   17SAPC   C38 2235   5.703   5.479   9.542  0.0856 -0.2989 -0.2296
   17SAPC   H8X 2236   5.717   5.587   9.564 -1.7642 -0.2518  0.9465
   17SAPC   H8Y 2237   5.596   5.464   9.567 -0.3638  2.7324  0.1034
   17SAPC   C39 2238   5.697   5.453   9.390 -0.4201  0.9197  0.0255
   17SAPC   H9X 2239   5.735   5.353   9.359  0.1894  1.8740 -2.5320
   17SAPC   H9Y 2240   5.772   5.514   9.335  1.2238  0.4215  1.6239
   17SAPC  C310 2241   5.568   5.480   9.321  0.1000 -0.3101 -0.8219
   17SAPC  H10X 2242   5.532   5.575   9.366 -0.2072  0.5103 -2.7347
   17SAPC  H10Y 2243   5.490   5.406   9.348  1.8326 -1.9067  0.0452
   17SAPC  C311 2244   5.580   5.471   9.170  0.4544  0.3587  0.2778
   17SAPC  H11X 2245   5.594   5.365   9.140 -2.1613  0.2751 -0.9346
   17SAPC  H11Y 2246   5.670   5.528   9.139  1.3163 -1.1208 -0.0468
   17SAPC  C312 2247   5.453   5.525   9.104  0.3553 -0.0623 -0.1165
   17SAPC  H12X 2248   5.436   5.631   9.135 -1.9862  0.1782 -1.9383
   17SAPC  H12Y 2249   5.369   5.469   9.152  0.0998  0.6247  0.2689
   17SAPC  C313 2250   5.439   5.518   8.958 -0.4494 -0.0973 -0.3051
   17SAPC  H13X 2251   5.526   5.564   8.906  1.0150 -2.9223 -0.5354
   17SAPC  H13Y 2252   5.355   5.577   8.917  0.9935  1.3187 -1.3953
   17SAPC  C314 2253   5.441   5.374   8.902  0.7456  0.0899  0.3652
   17SAPC  H14X 2254   5.362   5.306   8.939  0.9121  0.1336  0.8032
   17SAPC  H14Y 2255   5.536   5.325   8.934  0.3499 -0.9176  0.0342
   17SAPC  C315 2256   5.454   5.367   8.746  0.3156  0.4393  0.3473
   17SAPC  H15X 2257   5.367   5.417   8.699  0.0342 -0.0579  0.3429
   17SAPC  H15Y 2258   5.437   5.261   8.719  1.2570  0.1296  0.9281
   17SAPC  C316 2259   5.591   5.410   8.694  0.2815  0.5991  0.1547
   17SAPC  H16X 2260   5.624   5.335   8.618 -0.7747  0.4211 -0.1411
   17SAPC  H16Y 2261   5.664   5.400   8.777 -1.0838  2.1243  1.5768
   17SAPC  C317 2262   5.604   5.551   8.626 -1.0006 -0.0909 -0.4187
   17SAPC  H17X 2263   5.709   5.588   8.632 -1.2873  0.5809  1.1262
   17SAPC  H17Y 2264   5.542   5.617   8.691  2.5432  0.5128  2.6962
   17SAPC  C318 2265   5.548   5.545   8.484 -0.0739 -0.2032 -1.2178
   17SAPC  H18X 2266   5.437   5.547   8.484 -0.1940 -1.8066  1.6328
   17SAPC  H18Y 2267   5.584   5.635   8.429 -0.9300  1.6859  1.1086
   17SAPC  H18Z 2268   5.586   5.447   8.449  0.1491  0.4030 -2.7424
   18SAPC     N 2269   6.306   6.099  10.910 -0.1654 -0.0299 -0.7278
   18SAPC   C12 2270   6.431   6.123  10.836  0.5533 -0.5510 -0.4998
   18SAPC  H12A 2271   6.415   6.186  10.750 -0.7819 -1.2398 -0.7793
   18SAPC  H12B 2272   6.467   6.032  10.789 -1.0829 -0.8366 -1.2651
   18SAPC   C13 2273   6.332   5.986  11.010  0.0890 -0.4514  0.4936
   18SAPC  H13A 2274   6.350   5.898  10.950  0.4862 -0.0018 -0.0611
   18SAPC  H13B 2275   6.411   6.009  11.079 -1.1053  3.1712  0.8542
   18SAPC  H13C 2276   6.242   5.966  11.066 -0.4979 -1.0867 -0.6249
   18SAPC   C14 2277   6.246   6.218  10.982  0.2277  0.5234  0.3422
   18SAPC  H14A 2278   6.189   6.272  10.908 -1.2566 -1.1213  0.2001
   18SAPC  H14B 2279   6.174   6.183  11.055  0.4805  0.0450  0.3709
   18SAPC  H14C 2280   6.331   6.279  11.007  1.3573 -0.8475  0.0181
   18SAPC   C15 2281   6.207   6.049  10.813  0.1217 -0.0830  0.6701
   18SAPC  H15A 2282   6.123   6.004  10.862 -0.0962  0.0850  0.4519
   18SAPC  H15B 2283   6.180   6.132  10.750  2.2914  1.0579  1.1451
   18SAPC  H15C 2284   6.257   5.982  10.744 -0.6283  0.5053 -0.4730
   18SAPC   C11 2285   6.546   6.187  10.909  0.1390 -0.7356 -0.7188
   18SAPC  H11A 2286   6.643   6.138  10.886  2.2099  0.7450  3.8454
   18SAPC  H11B 2287   6.553   6.180  11.019  2.0149 -2.5999 -0.8860
   18SAPC     P 2288   6.660   6.419  10.889  0.3486 -0.1315  0.4329
   18SAPC   O13 2289   6.665   6.493  11.018  0.4233  0.1818 -0.4650
   18SAPC   O14 2290   6.790   6.359  10.848 -0.1795  0.0494 -0.8701
   18SAPC   O12 2291   6.544   6.319  10.865 -0.2433 -0.4888  0.4134
   18SAPC   O11 2292   6.627   6.529  10.783 -0.0630  0.1186 -0.0434
   18SAPC    C1 2293   6.494   6.578  10.749 -0.6029  0.6923  0.6853
   18SAPC    HA 2294   6.427   6.603  10.834 -2.6239 -1.1135 -0.2774
   18SAPC    HB 2295   6.509   6.675  10.696  1.5945 -0.2497 -0.5602
   18SAPC    C2 2296   6.423   6.487  10.654  0.3453  0.1666 -1.1988
   18SAPC    HS 2297   6.371   6.408  10.712  0.5632  2.8972  3.1330
   18SAPC   O21 2298   6.514   6.443  10.557  0.1042  0.4643  0.1795
   18SAPC   C21 2299   6.501   6.320  10.507 -0.3859 -1.0878 -0.0177
   18SAPC   O22 2300   6.418   6.239  10.542  0.3102  0.0567  0.2337
   18SAPC   C22 2301   6.624   6.300  10.407  0.0795  0.1853 -0.2559
   18SAPC   H2R 2302   6.612   6.386  10.338 -3.0057  0.9794  1.0888
   18SAPC   H2S 2303   6.717   6.313  10.466 -0.4533  2.8575  0.1412
   18SAPC    C3 2304   6.310   6.562  10.579 -0.3206 -0.5038 -0.5967
   18SAPC    HX 2305   6.364   6.645  10.530  3.0804 -1.9285  0.4158
   18SAPC    HY 2306   6.242   6.602  10.657 -0.0370  0.1557 -0.6823
   18SAPC   O31 2307   6.244   6.489  10.470  0.1339 -0.7863 -0.1602
   18SAPC   C31 2308   6.142   6.413  10.514 -0.1087 -0.1051  0.2565
   18SAPC   O32 2309   6.111   6.394  10.627  0.4984 -0.7927  0.5943
   18SAPC   C32 2310   6.063   6.365  10.390  0.7793 -0.1391 -0.0765
   18SAPC   H2X 2311   6.069   6.445  10.313  4.6952  0.0218  0.2009
   18SAPC   H2Y 2312   5.958   6.357  10.426  0.7326  1.6931  0.3012
   18SAPC   C23 2313   6.629   6.164  10.336 -0.4314 -0.3096 -0.0413
   18SAPC   H3R 2314   6.550   6.164  10.258 -0.5036  1.7145 -0.0262
   18SAPC   H3S 2315   6.597   6.080  10.400  3.3005 -1.1068  1.0095
   18SAPC   C24 2316   6.767   6.115  10.287  0.4491 -1.3879 -0.3715
   18SAPC   H4R 2317   6.772   6.005  10.269  0.8649 -1.4338  0.0188
   18SAPC   H4S 2318   6.844   6.136  10.365  2.1947 -2.3075 -1.7476
   18SAPC   C25 2319   6.801   6.190  10.155 -0.6867 -0.3543  0.7870
   18SAPC   H5R 2320   6.815   6.299  10.161 -0.5479 -0.4019  1.2957
   18SAPC   C26 2321   6.808   6.142  10.029  0.0926 -0.0611  0.3919
   18SAPC   H6R 2322   6.832   6.220   9.956 -0.2031  2.7237  3.0686
   18SAPC   C27 2323   6.782   5.998   9.982 -0.7190 -0.4519  1.2536
   18SAPC   H7R 2324   6.686   5.988   9.926 -0.5502  1.7500  0.4932
   18SAPC   H7S 2325   6.756   5.930  10.066 -1.0411 -3.6139 -1.2020
   18SAPC   C28 2326   6.902   5.943   9.909 -0.2133  0.3576  0.5399
   18SAPC   H8R 2327   6.946   5.856   9.959  1.7295 -0.4838 -2.3980
   18SAPC   C29 2328   6.941   5.957   9.779 -0.2439 -0.0754  0.0255
   18SAPC   H9R 2329   7.039   5.918   9.746 -0.1671  2.3500 -2.9972
   18SAPC  C210 2330   6.866   6.043   9.680  0.2718 -0.4791  0.1144
   18SAPC  H10R 2331   6.772   6.081   9.725  1.5530  0.7309  1.8724
   18SAPC  H10S 2332   6.841   5.972   9.598 -1.9190 -2.3143  2.2061
   18SAPC  C211 2333   6.950   6.164   9.645 -0.0620 -0.1299 -0.3684
   18SAPC  H11R 2334   6.981   6.225   9.731 -2.2270  0.3137  0.1479
   18SAPC  C212 2335   6.995   6.193   9.519  0.1605  0.5257 -0.9848
   18SAPC  H12R 2336   7.062   6.280   9.512  1.0336  0.1246  1.4058
   18SAPC  C213 2337   6.957   6.098   9.398 -0.6348 -0.0363 -0.1903
   18SAPC  H13R 2338   6.976   5.992   9.425  2.6807  0.0307 -1.8123
   18SAPC  H13S 2339   7.037   6.112   9.322 -2.9346  1.5371 -2.5206
   18SAPC  C214 2340   6.818   6.123   9.342 -0.3310  0.0256  0.4269
   18SAPC  H14R 2341   6.738   6.173   9.399 -0.9693  2.5732 -2.3960
   18SAPC  C215 2342   6.799   6.104   9.207  0.6211 -0.4096 -0.2721
   18SAPC  H15R 2343   6.695   6.124   9.177 -0.1961 -1.1071  1.8837
   18SAPC  C216 2344   6.891   6.052   9.102 -0.6628 -0.3480 -0.5326
   18SAPC  H16R 2345   6.984   6.112   9.104 -1.3938  0.8026 -0.0006
   18SAPC  H16S 2346   6.843   6.071   9.004 -1.7039 -0.0001  0.0309
   18SAPC  C217 2347   6.924   5.902   9.117 -0.0306  0.2635  0.0921
   18SAPC  H17R 2348   6.833   5.847   9.150  1.4513 -1.0931  2.2250
   18SAPC  H17S 2349   6.987   5.886   9.207 -1.5022 -1.3759  0.9081
   18SAPC  C218 2350   6.974   5.845   8.985  0.0647  0.1266  0.2459
   18SAPC  H18R 2351   6.900   5.867   8.904 -0.0476 -2.2616 -0.3788
   18SAPC  H18S 2352   6.981   5.735   8.998  0.0859  0.3987  3.2441
   18SAPC  C219 2353   7.117   5.896   8.931  0.7672  0.2717 -0.5025
   18SAPC  H19R 2354   7.175   5.906   9.026  1.1947 -0.6697 -0.6502
   18SAPC  H19S 2355   7.109   5.990   8.873  1.4081  0.5419 -0.1693
   18SAPC  C220 2356   7.184   5.792   8.841 -0.5923 -0.4722  0.1153
   18SAPC  H20R 2357   7.284   5.837   8.823 -0.5669 -0.8232 -0.6602
   18SAPC  H20S 2358   7.137   5.749   8.750 -1.5778  0.1526  0.3215
   18SAPC  H20T 2359   7.210   5.709   8.910 -1.9664 -0.7607  0.3122
   18SAPC   C33 2360   6.115   6.231  10.334  0.0553 -0.0120 -0.0324
   18SAPC   H3X 2361   6.134   6.147  10.405  0.5912 -0.6825 -0.9543
   18SAPC   H3Y 2362   6.219   6.244  10.297 -0.5360  0.2675 -1.6845
   18SAPC   C34 2363   6.029   6.160  10.233  0.3181 -0.5554 -0.3694
   18SAPC   H4X 2364   5.922   6.167  10.260  0.3825 -0.4780 -0.1313
   18SAPC   H4Y 2365   6.062   6.054  10.238 -1.6965 -1.2410 -0.7262
   18SAPC   C35 2366   6.034   6.210  10.095  1.1508  1.0845  0.1638
   18SAPC   H5X 2367   6.142   6.225  10.071  2.0154 -1.8867  1.6745
   18SAPC   H5Y 2368   5.972   6.302  10.084  1.0583  0.8912 -1.1052
   18SAPC   C36 2369   5.977   6.102  10.000 -0.4877  0.2497 -0.3917
   18SAPC   H6X 2370   5.896   6.038  10.042 -0.7853  0.8140 -0.0864
   18SAPC   H6Y 2371   6.059   6.034   9.970 -1.7821 -1.8225  0.5631
   18SAPC   C37 2372   5.912   6.175   9.882  0.8650 -0.0688  0.7603
   18SAPC   H7X 2373   5.980   6.248   9.833 -0.5471  0.6743 -0.1831
   18SAPC   H7Y 2374   5.826   6.237   9.918 -1.3117 -1.7168 -1.2693
   18SAPC   C38 2375   5.865   6.074   9.780  0.5516 -0.7477 -0.5649
   18SAPC   H8X 2376   5.792   6.014   9.838  1.6633 -2.0883 -0.5087
   18SAPC   H8Y 2377   5.952   6.013   9.748  0.2903 -0.8726 -1.0340
   18SAPC   C39 2378   5.798   6.131   9.661  0.5407  0.3046  0.4452
   18SAPC   H9X 2379   5.707   6.189   9.684 -1.2330 -0.8959 -2.9427
   18SAPC   H9Y 2380   5.779   6.045   9.594  1.3837 -0.0262  0.6118
   18SAPC  C310 2381   5.885   6.226   9.578 -0.5711  0.6209  0.0432
   18SAPC  H10X 2382   5.976   6.178   9.537 -0.7713  0.3761 -0.1207
   18SAPC  H10Y 2383   5.923   6.307   9.644  0.1038  1.5372 -1.4347
   18SAPC  C311 2384   5.801   6.313   9.483 -0.3534  0.2719 -0.4904
   18SAPC  H11X 2385   5.721   6.364   9.540  0.8573 -0.4241  1.9945
   18SAPC  H11Y 2386   5.752   6.247   9.408  0.2009 -0.7328  0.0149
   18SAPC  C312 2387   5.885   6.415   9.408 -0.1629 -0.1319 -0.3895
   18SAPC  H12X 2388   5.969   6.365   9.355  0.7298  0.3533  0.5305
   18SAPC  H12Y 2389   5.928   6.484   9.483 -1.4991  0.4945 -0.1627
   18SAPC  C313 2390   5.800   6.501   9.312  0.3621 -0.3428  1.3933
   18SAPC  H13X 2391   5.854   6.587   9.267 -0.7090  0.0669  0.8544
   18SAPC  H13Y 2392   5.715   6.540   9.372  0.8769  1.4228  1.0107
   18SAPC  C314 2393   5.727   6.422   9.202 -0.4133 -0.5132 -0.1183
   18SAPC  H14X 2394   5.664   6.334   9.225 -0.6644 -0.4032 -0.3713
   18SAPC  H14Y 2395   5.805   6.393   9.129  1.5920  0.5847  1.4839
   18SAPC  C315 2396   5.629   6.514   9.126 -0.7734 -0.1595  0.5113
   18SAPC  H15X 2397   5.695   6.585   9.071 -2.6116 -0.0985 -1.8004
   18SAPC  H15Y 2398   5.562   6.573   9.192 -1.7939 -0.1655 -0.4887
   18SAPC  C316 2399   5.541   6.438   9.025  0.3080  0.0121  0.9794
   18SAPC  H16X 2400   5.504   6.351   9.083 -1.0535 -1.1012 -1.4302
   18SAPC  H16Y 2401   5.608   6.392   8.949  0.2417 -0.7728  1.3878
   18SAPC  C317 2402   5.428   6.510   8.962  0.3864 -0.6145 -0.6597
   18SAPC  H17X 2403   5.451   6.579   8.879  2.8873  1.4120  1.5393
   18SAPC  H17Y 2404   5.378   6.570   9.040  0.3119 -1.2844 -0.1780
   18SAPC  C318 2405   5.311   6.427   8.925  0.2335  0.3145 -0.0604
   18SAPC  H18X 2406   5.252   6.374   9.003 -1.8426  1.8393 -0.4990
   18SAPC  H18Y 2407   5.337   6.364   8.837 -1.6295  1.0106 -1.1669
   18SAPC  H18Z 2408   5.233   6.495   8.884 -0.3789  0.4488  1.2866
   19SAPC     N 2409   6.295   0.883  10.859  0.3767  0.1509 -0.2358
   19SAPC   C12 2410   6.236   0.744  10.807 -0.0940  0.0179  0.2001
   19SAPC  H12A 2411   6.300   0.708  10.728  0.6231  1.0385  0.2908
   19SAPC  H12B 2412   6.145   0.767  10.753  0.3881 -0.6728 -0.9365
   19SAPC   C13 2413   6.297   0.983  10.743  0.1280 -0.3506  0.9260
   19SAPC  H13A 2414   6.201   0.990  10.694  0.1939 -0.3460  0.7971
   19SAPC  H13B 2415   6.331   1.081  10.771 -0.8657  0.2148  0.2186
   19SAPC  H13C 2416   6.359   0.951  10.661  0.5503 -3.7191  2.4046
   19SAPC   C14 2417   6.206   0.928  10.969 -0.3137 -0.2283  0.8698
   19SAPC  H14A 2418   6.228   1.026  11.010 -1.3586 -0.1452  1.2686
   19SAPC  H14B 2419   6.100   0.924  10.949 -0.2112  0.6903  0.0195
   19SAPC  H14C 2420   6.232   0.863  11.051  1.9662  0.2037  0.5655
   19SAPC   C15 2421   6.432   0.862  10.909 -0.0771 -0.2686  0.3058
   19SAPC  H15A 2422   6.497   0.815  10.836 -2.5440 -1.3637 -1.3199
   19SAPC  H15B 2423   6.481   0.959  10.912 -0.6741  0.2416 -2.6254
   19SAPC  H15C 2424   6.439   0.809  11.003 -1.2379  1.8395  1.6635
   19SAPC   C11 2425   6.220   0.626  10.906  0.2211  0.7322  0.0157
   19SAPC  H11A 2426   6.182   0.529  10.867  1.9059 -0.8432  2.0601
   19SAPC  H11B 2427   6.153   0.659  10.988  1.9869 -1.6423  2.5854
   19SAPC     P 2428   6.449   0.503  10.900 -0.3590 -0.1590  0.1931
   19SAPC   O13 2429   6.587   0.536  10.941  0.0171  0.6252 -0.0760
   19SAPC   O14 2430   6.407   0.361  10.914 -0.2270  0.1176 -0.6491
   19SAPC   O12 2431   6.340   0.600  10.971 -0.3804  0.3937 -0.3733
   19SAPC   O11 2432   6.422   0.528  10.749  0.1802 -0.3190 -0.7568
   19SAPC    C1 2433   6.538   0.559  10.670 -0.1848  0.8411 -0.1227
   19SAPC    HA 2434   6.582   0.657  10.695 -0.4734  1.0840 -0.5484
   19SAPC    HB 2435   6.609   0.474  10.677 -1.3535 -0.0733  1.2295
   19SAPC    C2 2436   6.499   0.576  10.519  0.6004  0.3425  0.8511
   19SAPC    HS 2437   6.591   0.570  10.456 -0.2335  2.3055 -0.6319
   19SAPC   O21 2438   6.426   0.698  10.491  0.2662  0.2662 -0.2079
   19SAPC   C21 2439   6.437   0.739  10.369  0.4799  0.3848 -0.2324
   19SAPC   O22 2440   6.511   0.697  10.280  0.2340 -0.3676  0.2606
   19SAPC   C22 2441   6.346   0.864  10.346  0.7672 -0.0136 -0.0833
   19SAPC   H2R 2442   6.299   0.888  10.444  3.7439 -0.1989  1.5141
   19SAPC   H2S 2443   6.417   0.944  10.319 -0.8989  0.8689 -2.1172
   19SAPC    C3 2444   6.410   0.447  10.489  0.9494 -1.0894 -0.4622
   19SAPC    HX 2445   6.315   0.466  10.542  0.4765 -2.0932 -0.9211
   19SAPC    HY 2446   6.459   0.357  10.530  1.7350  0.0627  1.2379
   19SAPC   O31 2447   6.385   0.434  10.352 -0.0695 -0.3035  0.9397
   19SAPC   C31 2448   6.472   0.399  10.264 -1.0276  0.3379 -0.0800
   19SAPC   O32 2449   6.594   0.379  10.277 -0.0441 -0.5006 -0.0735
   19SAPC   C32 2450   6.395   0.412  10.127 -0.7129 -0.2669  0.0251
   19SAPC   H2X 2451   6.353   0.514  10.136 -1.4679 -0.6674  1.3119
   19SAPC   H2Y 2452   6.301   0.354  10.136 -2.5314  2.4341 -0.5489
   19SAPC   C23 2453   6.248   0.851  10.229 -0.2945 -0.3236  0.0491
   19SAPC   H3R 2454   6.189   0.945  10.228  0.2638  0.0315 -0.0311
   19SAPC   H3S 2455   6.176   0.767  10.238  1.0945 -1.4993  0.6111
   19SAPC   C24 2456   6.299   0.835  10.080 -0.1466  0.3835 -0.9599
   19SAPC   H4R 2457   6.369   0.749  10.084  1.0515  1.3752  0.7198
   19SAPC   H4S 2458   6.364   0.923  10.061  2.1867 -1.0640 -0.1781
   19SAPC   C25 2459   6.184   0.829   9.983  0.1977 -0.1697  0.2730
   19SAPC   H5R 2460   6.085   0.831  10.029  1.4951  0.7189  3.3034
   19SAPC   C26 2461   6.178   0.858   9.848 -0.2514 -0.1359  0.3190
   19SAPC   H6R 2462   6.088   0.831   9.791 -0.3885  0.3355  0.3082
   19SAPC   C27 2463   6.305   0.892   9.761 -0.1770  0.1245 -0.3704
   19SAPC   H7R 2464   6.394   0.831   9.788 -0.4002 -0.7357 -1.5060
   19SAPC   H7S 2465   6.339   0.997   9.772 -0.7187  0.2228  0.4862
   19SAPC   C28 2466   6.285   0.835   9.627  0.9446 -0.2521 -0.5724
   19SAPC   H8R 2467   6.296   0.725   9.626 -2.7225 -0.7544  0.3878
   19SAPC   C29 2468   6.212   0.890   9.526  0.0564 -0.2501 -0.4387
   19SAPC   H9R 2469   6.196   0.823   9.441 -0.4010 -0.0691 -0.5000
   19SAPC  C210 2470   6.160   1.026   9.509 -0.2790 -0.3136  0.6588
   19SAPC  H10R 2471   6.228   1.079   9.440 -1.0424 -0.3766 -0.1537
   19SAPC  H10S 2472   6.167   1.082   9.605 -4.3388  0.1025  0.9011
   19SAPC  C211 2473   6.018   1.036   9.467 -0.6051 -0.0562 -0.2521
   19SAPC  H11R 2474   5.946   1.013   9.547 -2.3818  2.5818 -0.9633
   19SAPC  C212 2475   5.968   1.050   9.344  0.1729 -0.0535 -0.0829
   19SAPC  H12R 2476   5.860   1.072   9.342 -0.1227 -1.3111  1.0040
   19SAPC  C213 2477   6.050   1.068   9.212  0.2187  0.0688 -0.1892
   19SAPC  H13R 2478   6.147   1.019   9.234  0.7454  1.8151  1.6539
   19SAPC  H13S 2479   6.076   1.173   9.189 -0.4185 -0.1896 -2.3182
   19SAPC  C214 2480   5.976   1.016   9.092  0.3567 -0.2050 -0.4060
   19SAPC  H14R 2481   5.876   1.060   9.078 -0.4585 -1.3005  1.5270
   19SAPC  C215 2482   6.022   0.941   8.996  0.2442  0.1506 -0.3278
   19SAPC  H15R 2483   5.946   0.910   8.922 -3.6092  0.0422  3.2871
   19SAPC  C216 2484   6.167   0.899   8.981 -0.1429  0.2410 -0.1118
   19SAPC  H16R 2485   6.224   0.923   9.073  0.9099 -0.4207 -0.5761
   19SAPC  H16S 2486   6.209   0.939   8.886 -2.8442  0.3900 -1.3484
   19SAPC  C217 2487   6.169   0.749   8.986 -0.1569  0.0002 -0.2722
   19SAPC  H17R 2488   6.261   0.710   8.936  1.2117  0.0245  2.0489
   19SAPC  H17S 2489   6.090   0.716   8.916  0.2322  0.1202 -0.7747
   19SAPC  C218 2490   6.160   0.677   9.120  0.4160  0.0120  0.0146
   19SAPC  H18R 2491   6.062   0.708   9.161  0.4803  0.1853  0.0368
   19SAPC  H18S 2492   6.244   0.725   9.175 -0.7574 -0.9119  2.7849
   19SAPC  C219 2493   6.184   0.521   9.113  0.8141 -0.6691  0.3925
   19SAPC  H19R 2494   6.174   0.480   9.215 -0.0557  1.9281  1.4434
   19SAPC  H19S 2495   6.289   0.511   9.080  1.0614  2.2661  0.0232
   19SAPC  C220 2496   6.090   0.445   9.018  0.2914 -0.2448 -0.5361
   19SAPC  H20R 2497   6.046   0.504   8.936  0.3273 -1.6171 -1.5730
   19SAPC  H20S 2498   6.005   0.398   9.072  0.2320  2.3523  1.8462
   19SAPC  H20T 2499   6.151   0.368   8.966 -0.1765 -0.8268 -0.2344
   19SAPC   C33 2500   6.464   0.363   9.993 -0.3456  0.2086 -0.7171
   19SAPC   H3X 2501   6.470   0.253   9.989 -0.9180  0.1806 -0.8781
   19SAPC   H3Y 2502   6.565   0.410   9.985 -1.0189  2.2721  1.7152
   19SAPC   C34 2503   6.366   0.400   9.881 -0.6311  0.1424  0.1080
   19SAPC   H4X 2504   6.378   0.509   9.863  0.1396  0.1817  0.8081
   19SAPC   H4Y 2505   6.266   0.366   9.916  0.7569 -2.8653  1.5845
   19SAPC   C35 2506   6.395   0.348   9.740 -0.4613 -0.3296  0.0551
   19SAPC   H5X 2507   6.439   0.246   9.741  0.2688 -0.0226  0.0676
   19SAPC   H5Y 2508   6.474   0.412   9.695 -0.5898 -0.4431 -0.3373
   19SAPC   C36 2509   6.278   0.347   9.639 -0.1325  0.1825  0.2586
   19SAPC   H6X 2510   6.261   0.453   9.610  0.8471  0.9314  2.2470
   19SAPC   H6Y 2511   6.185   0.306   9.685 -0.9330  1.2911 -0.3343
   19SAPC   C37 2512   6.302   0.261   9.509  0.0486 -0.6424  0.6596
   19SAPC   H7X 2513   6.349   0.165   9.537  0.1785 -1.1105 -1.0957
   19SAPC   H7Y 2514   6.362   0.308   9.429 -0.2075 -2.3976 -0.6110
   19SAPC   C38 2515   6.162   0.222   9.443  0.0465  0.0246 -0.2640
   19SAPC   H8X 2516   6.117   0.315   9.402 -2.4681 -0.9980 -0.0180
   19SAPC   H8Y 2517   6.101   0.172   9.522  1.5889  0.0377  0.9790
   19SAPC   C39 2518   6.187   0.123   9.332 -0.2747 -0.5179  0.8156
   19SAPC   H9X 2519   6.090   0.085   9.295  0.2890  0.6752 -2.2123
   19SAPC   H9Y 2520   6.240   0.035   9.373  2.4750  0.8696  0.4788
   19SAPC  C310 2521   6.271   0.174   9.214  0.4403  0.4169  0.0621
   19SAPC  H10X 2522   6.374   0.168   9.256  0.0013 -2.8653  0.9534
   19SAPC  H10Y 2523   6.248   0.283   9.207  0.1748  0.2978 -1.2921
   19SAPC  C311 2524   6.250   0.095   9.085  0.2565 -0.5437 -0.1481
   19SAPC  H11X 2525   6.328   0.123   9.010 -0.3610  2.0478  0.0984
   19SAPC  H11Y 2526   6.161   0.123   9.024  1.2831 -0.2691 -1.5854
   19SAPC  C312 2527   6.249  -0.061   9.099  0.9357  0.0278 -0.2254
   19SAPC  H12X 2528   6.176  -0.087   9.178  1.1917 -1.6765 -0.5202
   19SAPC  H12Y 2529   6.349  -0.093   9.137  0.0379 -0.6594  1.6964
   19SAPC  C313 2530   6.201  -0.125   8.968 -0.8594  0.3751 -0.0180
   19SAPC  H13X 2531   6.280  -0.103   8.893 -1.5093  2.3522 -0.1927
   19SAPC  H13Y 2532   6.112  -0.072   8.928 -2.4959 -1.8474  0.4680
   19SAPC  C314 2533   6.171  -0.274   8.966  0.3596  0.9948 -0.8100
   19SAPC  H14X 2534   6.082  -0.286   9.031 -0.3925  1.1837 -1.7812
   19SAPC  H14Y 2535   6.254  -0.326   9.018 -1.7426 -1.1358  0.6691
   19SAPC  C315 2536   6.160  -0.329   8.829  0.4777  0.3392  0.3487
   19SAPC  H15X 2537   6.155  -0.440   8.832 -0.2250  0.3812  1.7215
   19SAPC  H15Y 2538   6.255  -0.307   8.777 -0.2218 -0.9779 -1.5945
   19SAPC  C316 2539   6.037  -0.285   8.739  0.4848 -1.3777 -0.4016
   19SAPC  H16X 2540   6.029  -0.176   8.759  3.3794 -1.1348 -0.0736
   19SAPC  H16Y 2541   5.952  -0.349   8.770  1.8042 -3.3605 -0.6558
   19SAPC  C317 2542   6.063  -0.294   8.593 -0.1085 -0.8934  0.0802
   19SAPC  H17X 2543   6.137  -0.375   8.576 -0.5794 -1.8429  2.2207
   19SAPC  H17Y 2544   6.118  -0.206   8.554  0.0193 -1.3096 -0.7072
   19SAPC  C318 2545   5.933  -0.294   8.519  0.0990  0.4051 -0.2916
   19SAPC  H18X 2546   5.941  -0.271   8.410  0.5963 -0.1365 -0.3712
   19SAPC  H18Y 2547   5.858  -0.225   8.563  0.7211  0.7667  0.2124
   19SAPC  H18Z 2548   5.887  -0.394   8.530  2.0158 -0.7226 -1.7972
   20SAPC     N 2549   6.136   3.371  11.505  0.0421 -0.2257 -0.0360
   20SAPC   C12 2550   6.020   3.414  11.421  0.4525 -0.0737  1.2031
   20SAPC  H12A 2551   6.002   3.519  11.440 -0.9946 -0.2458  0.9244
   20SAPC  H12B 2552   5.932   3.359  11.454  1.5826 -2.7004  0.1390
   20SAPC   C13 2553   6.109   3.421  11.645 -0.3656 -0.6908 -0.1392
   20SAPC  H13A 2554   6.103   3.529  11.654 -2.8694 -0.8153  0.4877
   20SAPC  H13B 2555   6.013   3.386  11.681 -0.0883 -0.4105  0.9132
   20SAPC  H13C 2556   6.187   3.390  11.714 -0.4654 -1.0467 -0.1862
   20SAPC   C14 2557   6.140   3.221  11.514 -0.7893  0.0238  0.2586
   20SAPC  H14A 2558   6.230   3.191  11.565  2.9653  2.2667 -4.2137
   20SAPC  H14B 2559   6.052   3.173  11.555  0.4583 -1.2013  1.6005
   20SAPC  H14C 2560   6.149   3.180  11.414 -2.1616 -0.5553  0.3569
   20SAPC   C15 2561   6.265   3.432  11.449  0.4853  0.1908 -0.1796
   20SAPC  H15A 2562   6.349   3.397  11.508 -0.0055 -0.2512  0.2690
   20SAPC  H15B 2563   6.277   3.404  11.346  0.6314  0.2930 -0.1901
   20SAPC  H15C 2564   6.272   3.539  11.464 -1.1825  0.4908 -1.3137
   20SAPC   C11 2565   6.011   3.391  11.258  0.2000 -0.2090 -0.2626
   20SAPC  H11A 2566   6.103   3.432  11.211  0.1420 -0.6863 -0.8084
   20SAPC  H11B 2567   5.926   3.449  11.217 -2.4467 -2.2805  1.8559
   20SAPC     P 2568   5.881   3.168  11.220  0.1388  0.5079  0.4031
   20SAPC   O13 2569   5.912   3.025  11.239  0.6855 -0.3187 -0.1548
   20SAPC   O14 2570   5.774   3.212  11.314 -0.4809 -0.0786 -0.6814
   20SAPC   O12 2571   6.015   3.252  11.238  0.7084  0.2689  0.1066
   20SAPC   O11 2572   5.823   3.195  11.077  0.2649  0.2102 -0.0994
   20SAPC    C1 2573   5.898   3.181  10.958 -0.4497 -0.1321  0.9509
   20SAPC    HA 2574   5.996   3.136  10.984 -0.1649 -0.8777 -1.2121
   20SAPC    HB 2575   5.850   3.103  10.896  0.1584  0.6900 -0.6199
   20SAPC    C2 2576   5.920   3.315  10.880 -0.3453  0.0376  0.2318
   20SAPC    HS 2577   5.953   3.393  10.952  2.0315 -1.5952  1.0330
   20SAPC   O21 2578   5.792   3.351  10.823 -0.4790  0.3000 -0.2232
   20SAPC   C21 2579   5.748   3.472  10.816 -0.4561 -0.1055 -0.4412
   20SAPC   O22 2580   5.791   3.565  10.880 -0.7648 -0.4327  0.3431
   20SAPC   C22 2581   5.646   3.486  10.709  0.0655 -0.8847 -0.1826
   20SAPC   H2R 2582   5.567   3.409  10.723  0.1398 -1.0090 -0.4549
   20SAPC   H2S 2583   5.610   3.590  10.720 -0.4793 -1.0222 -0.6405
   20SAPC    C3 2584   6.029   3.299  10.775 -0.5693 -0.1830 -0.0215
   20SAPC    HX 2585   6.001   3.218  10.704  0.3899 -1.8829  1.4579
   20SAPC    HY 2586   6.127   3.266  10.816 -0.7469  1.1400  1.5591
   20SAPC   O31 2587   6.057   3.428  10.708  0.3720  0.4179 -0.3031
   20SAPC   C31 2588   6.126   3.519  10.781 -0.5750  0.2150  0.8230
   20SAPC   O32 2589   6.194   3.497  10.883 -0.3930 -0.2172 -0.2341
   20SAPC   C32 2590   6.101   3.652  10.716 -0.1448 -0.2423 -0.1789
   20SAPC   H2X 2591   6.016   3.696  10.772 -0.5720  0.5509 -1.4147
   20SAPC   H2Y 2592   6.065   3.646  10.612 -0.0092  0.9616 -0.3099
   20SAPC   C23 2593   5.694   3.487  10.558  0.4057  0.2791 -0.4485
   20SAPC   H3R 2594   5.600   3.499  10.501 -0.0077  1.2954  0.4315
   20SAPC   H3S 2595   5.744   3.389  10.540 -0.7846 -0.4259 -0.0237
   20SAPC   C24 2596   5.783   3.601  10.529  0.0862 -0.6936  0.5599
   20SAPC   H4R 2597   5.870   3.604  10.599  1.7962 -0.9587 -1.4416
   20SAPC   H4S 2598   5.729   3.698  10.535 -0.8242 -1.0870 -0.8970
   20SAPC   C25 2599   5.854   3.597  10.394 -0.0850  0.1577  0.5504
   20SAPC   H5R 2600   5.963   3.582  10.398 -0.0704  0.2204  0.3844
   20SAPC   C26 2601   5.805   3.620  10.271  0.5536  0.8516 -1.1057
   20SAPC   H6R 2602   5.872   3.611  10.184  0.9667 -1.3284 -0.6293
   20SAPC   C27 2603   5.669   3.651  10.242  0.7284 -0.5044 -0.2329
   20SAPC   H7R 2604   5.662   3.751  10.195 -0.2757 -1.0068 -1.1989
   20SAPC   H7S 2605   5.596   3.656  10.325  0.7712 -1.9662 -0.0717
   20SAPC   C28 2606   5.613   3.539  10.157 -0.1271 -0.0301 -0.2024
   20SAPC   H8R 2607   5.577   3.453  10.216 -3.4325 -0.2976 -2.3165
   20SAPC   C29 2608   5.628   3.515  10.023  0.9186  0.0018 -0.5693
   20SAPC   H9R 2609   5.581   3.420   9.994 -1.0172 -0.7301  3.9762
   20SAPC  C210 2610   5.693   3.609   9.929 -0.5912 -0.7776 -0.0905
   20SAPC  H10R 2611   5.783   3.564   9.881  0.0887  1.2881 -0.8897
   20SAPC  H10S 2612   5.726   3.691   9.997 -1.1668 -0.8099  0.2368
   20SAPC  C211 2613   5.595   3.667   9.833 -0.0072 -0.2073  0.1677
   20SAPC  H11R 2614   5.511   3.731   9.865  1.1816  0.7319  1.5239
   20SAPC  C212 2615   5.584   3.633   9.705 -0.8144 -0.6170  0.5189
   20SAPC  H12R 2616   5.512   3.690   9.643  1.3895  0.6937 -0.9526
   20SAPC  C213 2617   5.662   3.537   9.625  0.3996  0.0226 -0.1336
   20SAPC  H13R 2618   5.597   3.458   9.582  2.2317 -1.9382  0.4533
   20SAPC  H13S 2619   5.728   3.475   9.691 -0.6536 -0.7223  0.2449
   20SAPC  C214 2620   5.741   3.615   9.522 -0.4181  0.0443 -0.0745
   20SAPC  H14R 2621   5.848   3.632   9.544 -0.4563 -0.4201  0.4889
   20SAPC  C215 2622   5.695   3.679   9.412  0.3518 -0.0057 -0.2062
   20SAPC  H15R 2623   5.760   3.740   9.347  1.4589  1.3291  2.0156
   20SAPC  C216 2624   5.553   3.676   9.372 -0.0800 -0.1683 -0.1144
   20SAPC  H16R 2625   5.500   3.768   9.404  0.9712  0.0160  1.1601
   20SAPC  H16S 2626   5.507   3.583   9.412  0.6493 -1.1259 -1.4076
   20SAPC  C217 2627   5.522   3.642   9.223 -0.8847  0.2242 -0.4079
   20SAPC  H17R 2628   5.578   3.716   9.162  2.3837 -1.6220  0.1475
   20SAPC  H17S 2629   5.416   3.661   9.195 -0.5862 -0.2387 -1.9634
   20SAPC  C218 2630   5.571   3.499   9.181  0.0188 -0.6754 -0.2099
   20SAPC  H18R 2631   5.483   3.443   9.221 -0.6552  0.2563 -0.3398
   20SAPC  H18S 2632   5.671   3.484   9.226  0.8313 -0.9202 -2.0300
   20SAPC  C219 2633   5.583   3.472   9.037  0.2362  0.6167 -0.5298
   20SAPC  H19R 2634   5.626   3.371   9.022  1.3416  1.1350 -1.0328
   20SAPC  H19S 2635   5.655   3.535   8.979 -1.1197  4.2297  1.3872
   20SAPC  C220 2636   5.450   3.477   8.959  0.6716  0.4915 -0.2010
   20SAPC  H20R 2637   5.462   3.444   8.853 -3.2158 -0.2362 -0.5607
   20SAPC  H20S 2638   5.398   3.575   8.961  1.5938  0.9777  1.0716
   20SAPC  H20T 2639   5.371   3.410   8.999 -1.3917 -1.0665 -5.8367
   20SAPC   C33 2640   6.231   3.735  10.725  0.7154 -0.5192 -0.6356
   20SAPC   H3X 2641   6.258   3.759  10.831 -0.5416 -0.7896 -0.2482
   20SAPC   H3Y 2642   6.212   3.833  10.676 -2.6422 -0.2616  0.8954
   20SAPC   C34 2643   6.354   3.670  10.656  0.0901 -0.3875  0.2423
   20SAPC   H4X 2644   6.396   3.585  10.713  1.7890 -0.4029 -0.9514
   20SAPC   H4Y 2645   6.441   3.740  10.657  2.1610 -2.7731 -1.2136
   20SAPC   C35 2646   6.322   3.628  10.512 -0.2412  0.1483 -0.1205
   20SAPC   H5X 2647   6.257   3.540  10.529 -0.6089  0.5282  0.4914
   20SAPC   H5Y 2648   6.418   3.592  10.468 -0.0070  3.2790 -2.5445
   20SAPC   C36 2649   6.258   3.729  10.423 -0.2777 -0.3568  0.7597
   20SAPC   H6X 2650   6.330   3.812  10.404 -1.3670  0.1886 -1.2216
   20SAPC   H6Y 2651   6.163   3.772  10.461 -0.3997 -0.0319  0.1111
   20SAPC   C37 2652   6.227   3.674  10.284 -0.3037  0.5618  0.3864
   20SAPC   H7X 2653   6.148   3.597  10.293 -0.2585  0.2894 -1.2332
   20SAPC   H7Y 2654   6.320   3.629  10.243 -1.1589 -0.8267 -0.0800
   20SAPC   C38 2655   6.194   3.787  10.191  0.6091 -0.2575 -0.8048
   20SAPC   H8X 2656   6.282   3.850  10.166  1.5222 -0.9284  0.6321
   20SAPC   H8Y 2657   6.125   3.857  10.242  0.1743  0.1364 -1.8924
   20SAPC   C39 2658   6.134   3.754  10.050  0.7817 -0.7307 -0.1659
   20SAPC   H9X 2659   6.145   3.853  10.001  0.8793  0.3792  2.0090
   20SAPC   H9Y 2660   6.030   3.721  10.069  1.2337 -1.2371  1.6075
   20SAPC  C310 2661   6.216   3.654   9.966  0.0519  0.9452 -0.2515
   20SAPC  H10X 2662   6.218   3.551  10.010 -2.0984  1.5659  1.5068
   20SAPC  H10Y 2663   6.318   3.696   9.961 -0.1529  1.3777 -0.7860
   20SAPC  C311 2664   6.150   3.645   9.829 -1.0674  0.0684 -1.6371
   20SAPC  H11X 2665   6.145   3.749   9.790 -2.1087 -0.4652 -3.0195
   20SAPC  H11Y 2666   6.044   3.617   9.848 -0.2205 -2.8048 -0.6188
   20SAPC  C312 2667   6.210   3.557   9.728 -0.0419 -0.2395 -0.3268
   20SAPC  H12X 2668   6.197   3.452   9.764 -2.2791  0.5502  1.3733
   20SAPC  H12Y 2669   6.319   3.580   9.726 -0.0571  0.4652  2.7239
   20SAPC  C313 2670   6.151   3.563   9.585 -0.3792  0.2344 -0.5046
   20SAPC  H13X 2671   6.042   3.539   9.585 -0.4274  0.3513 -1.8525
   20SAPC  H13Y 2672   6.200   3.492   9.514 -2.2198  0.4460 -2.0697
   20SAPC  C314 2673   6.163   3.701   9.511  0.2821 -0.2733  0.2023
   20SAPC  H14X 2674   6.264   3.744   9.523  2.0699 -4.5236  3.4371
   20SAPC  H14Y 2675   6.097   3.770   9.568 -0.9273 -1.5827  0.4789
   20SAPC  C315 2676   6.107   3.699   9.364 -0.2480 -1.0402 -0.1299
   20SAPC  H15X 2677   6.007   3.650   9.363 -0.1567 -1.2804  1.4245
   20SAPC  H15Y 2678   6.181   3.640   9.306 -0.0435  0.2276 -1.2064
   20SAPC  C316 2679   6.092   3.830   9.285  0.2922  0.5821 -0.2420
   20SAPC  H16X 2680   6.184   3.891   9.288  0.1908  0.9346 -2.8090
   20SAPC  H16Y 2681   6.017   3.900   9.328 -1.6562 -1.1482 -0.6471
   20SAPC  C317 2682   6.061   3.809   9.136 -0.0328  0.7193 -0.5459
   20SAPC  H17X 2683   5.994   3.723   9.118  0.4527  0.3361 -0.5489
   20SAPC  H17Y 2684   6.156   3.764   9.099 -0.7999  0.7449 -2.6481
   20SAPC  C318 2685   6.015   3.928   9.053 -0.2234 -0.9157  0.3296
   20SAPC  H18X 2686   5.972   3.906   8.953  0.1063  0.9349 -0.2548
   20SAPC  H18Y 2687   6.097   3.997   9.025 -0.8586  0.5136  1.8285
   20SAPC  H18Z 2688   5.940   3.995   9.100  1.1973  0.9413  0.0571
   21SAPC     N 2689   6.574   2.937  11.418 -0.3925  0.2730  0.7105
   21SAPC   C12 2690   6.695   2.960  11.321 -0.5720  0.1175 -0.9531
   21SAPC  H12A 2691   6.747   2.871  11.288  0.0299  0.2280 -0.3172
   21SAPC  H12B 2692   6.777   3.000  11.377  1.2654 -1.8818 -2.0785
   21SAPC   C13 2693   6.564   3.060  11.508  0.5169  0.1918  0.0990
   21SAPC  H13A 2694   6.476   3.046  11.570  0.0883 -3.0227 -1.0224
   21SAPC  H13B 2695   6.651   3.060  11.571  0.7166  1.6600 -0.1343
   21SAPC  H13C 2696   6.569   3.151  11.449  0.8596 -0.0031 -0.1762
   21SAPC   C14 2697   6.445   2.923  11.339 -0.5602  0.3708  0.2613
   21SAPC  H14A 2698   6.430   3.008  11.273 -2.4235 -0.3185 -0.2718
   21SAPC  H14B 2699   6.441   2.838  11.272  0.1320  1.3363 -1.0598
   21SAPC  H14C 2700   6.359   2.925  11.404 -0.1814 -0.3944  0.8042
   21SAPC   C15 2701   6.596   2.816  11.498 -0.5466 -0.4588 -0.1972
   21SAPC  H15A 2702   6.516   2.800  11.569 -1.3273 -2.0607 -1.3955
   21SAPC  H15B 2703   6.607   2.733  11.431  3.9387 -1.0243  0.8849
   21SAPC  H15C 2704   6.685   2.816  11.561  1.1321  1.2082 -2.4060
   21SAPC   C11 2705   6.666   3.052  11.202 -0.4276  0.0145 -0.3345
   21SAPC  H11A 2706   6.635   3.147  11.251  3.1910  1.0732  0.1327
   21SAPC  H11B 2707   6.589   3.013  11.131  2.2921 -1.2989 -2.7829
   21SAPC     P 2708   6.883   3.185  11.148  0.3124  0.0817  0.1715
   21SAPC   O13 2709   6.836   3.260  11.267  0.0149  0.1533 -0.0315
   21SAPC   O14 2710   7.013   3.129  11.152 -0.9391 -0.3384 -0.4389
   21SAPC   O12 2711   6.786   3.066  11.126 -0.0299 -0.1166 -0.2538
   21SAPC   O11 2712   6.864   3.267  11.016  0.3081  0.1798 -0.6363
   21SAPC    C1 2713   6.739   3.327  10.979  0.4880  0.0924 -0.0876
   21SAPC    HA 2714   6.653   3.293  11.040  0.1592 -1.1589 -1.2024
   21SAPC    HB 2715   6.737   3.436  10.998 -2.1571 -0.3701  3.2024
   21SAPC    C2 2716   6.700   3.299  10.831  0.4753  0.0984 -1.0799
   21SAPC    HS 2717   6.691   3.191  10.808  1.6738 -0.0219 -0.9948
   21SAPC   O21 2718   6.792   3.351  10.739 -0.1158  0.3827  0.1878
   21SAPC   C21 2719   6.891   3.272  10.705 -0.3145  0.1682 -0.5705
   21SAPC   O22 2720   6.903   3.155  10.743 -0.3386  0.0452 -0.5826
   21SAPC   C22 2721   6.990   3.342  10.609 -0.2777  0.9246  1.2564
   21SAPC   H2R 2722   6.921   3.395  10.540  0.4863 -1.4798 -1.5449
   21SAPC   H2S 2723   7.062   3.397  10.672 -0.5054  1.0042  1.4481
   21SAPC    C3 2724   6.566   3.369  10.799 -0.0531  0.4918 -0.9571
   21SAPC    HX 2725   6.585   3.478  10.806  0.0993  0.3943  0.4340
   21SAPC    HY 2726   6.498   3.346  10.884  0.7376  4.4441  0.9789
   21SAPC   O31 2727   6.516   3.332  10.663 -0.3473 -0.2960  0.0894
   21SAPC   C31 2728   6.426   3.234  10.652 -1.0111 -0.1687  0.8819
   21SAPC   O32 2729   6.390   3.160  10.734  0.2062 -0.2300 -0.1312
   21SAPC   C32 2730   6.372   3.225  10.510 -0.5448  0.1830  0.3841
   21SAPC   H2X 2731   6.352   3.324  10.465 -0.1244 -0.6625 -1.8116
   21SAPC   H2Y 2732   6.268   3.185  10.520 -0.6292  0.6817  1.6474
   21SAPC   C23 2733   7.065   3.232  10.519  0.1928 -0.3255 -0.0686
   21SAPC   H3R 2734   7.007   3.195  10.432 -1.9763  0.0834  1.1181
   21SAPC   H3S 2735   7.092   3.141  10.576 -2.2350 -2.7866 -2.5303
   21SAPC   C24 2736   7.203   3.282  10.477  0.4611 -0.8112 -0.1473
   21SAPC   H4R 2737   7.252   3.195  10.429  0.5123 -0.6272 -0.4264
   21SAPC   H4S 2738   7.267   3.301  10.566  0.3269 -1.2004  0.0363
   21SAPC   C25 2739   7.192   3.397  10.385  0.4386  0.1943  0.2633
   21SAPC   H5R 2740   7.138   3.483  10.427  1.6020  0.7175  0.7347
   21SAPC   C26 2741   7.232   3.399  10.251  0.3359 -0.7564 -0.0472
   21SAPC   H6R 2742   7.199   3.484  10.189 -0.5630 -0.6641  0.5445
   21SAPC   C27 2743   7.289   3.286  10.173  0.2614  0.2052  0.0977
   21SAPC   H7R 2744   7.205   3.222  10.140  0.5269 -0.0233 -0.1402
   21SAPC   H7S 2745   7.342   3.222  10.247 -1.2131 -1.1300  0.0507
   21SAPC   C28 2746   7.384   3.324  10.066  0.0366  0.2546 -0.6897
   21SAPC   H8R 2747   7.489   3.341  10.095 -0.6577  0.8313  1.6972
   21SAPC   C29 2748   7.344   3.339   9.935  0.4269 -0.9017  0.0322
   21SAPC   H9R 2749   7.428   3.357   9.867 -0.5101 -0.7908 -1.1379
   21SAPC  C210 2750   7.204   3.331   9.876  0.4344  0.6331  0.6604
   21SAPC  H10R 2751   7.120   3.305   9.943 -0.4090 -2.6613 -1.4385
   21SAPC  H10S 2752   7.190   3.247   9.804 -0.3389  0.4568  1.0104
   21SAPC  C211 2753   7.172   3.459   9.804 -0.0505 -0.4598  0.0409
   21SAPC  H11R 2754   7.158   3.545   9.870  0.5177 -0.5084  0.2318
   21SAPC  C212 2755   7.156   3.482   9.675 -0.6249 -0.7477  0.5821
   21SAPC  H12R 2756   7.127   3.583   9.645 -1.8416 -0.6789  1.9209
   21SAPC  C213 2757   7.169   3.384   9.558  0.5760 -0.4331  0.2603
   21SAPC  H13R 2758   7.136   3.282   9.589 -0.5240 -0.9933 -2.4385
   21SAPC  H13S 2759   7.280   3.378   9.548  0.6026  0.1378  0.1811
   21SAPC  C214 2760   7.114   3.420   9.423 -0.7709 -0.6535 -0.8373
   21SAPC  H14R 2761   7.031   3.492   9.418  1.3737  2.0140 -0.2084
   21SAPC  C215 2762   7.157   3.371   9.310  0.3534 -0.2116 -0.2919
   21SAPC  H15R 2763   7.118   3.408   9.214  0.6826 -1.1596 -0.8002
   21SAPC  C216 2764   7.268   3.275   9.298  0.7292  0.0429 -0.2934
   21SAPC  H16R 2765   7.256   3.197   9.376 -0.4190 -0.5447 -1.0172
   21SAPC  H16S 2766   7.367   3.323   9.314  2.0002 -2.4397 -0.2312
   21SAPC  C217 2767   7.260   3.210   9.156  0.1911  0.0882 -0.2833
   21SAPC  H17R 2768   7.157   3.174   9.134  0.5506  0.1770 -2.2661
   21SAPC  H17S 2769   7.313   3.113   9.156 -1.4419 -0.8679 -2.0791
   21SAPC  C218 2770   7.310   3.299   9.042  0.6248  0.1123  0.4429
   21SAPC  H18R 2771   7.419   3.309   9.057  0.3347 -0.0348  3.2158
   21SAPC  H18S 2772   7.268   3.402   9.048 -1.7639 -0.7992  0.6489
   21SAPC  C219 2773   7.299   3.227   8.900  0.0187 -0.4390  0.3708
   21SAPC  H19R 2774   7.193   3.215   8.871 -0.2296 -0.3574  1.2301
   21SAPC  H19S 2775   7.353   3.131   8.919  1.4906  0.0852 -0.9363
   21SAPC  C220 2776   7.348   3.324   8.793 -0.5735  0.3889  0.1260
   21SAPC  H20R 2777   7.457   3.345   8.794 -1.1456  3.8490  0.3452
   21SAPC  H20S 2778   7.293   3.420   8.806  1.1992  1.5754 -0.6451
   21SAPC  H20T 2779   7.329   3.281   8.692 -1.6988 -0.1970  0.5732
   21SAPC   C33 2780   6.445   3.141  10.407  0.2038 -0.1260 -0.0196
   21SAPC   H3X 2781   6.429   3.032  10.424 -0.9531  0.1336  0.6662
   21SAPC   H3Y 2782   6.552   3.170  10.406 -0.3103  1.8897 -0.3259
   21SAPC   C34 2783   6.393   3.165  10.265  0.5881 -0.2937  0.2551
   21SAPC   H4X 2784   6.392   3.276  10.260  0.5682 -0.2530  0.9797
   21SAPC   H4Y 2785   6.286   3.136  10.258  0.1376  0.6564  2.3536
   21SAPC   C35 2786   6.477   3.089  10.170 -0.1957  0.3660 -0.0325
   21SAPC   H5X 2787   6.490   2.987  10.212  2.0872  0.7043  0.1976
   21SAPC   H5Y 2788   6.580   3.131  10.171 -0.1517  0.5710 -3.3720
   21SAPC   C36 2789   6.427   3.097  10.020 -0.4567  0.6988  0.3613
   21SAPC   H6X 2790   6.328   3.051  10.039  0.0604 -0.7722 -0.3824
   21SAPC   H6Y 2791   6.480   3.021   9.959  1.7746  1.4223  1.2930
   21SAPC   C37 2792   6.444   3.237   9.960  0.1049  0.5654  0.7803
   21SAPC   H7X 2793   6.549   3.273   9.970  0.3993  0.0624 -0.3716
   21SAPC   H7Y 2794   6.390   3.312  10.022 -1.7042 -0.4678  0.5196
   21SAPC   C38 2795   6.393   3.255   9.812  0.4526  0.5911  0.4089
   21SAPC   H8X 2796   6.407   3.364   9.793 -0.4912  0.6570  0.0536
   21SAPC   H8Y 2797   6.286   3.248   9.785  1.3126 -0.3393 -3.2022
   21SAPC   C39 2798   6.483   3.191   9.702  0.9347 -0.0251 -0.6960
   21SAPC   H9X 2799   6.490   3.082   9.722  0.5208  0.1448  0.4549
   21SAPC   H9Y 2800   6.573   3.254   9.717  1.0677  0.0610 -1.7949
   21SAPC  C310 2801   6.425   3.207   9.567  0.7685 -0.0921 -0.5643
   21SAPC  H10X 2802   6.449   3.313   9.545 -2.0824  1.5375  3.1085
   21SAPC  H10Y 2803   6.315   3.196   9.573  0.9376 -1.9276 -0.0542
   21SAPC  C311 2804   6.487   3.114   9.468  0.0889 -0.0695 -0.6589
   21SAPC  H11X 2805   6.509   3.015   9.512  0.2319  0.3421  0.2261
   21SAPC  H11Y 2806   6.584   3.153   9.432  1.3019 -0.7724  1.6325
   21SAPC  C312 2807   6.390   3.092   9.347 -0.0533  0.0870 -0.1896
   21SAPC  H12X 2808   6.381   3.190   9.296  2.3505  0.4758 -0.0097
   21SAPC  H12Y 2809   6.292   3.063   9.391  0.2862  0.4964  0.8652
   21SAPC  C313 2810   6.418   2.985   9.236  0.0110  0.4736  0.2863
   21SAPC  H13X 2811   6.329   2.930   9.202  1.0883 -0.8139 -0.5230
   21SAPC  H13Y 2812   6.485   2.906   9.277 -0.9871 -0.6306 -0.1705
   21SAPC  C314 2813   6.468   3.059   9.111  0.6150 -0.2630  0.0847
   21SAPC  H14X 2814   6.532   2.998   9.043 -0.8978 -1.7996 -0.0435
   21SAPC  H14Y 2815   6.533   3.145   9.138  1.2433 -0.5394 -0.5068
   21SAPC  C315 2816   6.356   3.110   9.026  0.3881  0.0255  0.3224
   21SAPC  H15X 2817   6.296   3.174   9.094  1.1831  0.2598  0.8136
   21SAPC  H15Y 2818   6.281   3.036   8.990 -1.6276  0.7880  2.6778
   21SAPC  C316 2819   6.398   3.194   8.893  0.3848  0.7716  0.4310
   21SAPC  H16X 2820   6.300   3.214   8.845 -0.4014 -2.6368  0.4073
   21SAPC  H16Y 2821   6.468   3.132   8.834  1.7026  2.6535 -0.0964
   21SAPC  C317 2822   6.472   3.330   8.932  0.3392 -0.3457  0.8962
   21SAPC  H17X 2823   6.485   3.386   8.837 -0.9326 -1.0988  0.2425
   21SAPC  H17Y 2824   6.574   3.320   8.974  1.7225  3.3532 -1.1153
   21SAPC  C318 2825   6.390   3.425   9.023  0.0998 -0.5993 -0.3456
   21SAPC  H18X 2826   6.281   3.409   9.006 -0.0253 -1.3331  1.0001
   21SAPC  H18Y 2827   6.422   3.530   9.009  0.0432 -0.7611 -1.8189
   21SAPC  H18Z 2828   6.417   3.383   9.122 -0.1331 -2.2403 -0.9451
   22SAPC     N 2829   4.759   0.195  11.066  0.0893 -0.5797 -0.3606
   22SAPC   C12 2830   4.853   0.240  10.953 -0.1144  0.1412 -0.0912
   22SAPC  H12A 2831   4.815   0.192  10.864 -0.0371 -3.6085  1.7078
   22SAPC  H12B 2832   4.944   0.185  10.971  0.9582  1.5062 -1.1425
   22SAPC   C13 2833   4.831   0.222  11.195  0.1718 -0.1291 -0.0040
   22SAPC  H13A 2834   4.842   0.330  11.198 -1.1345  0.1657 -2.6597
   22SAPC  H13B 2835   4.778   0.179  11.278  0.6590 -1.3914 -0.3261
   22SAPC  H13C 2836   4.935   0.193  11.187  0.9147  2.2466  0.1934
   22SAPC   C14 2837   4.623   0.265  11.058  0.8595 -0.0170  1.1206
   22SAPC  H14A 2838   4.621   0.373  11.066 -1.7178 -0.1345  4.7424
   22SAPC  H14B 2839   4.566   0.240  10.970  2.7799  0.8447 -0.4498
   22SAPC  H14C 2840   4.565   0.227  11.141 -0.5947 -0.0087  0.1296
   22SAPC   C15 2841   4.737   0.044  11.058  0.1135 -0.1448 -0.3726
   22SAPC  H15A 2842   4.836   0.005  11.078 -0.1646  0.4831  2.7203
   22SAPC  H15B 2843   4.669   0.007  11.134 -0.2094 -1.6866 -1.3637
   22SAPC  H15C 2844   4.698   0.014  10.962  0.8911  0.9779 -1.0591
   22SAPC   C11 2845   4.878   0.392  10.928 -0.2382 -0.1978  0.1758
   22SAPC  H11A 2846   4.778   0.440  10.916 -0.2102  0.0320  0.8216
   22SAPC  H11B 2847   4.918   0.410  10.826  0.7858 -1.1762  0.3843
   22SAPC     P 2848   5.112   0.408  11.057 -0.3051  0.1629 -0.0977
   22SAPC   O13 2849   5.153   0.468  11.182 -0.2605 -1.1748 -0.5618
   22SAPC   O14 2850   5.123   0.259  11.073  0.3022 -0.0826 -0.7946
   22SAPC   O12 2851   4.964   0.456  11.030 -0.3779  1.0303 -0.2212
   22SAPC   O11 2852   5.185   0.442  10.928 -0.2011  0.2608  0.7658
   22SAPC    C1 2853   5.236   0.575  10.914 -0.6147  0.4763  0.4589
   22SAPC    HA 2854   5.294   0.610  11.003  0.0955 -0.0572  0.2183
   22SAPC    HB 2855   5.313   0.583  10.834  0.1284  1.5775  1.2524
   22SAPC    C2 2856   5.129   0.673  10.868 -0.1855 -0.4776  0.1479
   22SAPC    HS 2857   5.056   0.703  10.947 -0.9577  0.1226 -0.7662
   22SAPC   O21 2858   5.066   0.629  10.744  0.3310 -0.2816  0.2747
   22SAPC   C21 2859   4.958   0.678  10.707  0.5833  0.4278 -0.3699
   22SAPC   O22 2860   4.879   0.744  10.781 -0.3262  0.2376 -0.3243
   22SAPC   C22 2861   4.936   0.639  10.563  0.7754 -0.0492  0.2722
   22SAPC   H2R 2862   5.032   0.643  10.508 -0.5071 -1.5038 -2.2242
   22SAPC   H2S 2863   4.913   0.531  10.569 -0.1801  0.1102 -0.3140
   22SAPC    C3 2864   5.200   0.808  10.842  0.4214  0.2678  0.5900
   22SAPC    HX 2865   5.254   0.821  10.938  1.1610 -0.7152  0.3207
   22SAPC    HY 2866   5.126   0.890  10.831 -0.7212 -0.9419 -1.3188
   22SAPC   O31 2867   5.301   0.805  10.732  0.7112 -0.1811  0.3675
   22SAPC   C31 2868   5.257   0.838  10.614 -0.3751  1.1177  0.1529
   22SAPC   O32 2869   5.145   0.865  10.582  0.6394 -0.6591 -0.4901
   22SAPC   C32 2870   5.371   0.832  10.513 -0.1724 -0.1548 -0.4004
   22SAPC   H2X 2871   5.349   0.754  10.437  0.3003 -2.4679  1.7308
   22SAPC   H2Y 2872   5.464   0.790  10.555  0.4425  1.2066 -0.3224
   22SAPC   C23 2873   4.821   0.725  10.490  0.6450  1.3975  0.9939
   22SAPC   H3R 2874   4.864   0.826  10.471  1.9075  0.6446 -0.4032
   22SAPC   H3S 2875   4.743   0.758  10.561  0.1522  1.0448  0.6193
   22SAPC   C24 2876   4.767   0.672  10.361  0.4310  0.2819  0.1927
   22SAPC   H4R 2877   4.685   0.731  10.314 -0.0821 -1.4121 -1.1280
   22SAPC   H4S 2878   4.711   0.577  10.373 -1.8531  1.5442  0.0301
   22SAPC   C25 2879   4.872   0.652  10.256  0.1770 -0.8916 -0.0674
   22SAPC   H5R 2880   4.941   0.568  10.276  1.1392 -0.0687  0.1844
   22SAPC   C26 2881   4.896   0.719  10.143  0.3255 -0.2422 -0.0607
   22SAPC   H6R 2882   4.983   0.686  10.084  1.0052  1.6729 -0.2137
   22SAPC   C27 2883   4.831   0.838  10.088 -0.1236  0.2736  0.0367
   22SAPC   H7R 2884   4.756   0.884  10.156  0.4714  1.5948 -0.1764
   22SAPC   H7S 2885   4.768   0.793  10.008 -1.5264  0.8336  0.7788
   22SAPC   C28 2886   4.920   0.950  10.032 -0.1281 -0.2531  0.0894
   22SAPC   H8R 2887   4.944   1.029  10.105 -0.3932  0.4646 -0.5930
   22SAPC   C29 2888   4.948   0.974   9.903 -0.2874  0.4237  0.1709
   22SAPC   H9R 2889   5.017   1.060   9.894  1.4358 -0.7000  1.8356
   22SAPC  C210 2890   4.914   0.887   9.782  0.5149 -0.5419 -0.6297
   22SAPC  H10R 2891   4.907   0.779   9.805 -2.3195 -0.5727 -1.1960
   22SAPC  H10S 2892   4.994   0.900   9.705 -0.3360  1.4807 -1.2527
   22SAPC  C211 2893   4.770   0.922   9.727 -0.9677 -0.7727  0.0953
   22SAPC  H11R 2894   4.696   0.944   9.806  0.1342  0.8845  0.7406
   22SAPC  C212 2895   4.744   0.945   9.599 -0.0813  0.3883  0.3818
   22SAPC  H12R 2896   4.638   0.959   9.574 -0.2827 -1.4231  0.0911
   22SAPC  C213 2897   4.839   0.935   9.485  0.2023  0.0085 -0.0605
   22SAPC  H13R 2898   4.941   0.914   9.522  0.6634 -0.0502 -1.3196
   22SAPC  H13S 2899   4.848   1.032   9.431 -1.3302  0.1723 -0.0949
   22SAPC  C214 2900   4.802   0.815   9.390 -0.2824 -0.6187 -0.4229
   22SAPC  H14R 2901   4.811   0.713   9.432 -1.3447 -0.2734  0.7037
   22SAPC  C215 2902   4.742   0.830   9.269  0.3544  0.3819  0.4886
   22SAPC  H15R 2903   4.704   0.741   9.217 -2.0101  3.6811 -4.0942
   22SAPC  C216 2904   4.719   0.957   9.196  0.8028 -0.7378 -0.7614
   22SAPC  H16R 2905   4.732   1.045   9.262 -1.1891 -0.5026 -0.6140
   22SAPC  H16S 2906   4.616   0.979   9.158  0.2372  2.0749  1.9476
   22SAPC  C217 2907   4.810   0.983   9.080 -0.0181 -0.5178  0.8334
   22SAPC  H17R 2908   4.912   0.997   9.120 -0.9333  0.6798  2.9338
   22SAPC  H17S 2909   4.774   1.080   9.038 -2.0421 -1.0030  1.3212
   22SAPC  C218 2910   4.803   0.875   8.976 -1.0034 -0.0008  0.4888
   22SAPC  H18R 2911   4.710   0.860   8.916  1.2581  0.3142 -3.4851
   22SAPC  H18S 2912   4.844   0.783   9.023  0.6954 -1.0339 -2.6597
   22SAPC  C219 2913   4.903   0.912   8.861  0.9809  0.3263  0.7407
   22SAPC  H19R 2914   5.005   0.928   8.904  0.5996  0.2435  1.7188
   22SAPC  H19S 2915   4.866   1.004   8.810 -0.7655  0.5704  2.3342
   22SAPC  C220 2916   4.911   0.791   8.765  0.1031  0.7752  0.2528
   22SAPC  H20R 2917   4.970   0.811   8.673  0.9256 -1.4811  0.2295
   22SAPC  H20S 2918   4.813   0.774   8.716  0.4942  2.5916 -1.2554
   22SAPC  H20T 2919   4.954   0.699   8.810 -0.9316  0.3448  0.4047
   22SAPC   C33 2920   5.401   0.967  10.448 -0.6692 -0.4388 -0.1411
   22SAPC   H3X 2921   5.482   1.005  10.514  0.7764 -0.4587 -1.8086
   22SAPC   H3Y 2922   5.310   1.029  10.456  0.2474  0.8350  0.7740
   22SAPC   C34 2923   5.441   0.961  10.301  0.4924  0.3686  0.4295
   22SAPC   H4X 2924   5.512   0.877  10.286 -0.2563 -0.1013 -0.5641
   22SAPC   H4Y 2925   5.500   1.051  10.273  0.0172  0.6722  0.3852
   22SAPC   C35 2926   5.330   0.965  10.191 -0.4675  0.4490  0.0438
   22SAPC   H5X 2927   5.290   1.068  10.177  2.5639  1.8318  0.6586
   22SAPC   H5Y 2928   5.246   0.896  10.208  0.9147 -0.4797  4.0606
   22SAPC   C36 2929   5.407   0.931  10.063  0.3863  0.2814  0.4663
   22SAPC   H6X 2930   5.451   0.829  10.064 -0.4288 -0.1262  3.3691
   22SAPC   H6Y 2931   5.484   1.010  10.055 -0.7222  1.5495  1.8331
   22SAPC   C37 2932   5.311   0.953   9.936 -0.4884 -0.4909  0.7437
   22SAPC   H7X 2933   5.260   1.051   9.942  1.3470  0.7917 -2.0948
   22SAPC   H7Y 2934   5.232   0.875   9.934  0.1056 -1.0973  0.0474
   22SAPC   C38 2935   5.391   0.941   9.806  0.2295  0.5513  0.3643
   22SAPC   H8X 2936   5.457   0.854   9.825  0.5427  0.8476  0.6291
   22SAPC   H8Y 2937   5.461   1.025   9.789  0.7625 -0.3486 -2.5460
   22SAPC   C39 2938   5.310   0.937   9.672 -0.0526 -0.0651 -0.2450
   22SAPC   H9X 2939   5.266   1.038   9.660 -0.9361 -0.6054 -1.8656
   22SAPC   H9Y 2940   5.222   0.870   9.685 -0.3754  0.7646  2.4342
   22SAPC  C310 2941   5.396   0.898   9.551  0.4944 -0.6466 -0.4184
   22SAPC  H10X 2942   5.392   0.787   9.543 -0.5792 -0.7714  1.4544
   22SAPC  H10Y 2943   5.499   0.929   9.577 -0.1445 -0.6337  2.3989
   22SAPC  C311 2944   5.339   0.946   9.419 -0.5252  0.6743  0.0330
   22SAPC  H11X 2945   5.423   0.977   9.353 -0.0348 -0.4616  0.0980
   22SAPC  H11Y 2946   5.280   1.040   9.424  1.3043  1.8502  0.6996
   22SAPC  C312 2947   5.250   0.839   9.344  0.0929 -0.8198  0.5505
   22SAPC  H12X 2948   5.164   0.825   9.413 -0.2388  0.7335  0.4862
   22SAPC  H12Y 2949   5.314   0.748   9.344  2.5488  0.6543  3.6016
   22SAPC  C313 2950   5.215   0.884   9.199 -0.1367  0.1196 -0.7669
   22SAPC  H13X 2951   5.153   0.976   9.198  1.3690  1.3785  3.4725
   22SAPC  H13Y 2952   5.148   0.807   9.154  1.1915 -0.4337 -1.8601
   22SAPC  C314 2953   5.340   0.927   9.110  0.9763 -0.0190  0.4106
   22SAPC  H14X 2954   5.414   0.844   9.109  0.2536 -0.6775 -0.8655
   22SAPC  H14Y 2955   5.380   1.024   9.147  0.7877 -0.1449  0.9441
   22SAPC  C315 2956   5.307   0.946   8.954 -0.1256 -0.1523 -0.3603
   22SAPC  H15X 2957   5.263   1.048   8.946  0.6334  0.1482 -0.8420
   22SAPC  H15Y 2958   5.226   0.875   8.929 -0.3615 -0.5827  1.4310
   22SAPC  C316 2959   5.437   0.937   8.870  0.5167 -0.3511 -0.0427
   22SAPC  H16X 2960   5.417   0.954   8.762  0.1921  0.6338  0.1582
   22SAPC  H16Y 2961   5.487   0.840   8.891  0.9667  0.2026  1.6814
   22SAPC  C317 2962   5.550   1.036   8.919 -0.4699 -0.6557  0.3014
   22SAPC  H17X 2963   5.603   1.003   9.011  1.3325  1.8137  0.2581
   22SAPC  H17Y 2964   5.508   1.138   8.931 -1.1933 -0.6576 -1.7646
   22SAPC  C318 2965   5.657   1.060   8.814 -0.3800 -0.2350  0.9580
   22SAPC  H18X 2966   5.713   0.965   8.802  1.6558  1.1897 -2.0278
   22SAPC  H18Y 2967   5.731   1.140   8.833 -0.5225  0.1415  0.0048
   22SAPC  H18Z 2968   5.604   1.088   8.721  0.4377  1.2977  0.9230
   23SAPC     N 2969   6.529   1.258  11.407 -0.3668 -0.0403  0.8341
   23SAPC   C12 2970   6.539   1.118  11.343  0.2789  0.5846 -0.2924
   23SAPC  H12A 2971   6.488   1.046  11.404 -0.0994 -0.2106 -1.5084
   23SAPC  H12B 2972   6.644   1.095  11.345  0.2377  0.4745  1.1172
   23SAPC   C13 2973   6.599   1.256  11.541 -0.1825 -0.4801 -0.3908
   23SAPC  H13A 2974   6.692   1.204  11.526 -0.1370 -0.7542  0.7614
   23SAPC  H13B 2975   6.610   1.352  11.588 -1.0276 -0.8164  0.5288
   23SAPC  H13C 2976   6.538   1.214  11.620 -0.1692  2.5973  1.4176
   23SAPC   C14 2977   6.596   1.370  11.321 -0.6751  0.7115  0.1340
   23SAPC  H14A 2978   6.698   1.347  11.296 -1.0745 -0.7231 -0.2742
   23SAPC  H14B 2979   6.538   1.384  11.231 -1.9056 -0.7897  0.6525
   23SAPC  H14C 2980   6.591   1.469  11.363  1.1591  1.2323 -0.7890
   23SAPC   C15 2981   6.387   1.289  11.426  0.1456 -0.4355  0.0176
   23SAPC  H15A 2982   6.344   1.330  11.336  0.6224 -1.0154 -0.4850
   23SAPC  H15B 2983   6.331   1.201  11.455 -0.5296  0.0688  0.2497
   23SAPC  H15C 2984   6.388   1.354  11.511  1.9722  1.9791 -1.7197
   23SAPC   C11 2985   6.482   1.104  11.195 -0.4753 -0.2329 -0.3603
   23SAPC  H11A 2986   6.372   1.118  11.208 -0.4991 -1.3478  0.7411
   23SAPC  H11B 2987   6.509   1.002  11.161 -2.3308 -0.6318 -0.7310
   23SAPC     P 2988   6.454   1.286  11.011 -0.4799 -0.0763 -0.1731
   23SAPC   O13 2989   6.461   1.229  10.875 -0.8844 -0.3018 -0.0523
   23SAPC   O14 2990   6.321   1.307  11.075 -0.2233 -0.0436  0.4927
   23SAPC   O12 2991   6.537   1.192  11.100 -0.1413 -0.0386  0.0448
   23SAPC   O11 2992   6.543   1.420  11.020 -0.1334 -0.2556 -0.5272
   23SAPC    C1 2993   6.685   1.429  10.994 -0.5034  0.2228 -0.4667
   23SAPC    HA 2994   6.728   1.467  11.089 -3.4152  0.5249  0.8683
   23SAPC    HB 2995   6.723   1.329  10.965 -2.3856  0.0109 -2.5317
   23SAPC    C2 2996   6.734   1.521  10.883 -0.0903 -0.3471 -0.9624
   23SAPC    HS 2997   6.683   1.618  10.894  0.9396  0.0231  0.9277
   23SAPC   O21 2998   6.701   1.458  10.758  0.2949 -0.3617  0.0283
   23SAPC   C21 2999   6.579   1.478  10.704  0.2693  0.2699 -0.2407
   23SAPC   O22 3000   6.498   1.567  10.737 -0.2193 -0.1814 -0.3170
   23SAPC   C22 3001   6.566   1.379  10.584  0.4666 -0.1881  0.0264
   23SAPC   H2R 3002   6.634   1.418  10.506  0.1268 -0.1969 -0.2814
   23SAPC   H2S 3003   6.602   1.281  10.624 -3.4947 -1.6793  0.4292
   23SAPC    C3 3004   6.891   1.543  10.902  0.0688  1.1716 -0.2078
   23SAPC    HX 3005   6.936   1.448  10.865  0.8778  2.1779 -1.9711
   23SAPC    HY 3006   6.930   1.562  11.004  2.0397  0.1575 -0.7306
   23SAPC   O31 3007   6.933   1.655  10.822  0.0184  0.0264  0.2232
   23SAPC   C31 3008   7.062   1.669  10.804  0.3854 -0.4315  0.3099
   23SAPC   O32 3009   7.152   1.597  10.841 -0.0951  0.0500  0.2007
   23SAPC   C32 3010   7.080   1.778  10.694 -0.0125 -0.2307 -0.1253
   23SAPC   H2X 3011   7.059   1.877  10.742  2.7564  0.7785 -0.8111
   23SAPC   H2Y 3012   7.014   1.747  10.611 -0.7409 -0.8156  0.6586
   23SAPC   C23 3013   6.419   1.366  10.549 -0.0905 -0.5306 -1.2127
   23SAPC   H3R 3014   6.373   1.461  10.515 -2.1404 -1.1157 -0.2598
   23SAPC   H3S 3015   6.364   1.340  10.642  0.1162  2.7498 -0.0506
   23SAPC   C24 3016   6.397   1.271  10.430 -0.0626  0.4778  0.7584
   23SAPC   H4R 3017   6.425   1.167  10.458  0.0435  0.7581  1.7589
   23SAPC   H4S 3018   6.470   1.305  10.354  0.7504 -1.7685  0.4605
   23SAPC   C25 3019   6.257   1.263  10.380 -0.0129 -0.9408  0.6016
   23SAPC   H5R 3020   6.176   1.216  10.439 -0.9920 -1.5377 -1.1501
   23SAPC   C26 3021   6.220   1.310  10.258  0.1009  0.5861 -0.3993
   23SAPC   H6R 3022   6.114   1.299  10.233 -0.3792  0.8629  1.4208
   23SAPC   C27 3023   6.310   1.383  10.157  0.0298 -0.4274  0.0838
   23SAPC   H7R 3024   6.418   1.392  10.180  0.6437 -2.5603 -1.5683
   23SAPC   H7S 3025   6.274   1.488  10.150  1.8547  0.2501  0.2804
   23SAPC   C28 3026   6.314   1.309  10.025  0.2912  0.1029 -0.3572
   23SAPC   H8R 3027   6.344   1.205  10.047  0.9226  0.2943 -0.2936
   23SAPC   C29 3028   6.292   1.367   9.902  0.1511 -0.2310  0.4425
   23SAPC   H9R 3029   6.302   1.308   9.809 -1.2891  0.1774 -0.0036
   23SAPC  C210 3030   6.269   1.513   9.862 -0.7486  0.3717  0.0964
   23SAPC  H10R 3031   6.320   1.528   9.764  2.1459  1.3561  1.6205
   23SAPC  H10S 3032   6.327   1.579   9.930 -1.4559  1.4107 -0.2853
   23SAPC  C211 3033   6.120   1.551   9.853  1.0352 -0.4395  0.2109
   23SAPC  H11R 3034   6.074   1.564   9.952 -1.1208  2.4665 -1.0132
   23SAPC  C212 3035   6.040   1.583   9.749 -0.0057 -0.1383 -1.0520
   23SAPC  H12R 3036   5.936   1.610   9.772  0.2193 -0.5846  0.6212
   23SAPC  C213 3037   6.075   1.589   9.612 -0.4942 -0.2356 -0.3098
   23SAPC  H13R 3038   6.171   1.645   9.611 -0.1594 -0.5080  3.0539
   23SAPC  H13S 3039   5.998   1.654   9.566 -0.7551 -1.0572 -1.0576
   23SAPC  C214 3040   6.074   1.451   9.546  0.0090  0.2555 -0.1716
   23SAPC  H14R 3041   5.994   1.383   9.579  0.5237  0.1674  0.9772
   23SAPC  C215 3042   6.177   1.400   9.479  0.0012  0.1482  0.6421
   23SAPC  H15R 3043   6.161   1.301   9.434 -0.5373  1.5395 -2.5067
   23SAPC  C216 3044   6.302   1.481   9.442 -0.6296  0.4446  0.1233
   23SAPC  H16R 3045   6.400   1.428   9.451  1.1143  3.2401 -0.9731
   23SAPC  H16S 3046   6.323   1.560   9.518  0.3168  0.3194  0.0085
   23SAPC  C217 3047   6.293   1.546   9.302 -0.2216  0.0232 -0.5492
   23SAPC  H17R 3048   6.205   1.614   9.298  0.3857  1.1603  2.7516
   23SAPC  H17S 3049   6.280   1.462   9.230  3.2977 -2.6059  1.5519
   23SAPC  C218 3050   6.425   1.614   9.260  0.4857  0.8205 -0.1923
   23SAPC  H18R 3051   6.515   1.555   9.284  0.7032  0.9539 -0.6669
   23SAPC  H18S 3052   6.422   1.689   9.342 -0.0246  1.4398 -0.7559
   23SAPC  C219 3053   6.418   1.685   9.134  0.1565 -0.4055 -0.4453
   23SAPC  H19R 3054   6.425   1.622   9.042 -1.7525 -0.8931 -0.2989
   23SAPC  H19S 3055   6.510   1.747   9.123 -0.0485 -0.0116  0.0261
   23SAPC  C220 3056   6.293   1.779   9.116 -0.9758  0.0760 -0.2972
   23SAPC  H20R 3057   6.201   1.720   9.098 -0.1056 -1.2814 -0.4870
   23SAPC  H20S 3058   6.314   1.832   9.021  0.4850  0.1537  0.0453
   23SAPC  H20T 3059   6.281   1.856   9.195  0.5249 -0.6992  0.7358
   23SAPC   C33 3060   7.234   1.777  10.660  0.2228  0.2962  0.3032
   23SAPC   H3X 3061   7.268   1.691  10.598  0.4837  0.1182  0.6926
   23SAPC   H3Y 3062   7.304   1.777  10.746 -0.9071 -1.4691  1.2907
   23SAPC   C34 3063   7.280   1.906  10.584 -0.1289 -0.1373  0.6335
   23SAPC   H4X 3064   7.391   1.910  10.591  0.1186 -0.2866 -2.0128
   23SAPC   H4Y 3065   7.247   2.000  10.633 -1.0629  0.9520 -1.8989
   23SAPC   C35 3066   7.259   1.897  10.431 -0.1340  0.5653 -0.0075
   23SAPC   H5X 3067   7.149   1.888  10.433 -0.4211  3.1196 -0.8919
   23SAPC   H5Y 3068   7.309   1.802  10.401  0.5545 -0.3219  3.5169
   23SAPC   C36 3069   7.302   2.023  10.356 -0.0084  1.0370 -0.9266
   23SAPC   H6X 3070   7.412   2.032  10.365 -0.1375  1.9147 -0.2006
   23SAPC   H6Y 3071   7.249   2.112  10.395 -0.5158  1.1811 -1.9113
   23SAPC   C37 3072   7.274   2.016  10.208  1.0265 -0.2524 -0.2264
   23SAPC   H7X 3073   7.163   2.021  10.202  0.5972 -0.6151  4.1844
   23SAPC   H7Y 3074   7.301   1.913  10.176 -0.2577 -0.9350  0.7823
   23SAPC   C38 3075   7.334   2.130  10.135  0.3751 -0.8072  0.5500
   23SAPC   H8X 3076   7.440   2.103  10.115  1.0338  1.7998  0.1919
   23SAPC   H8Y 3077   7.325   2.225  10.191 -1.4368  0.0458 -1.0712
   23SAPC   C39 3078   7.277   2.143   9.989 -0.2004 -0.3039 -0.3213
   23SAPC   H9X 3079   7.324   2.225   9.930  0.9447 -1.9855 -1.8287
   23SAPC   H9Y 3080   7.167   2.161   9.983  0.1528  1.4562 -3.5152
   23SAPC  C310 3081   7.303   2.012   9.916 -0.1566 -0.2131  0.8673
   23SAPC  H10X 3082   7.214   1.949   9.938 -0.3108  0.3946  2.0958
   23SAPC  H10Y 3083   7.399   1.967   9.948  0.7588  2.3827  2.0636
   23SAPC  C311 3084   7.289   2.042   9.759 -0.5522 -0.0013 -0.5954
   23SAPC  H11X 3085   7.364   2.120   9.735  1.8658 -2.1938 -0.6461
   23SAPC  H11Y 3086   7.186   2.068   9.727 -0.6409 -1.5356 -1.7265
   23SAPC  C312 3087   7.341   1.920   9.676  0.2235  0.6955  0.4506
   23SAPC  H12X 3088   7.287   1.828   9.707 -2.6918  1.2774 -2.4053
   23SAPC  H12Y 3089   7.451   1.906   9.687  0.3110  1.1020  0.1334
   23SAPC  C313 3090   7.306   1.940   9.532  0.3587  0.0662  0.6740
   23SAPC  H13X 3091   7.308   2.045   9.498 -0.0071  0.7529  2.6164
   23SAPC  H13Y 3092   7.199   1.917   9.512  0.5275  0.4027 -0.7088
   23SAPC  C314 3093   7.396   1.866   9.438 -0.8402  0.0193  0.6425
   23SAPC  H14X 3094   7.396   1.755   9.447 -0.1038 -0.2614 -2.0188
   23SAPC  H14Y 3095   7.502   1.893   9.455 -0.8595 -0.2435  1.2106
   23SAPC  C315 3096   7.358   1.898   9.294  0.2263 -0.3400 -0.4729
   23SAPC  H15X 3097   7.362   2.007   9.274  3.5061 -0.4744 -1.1704
   23SAPC  H15Y 3098   7.255   1.862   9.273 -0.4519  0.6377  1.0170
   23SAPC  C316 3099   7.461   1.842   9.193  0.8265 -0.6537 -0.4932
   23SAPC  H16X 3100   7.470   1.734   9.218 -2.5554 -0.9498 -0.0864
   23SAPC  H16Y 3101   7.554   1.896   9.222 -0.6467  0.3788  2.7313
   23SAPC  C317 3102   7.440   1.867   9.036  0.0260 -0.2542  0.0109
   23SAPC  H17X 3103   7.419   1.976   9.029  0.3176 -0.2918 -2.2707
   23SAPC  H17Y 3104   7.354   1.798   9.024 -0.1139 -0.2678  0.9775
   23SAPC  C318 3105   7.554   1.834   8.942  0.0151  0.9122  0.2513
   23SAPC  H18X 3106   7.584   1.727   8.951 -0.3283  0.9121  1.4508
   23SAPC  H18Y 3107   7.648   1.887   8.968 -0.4318  1.5999  0.4642
   23SAPC  H18Z 3108   7.521   1.846   8.836 -0.9100 -1.2330  0.2360
   24SAPC     N 3109   1.229   2.982  11.298  0.5463 -0.9805 -0.0998
   24SAPC   C12 3110   1.182   2.989  11.149  0.3725 -0.2865 -0.6910
   24SAPC  H12A 3111   1.250   3.057  11.099  0.6310 -0.6815 -0.8829
   24SAPC  H12B 3112   1.094   3.051  11.139  0.1711 -0.4839 -0.1836
   24SAPC   C13 3113   1.376   2.971  11.314  0.4817  0.5712  0.3747
   24SAPC  H13A 3114   1.414   2.878  11.276 -1.4774 -0.3812  0.5990
   24SAPC  H13B 3115   1.428   3.049  11.261  1.7745 -1.6743 -1.8653
   24SAPC  H13C 3116   1.407   2.968  11.417 -1.2432  0.6704  0.9302
   24SAPC   C14 3117   1.191   3.116  11.366 -0.5701  0.1541  0.6046
   24SAPC  H14A 3118   1.230   3.198  11.308  0.2752 -0.3523  0.4373
   24SAPC  H14B 3119   1.084   3.121  11.362 -0.5604  4.2832  0.5721
   24SAPC  H14C 3120   1.224   3.125  11.469  0.0872  0.9177  0.3423
   24SAPC   C15 3121   1.159   2.874  11.385 -0.0601 -0.2500  0.6537
   24SAPC  H15A 3122   1.191   2.887  11.487  0.9774  0.1626  0.2949
   24SAPC  H15B 3123   1.052   2.866  11.375 -0.1970 -0.1996  1.9218
   24SAPC  H15C 3124   1.191   2.777  11.348 -1.7757 -0.0792 -1.5121
   24SAPC   C11 3125   1.162   2.866  11.060  0.0135 -0.0104 -0.5361
   24SAPC  H11A 3126   1.240   2.787  11.069 -1.0927 -1.0727  0.1922
   24SAPC  H11B 3127   1.158   2.891  10.952 -1.3974 -1.0143 -0.7448
   24SAPC     P 3128   0.902   2.858  11.041 -0.2506  0.1744  0.3500
   24SAPC   O13 3129   0.816   2.737  11.031  0.5219 -0.1028 -0.3841
   24SAPC   O14 3130   0.858   2.962  11.137  0.0290 -0.3196  0.6252
   24SAPC   O12 3131   1.039   2.801  11.092 -0.4732  0.5544  0.2439
   24SAPC   O11 3132   0.937   2.927  10.890  0.4407  0.2825 -0.4874
   24SAPC    C1 3133   0.873   2.878  10.779  0.6780  0.2701  0.0942
   24SAPC    HA 3134   0.765   2.861  10.803  0.6145 -3.1864 -1.8732
   24SAPC    HB 3135   0.880   2.959  10.703 -1.0591 -0.1988 -0.6336
   24SAPC    C2 3136   0.933   2.751  10.717  0.5407 -0.5302  0.0722
   24SAPC    HS 3137   0.903   2.677  10.794 -1.7817  1.5168  1.2584
   24SAPC   O21 3138   1.073   2.764  10.694 -0.1731  0.6603  0.0368
   24SAPC   C21 3139   1.142   2.649  10.684 -0.7788  0.2355 -0.6570
   24SAPC   O22 3140   1.096   2.541  10.712  0.3461 -0.1123  0.6565
   24SAPC   C22 3141   1.284   2.666  10.643  0.2767 -0.3863  0.1083
   24SAPC   H2R 3142   1.307   2.774  10.658 -0.2322 -0.4734  1.7111
   24SAPC   H2S 3143   1.354   2.615  10.711  0.8776 -0.1604 -0.3299
   24SAPC    C3 3144   0.853   2.710  10.590 -0.4550  0.1647 -0.2937
   24SAPC    HX 3145   0.752   2.678  10.623  0.1684  1.2435  3.0903
   24SAPC    HY 3146   0.897   2.618  10.545  1.2423  1.3631 -1.1874
   24SAPC   O31 3147   0.854   2.808  10.487 -0.3474 -0.0987  0.1767
   24SAPC   C31 3148   0.737   2.863  10.462 -0.1681 -0.6959  0.0003
   24SAPC   O32 3149   0.639   2.851  10.526  0.0034 -0.2971 -0.3797
   24SAPC   C32 3150   0.770   2.968  10.349 -0.6917 -0.1000 -0.1687
   24SAPC   H2X 3151   0.868   3.012  10.376 -0.0242 -1.1429 -0.7796
   24SAPC   H2Y 3152   0.706   3.058  10.348 -1.9417 -0.9677 -0.5723
   24SAPC   C23 3153   1.312   2.629  10.493 -0.1027 -0.2171 -0.1793
   24SAPC   H3R 3154   1.242   2.683  10.426  0.9028  4.5081  2.1410
   24SAPC   H3S 3155   1.301   2.519  10.485  0.0520 -0.1233 -2.1952
   24SAPC   C24 3156   1.456   2.676  10.447  0.0686 -0.0119  0.2686
   24SAPC   H4R 3157   1.469   2.778  10.489 -2.5957  0.0479  1.1407
   24SAPC   H4S 3158   1.462   2.689  10.337 -1.0006 -1.8985 -0.0607
   24SAPC   C25 3159   1.564   2.586  10.500  0.0691 -0.2756 -0.3419
   24SAPC   H5R 3160   1.571   2.579  10.610  1.1233  1.0772 -0.2950
   24SAPC   C26 3161   1.667   2.529  10.444  0.2744  0.2855 -0.4439
   24SAPC   H6R 3162   1.738   2.467  10.502 -0.6151  0.0409  0.4021
   24SAPC   C27 3163   1.690   2.537  10.299  0.0601 -0.0121  0.1155
   24SAPC   H7R 3164   1.699   2.644  10.269 -1.4532 -0.8289 -3.9111
   24SAPC   H7S 3165   1.591   2.509  10.256 -1.3938  1.1886  2.4381
   24SAPC   C28 3166   1.797   2.443  10.250  0.0509  0.0167  0.1594
   24SAPC   H8R 3167   1.856   2.381  10.320 -0.7140 -2.6476 -1.3940
   24SAPC   C29 3168   1.822   2.434  10.115 -0.4230 -0.0766  0.1482
   24SAPC   H9R 3169   1.896   2.360  10.080  1.3505  1.9178 -0.5040
   24SAPC  C210 3170   1.746   2.509  10.004 -0.5686  0.4003 -0.6748
   24SAPC  H10R 3171   1.648   2.546  10.042  0.3517  1.4810  0.8102
   24SAPC  H10S 3172   1.702   2.442   9.928 -2.8576 -1.1193  1.7849
   24SAPC  C211 3173   1.815   2.620   9.931 -0.6038 -0.6671  0.1337
   24SAPC  H11R 3174   1.924   2.627   9.947 -0.7033  1.6779  0.1084
   24SAPC  C212 3175   1.767   2.694   9.826 -0.2136 -0.3077 -0.0464
   24SAPC  H12R 3176   1.835   2.766   9.777 -1.0472 -0.5935 -1.7104
   24SAPC  C213 3177   1.631   2.696   9.753 -0.3053 -1.1452  0.4121
   24SAPC  H13R 3178   1.561   2.626   9.803 -1.0246 -1.8603 -1.4922
   24SAPC  H13S 3179   1.637   2.664   9.646 -2.1082  1.8231 -0.7083
   24SAPC  C214 3180   1.558   2.829   9.764 -0.4128  0.9262  0.0241
   24SAPC  H14R 3181   1.510   2.842   9.862 -0.8028 -1.0998  0.1291
   24SAPC  C215 3182   1.545   2.924   9.666  0.3334 -0.6815 -0.1994
   24SAPC  H15R 3183   1.467   3.000   9.677  0.8385 -0.2815  0.7287
   24SAPC  C216 3184   1.610   2.930   9.532 -0.3043  0.7447  0.1560
   24SAPC  H16R 3185   1.684   2.848   9.524 -0.7662  0.5282 -2.6933
   24SAPC  H16S 3186   1.656   3.031   9.528 -0.9148  1.0975  1.5036
   24SAPC  C217 3187   1.523   2.910   9.408  0.1195 -0.3788 -0.0150
   24SAPC  H17R 3188   1.436   2.978   9.424  0.9160  0.1643  2.7131
   24SAPC  H17S 3189   1.483   2.807   9.400  0.6503 -0.7368  1.5479
   24SAPC  C218 3190   1.601   2.945   9.279 -0.3930 -0.8248  0.1788
   24SAPC  H18R 3191   1.690   2.878   9.280  1.0925  1.0106  2.8432
   24SAPC  H18S 3192   1.632   3.051   9.281 -2.8635 -0.0592  0.8694
   24SAPC  C219 3193   1.522   2.919   9.145 -0.2541  0.2518  0.1204
   24SAPC  H19R 3194   1.500   3.010   9.085  2.5858  0.9618  0.0452
   24SAPC  H19S 3195   1.423   2.878   9.177  0.6993 -1.8956  0.4928
   24SAPC  C220 3196   1.588   2.810   9.056  0.8431 -0.3918  0.2127
   24SAPC  H20R 3197   1.574   2.706   9.092  1.1267 -1.1571 -1.7722
   24SAPC  H20S 3198   1.697   2.826   9.041  0.7773 -0.2808 -0.1554
   24SAPC  H20T 3199   1.535   2.823   8.959  0.0454 -1.5090  0.4814
   24SAPC   C33 3200   0.769   2.915  10.207  0.0894  0.1007 -0.3595
   24SAPC   H3X 3201   0.831   2.825  10.186  0.6426  0.1759  0.8432
   24SAPC   H3Y 3202   0.825   2.992  10.151  3.0688 -0.3900  1.7170
   24SAPC   C34 3203   0.626   2.893  10.160  0.5869 -0.4465  0.8149
   24SAPC   H4X 3204   0.554   2.976  10.176 -0.0103 -1.1585  1.9586
   24SAPC   H4Y 3205   0.587   2.816  10.230  1.9423 -2.3203 -0.4258
   24SAPC   C35 3206   0.605   2.837  10.024 -0.2105  0.1527  0.0796
   24SAPC   H5X 3207   0.497   2.818  10.004 -0.6791  1.8196  0.7975
   24SAPC   H5Y 3208   0.664   2.745  10.008  1.9468  1.2543  1.1405
   24SAPC   C36 3209   0.663   2.925   9.923  0.8201  0.5436  0.4607
   24SAPC   H6X 3210   0.770   2.900   9.903  0.0439 -1.5242 -1.5062
   24SAPC   H6Y 3211   0.657   3.032   9.953  2.9403  0.5245  1.1252
   24SAPC   C37 3212   0.591   2.902   9.795 -0.7338  1.0539 -0.8646
   24SAPC   H7X 3213   0.482   2.902   9.817  0.0354  1.8205  4.0188
   24SAPC   H7Y 3214   0.627   2.802   9.762  1.3214  0.3341  2.9888
   24SAPC   C38 3215   0.611   3.008   9.691 -0.0243 -0.0827 -0.8518
   24SAPC   H8X 3216   0.591   3.099   9.752 -1.3713 -1.6838  1.2199
   24SAPC   H8Y 3217   0.537   2.987   9.610 -0.4674 -1.7118 -0.0449
   24SAPC   C39 3218   0.751   3.022   9.634  0.7049 -0.3432  0.5954
   24SAPC   H9X 3219   0.777   2.918   9.604  0.4483  0.3309 -2.1694
   24SAPC   H9Y 3220   0.813   3.057   9.719 -0.7229  1.4229  0.9813
   24SAPC  C310 3221   0.761   3.117   9.513 -0.5352 -0.3157  0.9832
   24SAPC  H10X 3222   0.716   3.214   9.546  0.8191  1.0924 -1.0802
   24SAPC  H10Y 3223   0.697   3.076   9.431 -0.4706  0.6242  0.4474
   24SAPC  C311 3224   0.900   3.143   9.450  0.4399 -0.9071  0.3901
   24SAPC  H11X 3225   0.954   3.053   9.415  3.2491  0.9748 -0.4358
   24SAPC  H11Y 3226   0.958   3.199   9.526 -0.9316  0.0145  0.8118
   24SAPC  C312 3227   0.883   3.222   9.319 -0.1747  0.6630 -0.0026
   24SAPC  H12X 3228   0.836   3.320   9.341  1.3430  1.5337 -0.4610
   24SAPC  H12Y 3229   0.824   3.167   9.243  0.3000 -0.7307  0.6225
   24SAPC  C313 3230   1.022   3.264   9.257  0.1859  0.5110  0.5436
   24SAPC  H13X 3231   1.084   3.171   9.261  0.6452  0.8186  0.7257
   24SAPC  H13Y 3232   1.069   3.337   9.327 -0.7560 -0.0995  1.8636
   24SAPC  C314 3233   1.008   3.310   9.109  0.1065  0.7921  0.0519
   24SAPC  H14X 3234   0.937   3.396   9.101 -1.3432 -0.4844 -1.7652
   24SAPC  H14Y 3235   0.960   3.224   9.057  2.1715  1.1812 -2.6686
   24SAPC  C315 3236   1.145   3.340   9.034  0.1562  0.6295 -0.4960
   24SAPC  H15X 3237   1.234   3.284   9.070 -0.6159 -1.0308 -1.0535
   24SAPC  H15Y 3238   1.176   3.443   9.061 -0.2488  0.7230 -0.3734
   24SAPC  C316 3239   1.164   3.319   8.882 -0.6575 -0.1500  0.4065
   24SAPC  H16X 3240   1.067   3.356   8.841 -1.9138 -0.4710  2.8806
   24SAPC  H16Y 3241   1.163   3.209   8.869  0.7769 -0.1109 -0.1894
   24SAPC  C317 3242   1.292   3.384   8.824  0.3607  0.3958  0.3139
   24SAPC  H17X 3243   1.305   3.349   8.719 -1.1825 -0.1884  0.2947
   24SAPC  H17Y 3244   1.382   3.357   8.883  1.1413  1.1765 -0.4755
   24SAPC  C318 3245   1.290   3.532   8.818 -0.2878  0.5904  0.5441
   24SAPC  H18X 3246   1.214   3.579   8.751  1.5079  1.6163 -0.8708
   24SAPC  H18Y 3247   1.385   3.569   8.774 -0.9006  2.0938  0.4385
   24SAPC  H18Z 3248   1.276   3.574   8.920  1.2024  3.2375 -0.2463
   25SAPC     N 3249   0.154   0.625   5.969  0.0092  0.3173 -0.7939
   25SAPC   C12 3250   0.137   0.686   6.111 -0.4077  0.4940 -0.6615
   25SAPC  H12A 3251   0.174   0.787   6.107 -0.1888  0.4736  0.5460
   25SAPC  H12B 3252   0.198   0.633   6.182 -1.3484  2.0261  1.3623
   25SAPC   C13 3253   0.055   0.678   5.863 -0.1350  0.2703 -0.0908
   25SAPC  H13A 3254   0.074   0.779   5.830 -2.1269  0.2032 -1.6426
   25SAPC  H13B 3255   0.064   0.612   5.778 -1.5472 -0.6235  0.4160
   25SAPC  H13C 3256  -0.040   0.661   5.911 -0.9014 -1.9404 -2.2171
   25SAPC   C14 3257   0.292   0.646   5.919  0.1235  0.2030 -0.2427
   25SAPC  H14A 3258   0.318   0.595   5.827 -1.4271  0.2797 -0.7636
   25SAPC  H14B 3259   0.318   0.747   5.893  0.2293  0.3960  0.5805
   25SAPC  H14C 3260   0.361   0.617   5.997  0.0857 -0.1639 -0.3421
   25SAPC   C15 3261   0.129   0.480   5.981  0.6453 -0.1236  1.1937
   25SAPC  H15A 3262   0.027   0.470   6.015  0.4868 -1.0531  0.4880
   25SAPC  H15B 3263   0.142   0.429   5.887  3.5224 -0.4076  1.6611
   25SAPC  H15C 3264   0.181   0.424   6.058 -0.3734 -0.5612  1.5777
   25SAPC   C11 3265   0.000   0.695   6.176 -0.5878 -0.7829  0.1786
   25SAPC  H11A 3266  -0.075   0.756   6.120  0.1437 -0.0758 -0.0543
   25SAPC  H11B 3267   0.009   0.748   6.273 -2.2150 -3.7625  2.0898
   25SAPC     P 3268   0.017   0.494   6.331  0.3565  0.0005  0.4145
   25SAPC   O13 3269  -0.059   0.370   6.349 -0.3735  0.0280  0.8313
   25SAPC   O14 3270   0.165   0.486   6.313 -0.1478 -0.2734  0.1559
   25SAPC   O12 3271  -0.049   0.565   6.206  0.0887  0.6848 -0.1724
   25SAPC   O11 3272  -0.002   0.599   6.453 -0.1070 -0.0891  0.6684
   25SAPC    C1 3273  -0.126   0.661   6.479 -0.1905 -0.3579 -0.4771
   25SAPC    HA 3274  -0.156   0.734   6.400 -1.4949 -0.3243  0.0247
   25SAPC    HB 3275  -0.210   0.588   6.484  0.3855 -0.9461  1.1185
   25SAPC    C2 3276  -0.126   0.743   6.612  0.2855 -0.2548 -0.0204
   25SAPC    HS 3277  -0.053   0.827   6.608 -0.1900  0.1982  0.6014
   25SAPC   O21 3278  -0.093   0.653   6.715  0.4261  0.3289 -0.1066
   25SAPC   C21 3279  -0.058   0.710   6.826  0.3720  0.4415  0.1469
   25SAPC   O22 3280  -0.014   0.824   6.836  0.5829 -0.1176 -0.1620
   25SAPC   C22 3281  -0.058   0.602   6.939 -0.0061  0.1256 -0.1906
   25SAPC   H2R 3282  -0.162   0.566   6.950  0.1356 -0.3837 -0.5154
   25SAPC   H2S 3283   0.006   0.516   6.912 -0.8075  0.0206 -1.8693
   25SAPC    C3 3284  -0.266   0.816   6.636 -0.1273  0.5406  0.7145
   25SAPC    HX 3285  -0.335   0.730   6.649 -1.6376  1.8961  2.1022
   25SAPC    HY 3286  -0.300   0.880   6.552  2.9275  0.3459 -0.8246
   25SAPC   O31 3287  -0.277   0.894   6.762  0.0923  0.1068  0.1498
   25SAPC   C31 3288  -0.218   1.016   6.758 -0.5857 -0.3557  0.2196
   25SAPC   O32 3289  -0.157   1.065   6.662 -0.2951 -0.8718  0.5363
   25SAPC   C32 3290  -0.234   1.088   6.894  0.4488  0.1112  0.3296
   25SAPC   H2X 3291  -0.135   1.121   6.932 -0.1721  2.4986  0.0112
   25SAPC   H2Y 3292  -0.280   1.019   6.968  0.3498 -1.9846 -1.5620
   25SAPC   C23 3293   0.001   0.654   7.074  0.0230 -0.1821  0.6159
   25SAPC   H3R 3294  -0.070   0.725   7.123 -1.3486 -0.5289 -0.7505
   25SAPC   H3S 3295   0.095   0.709   7.052 -1.6143  2.1748 -1.0964
   25SAPC   C24 3296   0.020   0.524   7.170  0.5850  0.5206 -0.3940
   25SAPC   H4R 3297   0.107   0.465   7.132  0.2518 -1.5249  1.7453
   25SAPC   H4S 3298  -0.073   0.464   7.161  1.3116 -0.5867 -0.9284
   25SAPC   C25 3299   0.062   0.572   7.304  0.1151 -0.3201  0.0164
   25SAPC   H5R 3300   0.154   0.631   7.299  0.7456 -1.2454  0.3650
   25SAPC   C26 3301   0.007   0.564   7.423  0.1637 -0.2832 -1.1138
   25SAPC   H6R 3302   0.043   0.616   7.513 -0.5013 -3.0450  0.8868
   25SAPC   C27 3303  -0.125   0.490   7.461  0.3176  0.2959  0.1690
   25SAPC   H7R 3304  -0.200   0.492   7.379  0.2508  1.2202  0.2391
   25SAPC   H7S 3305  -0.189   0.541   7.536 -3.4684 -0.5242 -2.2336
   25SAPC   C28 3306  -0.107   0.343   7.495 -0.1923 -0.3218 -0.9285
   25SAPC   H8R 3307  -0.084   0.279   7.409  1.9997 -0.5242 -0.2572
   25SAPC   C29 3308  -0.117   0.284   7.618 -0.7907  0.4980  1.1594
   25SAPC   H9R 3309  -0.074   0.182   7.620  2.5275  1.3933 -4.2017
   25SAPC  C210 3310  -0.138   0.351   7.752 -0.2860 -0.1734  0.2363
   25SAPC  H10R 3311  -0.243   0.340   7.789 -0.1626  1.5021  1.2242
   25SAPC  H10S 3312  -0.129   0.461   7.739  2.2478 -0.3933 -0.3117
   25SAPC  C211 3313  -0.031   0.304   7.850 -0.0563 -0.1645  0.6169
   25SAPC  H11R 3314  -0.065   0.241   7.934 -1.5159  1.8822  1.6500
   25SAPC  C212 3315   0.100   0.351   7.860  0.0398  0.4460 -0.3756
   25SAPC  H12R 3316   0.172   0.307   7.931  1.3624  1.5086 -1.0118
   25SAPC  C213 3317   0.161   0.460   7.776 -0.5660 -0.9901  0.4757
   25SAPC  H13R 3318   0.087   0.530   7.732 -0.0702  0.7023  2.1783
   25SAPC  H13S 3319   0.208   0.408   7.690 -2.3200 -1.4828 -0.2339
   25SAPC  C214 3320   0.264   0.524   7.864  0.5635  0.5210 -0.0738
   25SAPC  H14R 3321   0.265   0.516   7.974 -3.5709  0.9022  0.1208
   25SAPC  C215 3322   0.342   0.613   7.806  0.4514  0.0621  0.1305
   25SAPC  H15R 3323   0.416   0.662   7.871  1.2843 -0.8134 -0.1196
   25SAPC  C216 3324   0.363   0.660   7.663  0.1002 -0.7332 -0.0862
   25SAPC  H16R 3325   0.365   0.771   7.661  1.3826 -0.7583 -1.0719
   25SAPC  H16S 3326   0.281   0.627   7.596  1.8078 -1.6791 -1.7862
   25SAPC  C217 3327   0.499   0.620   7.600 -0.4770 -0.3900  0.1660
   25SAPC  H17R 3328   0.510   0.510   7.589  1.1370 -0.4205  1.5898
   25SAPC  H17S 3329   0.582   0.662   7.661 -0.5141  2.7308 -1.7263
   25SAPC  C218 3330   0.514   0.686   7.464 -0.5789 -0.1019 -0.4797
   25SAPC  H18R 3331   0.619   0.690   7.428 -1.2486  0.4741 -2.4983
   25SAPC  H18S 3332   0.482   0.793   7.468 -1.8865 -0.1815 -4.3674
   25SAPC  C219 3333   0.445   0.627   7.348  0.7874 -0.5497  0.5452
   25SAPC  H19R 3334   0.347   0.584   7.379 -0.3491  2.0058  0.7675
   25SAPC  H19S 3335   0.507   0.542   7.314  0.3673 -0.6220 -0.0613
   25SAPC  C220 3336   0.430   0.729   7.233  0.1324 -0.9211  0.3680
   25SAPC  H20R 3337   0.391   0.820   7.283 -0.4141 -1.3541  0.7378
   25SAPC  H20S 3338   0.359   0.685   7.160 -3.2822  1.7914  1.7782
   25SAPC  H20T 3339   0.529   0.755   7.191 -0.8268  2.5826 -0.0132
   25SAPC   C33 3340  -0.314   1.230   6.885  0.2051 -0.3218 -0.6026
   25SAPC   H3X 3341  -0.420   1.206   6.908  0.7844 -1.0911  1.5290
   25SAPC   H3Y 3342  -0.301   1.270   6.782  0.3036  0.0340 -0.4528
   25SAPC   C34 3343  -0.268   1.328   6.996 -0.0453  0.6662  0.3210
   25SAPC   H4X 3344  -0.302   1.430   6.967  1.3770  1.2628  0.6676
   25SAPC   H4Y 3345  -0.158   1.320   7.011 -0.2575 -1.3358  1.0242
   25SAPC   C35 3346  -0.333   1.289   7.128  0.3790  0.4293  0.5803
   25SAPC   H5X 3347  -0.320   1.180   7.145  2.0114  0.4609 -0.2489
   25SAPC   H5Y 3348  -0.441   1.309   7.112  0.3802 -0.0416 -0.0471
   25SAPC   C36 3349  -0.276   1.360   7.246 -0.4417 -0.3367 -0.2557
   25SAPC   H6X 3350  -0.321   1.461   7.250 -0.4112 -0.2074 -2.3000
   25SAPC   H6Y 3351  -0.165   1.353   7.246 -0.4223 -1.3536  2.4984
   25SAPC   C37 3352  -0.308   1.287   7.377  0.5633  0.0586 -0.6246
   25SAPC   H7X 3353  -0.270   1.183   7.370  0.8834  0.0718  0.6724
   25SAPC   H7Y 3354  -0.417   1.264   7.382  0.7529 -0.7411  0.1825
   25SAPC   C38 3355  -0.246   1.329   7.509  0.2585 -0.2897  1.0751
   25SAPC   H8X 3356  -0.136   1.342   7.502  0.2516  0.8608  2.5353
   25SAPC   H8Y 3357  -0.267   1.247   7.581 -0.7979 -0.1087  0.9964
   25SAPC   C39 3358  -0.304   1.463   7.555 -0.7240 -0.2701 -0.8214
   25SAPC   H9X 3359  -0.415   1.475   7.548 -0.7618  1.2828  1.3538
   25SAPC   H9Y 3360  -0.260   1.542   7.491  0.0787 -0.2128 -0.2033
   25SAPC  C310 3361  -0.256   1.500   7.698 -0.2487 -0.2704 -0.2631
   25SAPC  H10X 3362  -0.277   1.604   7.732 -1.7527 -0.1878 -1.3695
   25SAPC  H10Y 3363  -0.147   1.484   7.713 -0.2464 -1.1803 -1.2040
   25SAPC  C311 3364  -0.319   1.415   7.811  0.1492  0.4231 -0.1550
   25SAPC  H11X 3365  -0.293   1.309   7.796  2.4663  0.8342  0.6387
   25SAPC  H11Y 3366  -0.430   1.418   7.796  0.2405 -0.7097 -1.1627
   25SAPC  C312 3367  -0.304   1.469   7.955 -0.4742 -0.6701  0.0770
   25SAPC  H12X 3368  -0.350   1.570   7.966  1.4362  0.2449  0.0423
   25SAPC  H12Y 3369  -0.194   1.479   7.969 -0.5093 -1.0948  0.7316
   25SAPC  C313 3370  -0.355   1.374   8.065 -0.0546  0.8916 -0.9905
   25SAPC  H13X 3371  -0.287   1.288   8.046 -0.7550  0.4148 -1.3792
   25SAPC  H13Y 3372  -0.451   1.321   8.048  0.5700 -0.8211  0.4633
   25SAPC  C314 3373  -0.341   1.435   8.203  0.2973  0.2072 -0.1343
   25SAPC  H14X 3374  -0.430   1.493   8.235 -1.0408 -2.1148  0.6355
   25SAPC  H14Y 3375  -0.254   1.504   8.193  1.1062 -0.7654  0.0520
   25SAPC  C315 3376  -0.319   1.322   8.310  0.4371  0.9298  0.3280
   25SAPC  H15X 3377  -0.230   1.266   8.275 -0.5952 -0.2560 -0.5340
   25SAPC  H15Y 3378  -0.404   1.255   8.285 -0.7768  1.4738  2.7504
   25SAPC  C316 3379  -0.312   1.366   8.462 -0.4138  0.7758 -0.2267
   25SAPC  H16X 3380  -0.294   1.269   8.514  0.9177  2.2931  2.3447
   25SAPC  H16Y 3381  -0.414   1.403   8.489 -0.7746 -1.1634  1.3238
   25SAPC  C317 3382  -0.207   1.475   8.491  0.1216  0.2879  0.5906
   25SAPC  H17X 3383  -0.226   1.560   8.422 -0.1586 -0.5928 -0.4465
   25SAPC  H17Y 3384  -0.110   1.435   8.455 -0.6004  0.8321 -2.2212
   25SAPC  C318 3385  -0.200   1.535   8.636 -0.2986 -0.2274  1.0767
   25SAPC  H18X 3386  -0.196   1.457   8.715  0.7159 -1.4891 -0.1593
   25SAPC  H18Y 3387  -0.280   1.608   8.659 -0.0919  0.7751 -1.1260
   25SAPC  H18Z 3388  -0.098   1.579   8.637  0.5064 -1.3854 -3.8852
   26SAPC     N 3389   5.478   1.900   6.483  0.4742 -0.2046  0.6932
   26SAPC   C12 3390   5.601   1.802   6.481 -0.1570  0.2010  0.1843
   26SAPC  H12A 3391   5.686   1.865   6.501  1.0610 -0.9011 -1.2193
   26SAPC  H12B 3392   5.608   1.755   6.384  2.2063 -0.5006  0.6455
   26SAPC   C13 3393   5.349   1.827   6.470 -0.7852 -0.3553  0.1023
   26SAPC  H13A 3394   5.357   1.770   6.379  1.2456 -0.0342  0.0369
   26SAPC  H13B 3395   5.327   1.775   6.562 -0.2910  3.4685  2.6184
   26SAPC  H13C 3396   5.270   1.899   6.462 -1.6221 -1.1016  1.3688
   26SAPC   C14 3397   5.471   1.990   6.609 -0.7622 -0.0308 -0.1533
   26SAPC  H14A 3398   5.560   2.048   6.629 -0.3752 -0.8687  0.6505
   26SAPC  H14B 3399   5.384   2.051   6.591  1.6766  3.7427 -0.1129
   26SAPC  H14C 3400   5.459   1.925   6.694 -0.4570  0.2426  0.0973
   26SAPC   C15 3401   5.497   1.981   6.366  0.3461  0.3837  0.3533
   26SAPC  H15A 3402   5.418   2.055   6.367  0.6290  0.7004  2.1156
   26SAPC  H15B 3403   5.586   2.041   6.376  0.4135  0.0729  1.8452
   26SAPC  H15C 3404   5.506   1.922   6.276 -1.6881  2.1618 -1.1361
   26SAPC   C11 3405   5.595   1.672   6.568 -0.1149 -0.8737  0.3559
   26SAPC  H11A 3406   5.581   1.700   6.674 -3.1001  1.1902 -0.4657
   26SAPC  H11B 3407   5.692   1.617   6.561  0.0607 -0.6182  0.7747
   26SAPC     P 3408   5.505   1.467   6.434 -0.3885 -0.4072 -0.2493
   26SAPC   O13 3409   5.391   1.456   6.348  0.8559 -0.1453 -0.0634
   26SAPC   O14 3410   5.636   1.471   6.364  0.3001  0.0457  0.5552
   26SAPC   O12 3411   5.482   1.589   6.527 -0.3719 -0.0694  0.0506
   26SAPC   O11 3412   5.521   1.352   6.535  0.4738  0.3183 -0.6307
   26SAPC    C1 3413   5.431   1.337   6.652  0.5278  0.5485 -0.2686
   26SAPC    HA 3414   5.426   1.431   6.710 -0.6497 -0.7357  1.8533
   26SAPC    HB 3415   5.327   1.328   6.613  0.8325 -1.5292 -0.7458
   26SAPC    C2 3416   5.463   1.216   6.733  0.2419 -0.2019 -0.3767
   26SAPC    HS 3417   5.388   1.188   6.810  1.5097 -4.2139 -0.3873
   26SAPC   O21 3418   5.593   1.228   6.794 -0.4171 -0.2030  0.3210
   26SAPC   C21 3419   5.599   1.309   6.900  0.0074 -0.1461  0.0197
   26SAPC   O22 3420   5.512   1.386   6.945  0.2814  0.4291  0.2698
   26SAPC   C22 3421   5.732   1.293   6.972 -0.1514 -0.5247 -0.2160
   26SAPC   H2R 3422   5.759   1.185   6.977  3.2869  0.2811  1.2217
   26SAPC   H2S 3423   5.817   1.329   6.911 -0.3739  1.3082  0.4869
   26SAPC    C3 3424   5.445   1.089   6.635  0.1608  0.3758 -0.2188
   26SAPC    HX 3425   5.500   1.109   6.541 -1.2295  0.3637 -1.0603
   26SAPC    HY 3426   5.337   1.082   6.611 -0.2229  3.3683  0.3091
   26SAPC   O31 3427   5.487   0.967   6.707 -0.5540 -0.0693 -0.3004
   26SAPC   C31 3428   5.617   0.940   6.698  1.2917  0.3172  0.0444
   26SAPC   O32 3429   5.694   0.985   6.617  0.0889 -0.2987 -0.3751
   26SAPC   C32 3430   5.647   0.845   6.808 -0.3510 -0.1894  0.7442
   26SAPC   H2X 3431   5.720   0.775   6.762 -2.0021 -1.3120 -0.2723
   26SAPC   H2Y 3432   5.558   0.782   6.827 -0.4559 -0.4207 -0.4072
   26SAPC   C23 3433   5.753   1.369   7.107  0.0733 -0.0256 -0.6378
   26SAPC   H3R 3434   5.756   1.479   7.088 -2.8111  0.3784  0.7092
   26SAPC   H3S 3435   5.855   1.349   7.145 -0.0760  0.9937  0.3574
   26SAPC   C24 3436   5.649   1.320   7.212 -0.2412 -0.4934 -0.0007
   26SAPC   H4R 3437   5.704   1.256   7.284  0.7514 -0.1464 -0.4221
   26SAPC   H4S 3438   5.573   1.256   7.163 -0.8194 -0.2440  0.5519
   26SAPC   C25 3439   5.574   1.431   7.274  0.4901 -0.5076  0.0450
   26SAPC   H5R 3440   5.514   1.501   7.213 -1.1502  0.2026  2.3612
   26SAPC   C26 3441   5.554   1.445   7.403 -0.0047 -0.4635 -0.2429
   26SAPC   H6R 3442   5.489   1.525   7.442  0.5949  0.0433 -0.2573
   26SAPC   C27 3443   5.600   1.356   7.517 -0.5555  0.0759 -0.0130
   26SAPC   H7R 3444   5.666   1.270   7.492 -2.2977 -1.3451  0.0552
   26SAPC   H7S 3445   5.515   1.301   7.563  0.9444 -1.5928  0.9250
   26SAPC   C28 3446   5.676   1.443   7.618  0.8788  0.6188 -0.6586
   26SAPC   H8R 3447   5.771   1.477   7.576  1.2374 -1.8917 -2.1130
   26SAPC   C29 3448   5.649   1.483   7.745  0.0237 -0.8262 -0.1811
   26SAPC   H9R 3449   5.729   1.542   7.792 -1.0876  2.4501 -2.1358
   26SAPC  C210 3450   5.530   1.452   7.835 -0.0171 -0.0229  0.4080
   26SAPC  H10R 3451   5.451   1.397   7.779 -0.4430  1.6631 -0.7185
   26SAPC  H10S 3452   5.480   1.546   7.868 -0.5160  0.2282 -1.0078
   26SAPC  C211 3453   5.569   1.375   7.958  0.1852  0.0330  0.7028
   26SAPC  H11R 3454   5.637   1.292   7.933 -0.7645 -0.6810  0.4047
   26SAPC  C212 3455   5.517   1.390   8.081  0.1924  0.5120 -0.5622
   26SAPC  H12R 3456   5.542   1.327   8.167 -0.7930  0.6863 -0.1334
   26SAPC  C213 3457   5.416   1.493   8.135 -0.8770  0.4217 -0.0087
   26SAPC  H13R 3458   5.340   1.443   8.199  0.3969 -1.3262  0.2050
   26SAPC  H13S 3459   5.362   1.528   8.044 -1.4241 -0.7941 -0.1640
   26SAPC  C214 3460   5.484   1.603   8.211  0.2988  0.8834  0.2343
   26SAPC  H14R 3461   5.555   1.660   8.149 -1.2025 -0.1693 -2.6502
   26SAPC  C215 3462   5.458   1.641   8.338 -0.6776 -0.1270  0.1391
   26SAPC  H15R 3463   5.526   1.713   8.384 -0.3349  0.2763 -0.9854
   26SAPC  C216 3464   5.359   1.584   8.435  0.0873 -0.0243 -0.1314
   26SAPC  H16R 3465   5.289   1.508   8.392 -0.6305  0.5227  0.0394
   26SAPC  H16S 3466   5.295   1.658   8.487  0.9416  0.5073  0.1779
   26SAPC  C217 3467   5.461   1.509   8.528 -1.2319 -0.6831 -0.2191
   26SAPC  H17R 3468   5.561   1.481   8.490 -0.5191  2.6269 -1.0904
   26SAPC  H17S 3469   5.406   1.423   8.572  1.0714 -0.8020  2.7634
   26SAPC  C218 3470   5.479   1.613   8.646 -0.5236  0.3347  0.1997
   26SAPC  H18R 3471   5.396   1.655   8.707 -2.1167  2.5640 -3.2044
   26SAPC  H18S 3472   5.530   1.705   8.611 -0.8067  0.4557  0.0993
   26SAPC  C219 3473   5.580   1.558   8.751  0.1195  0.1985 -0.1568
   26SAPC  H19R 3474   5.620   1.640   8.815 -0.7368  1.5006 -1.2412
   26SAPC  H19S 3475   5.659   1.516   8.686  1.1508  0.4865  0.8669
   26SAPC  C220 3476   5.531   1.452   8.848  0.4134  0.4615  0.7566
   26SAPC  H20R 3477   5.500   1.355   8.803 -3.5090  2.1591 -0.6191
   26SAPC  H20S 3478   5.440   1.489   8.900  0.5723  1.2185  0.5054
   26SAPC  H20T 3479   5.607   1.420   8.923  0.5126 -1.7551 -0.2159
   26SAPC   C33 3480   5.688   0.923   6.933  0.0578  0.2680  0.3414
   26SAPC   H3X 3481   5.625   1.014   6.934 -1.6118 -0.8306 -0.0412
   26SAPC   H3Y 3482   5.790   0.964   6.916  0.8438 -1.4227  0.7449
   26SAPC   C34 3483   5.674   0.842   7.063  0.4526 -0.1193 -0.7875
   26SAPC   H4X 3484   5.766   0.786   7.092  1.0044  1.8557  1.7312
   26SAPC   H4Y 3485   5.591   0.770   7.048  1.8077 -1.8448 -0.3617
   26SAPC   C35 3486   5.640   0.933   7.183 -0.2277  0.1172  0.6523
   26SAPC   H5X 3487   5.544   0.985   7.162  0.2425  0.1053 -1.8883
   26SAPC   H5Y 3488   5.723   1.006   7.191 -0.9588  0.9631  0.7039
   26SAPC   C36 3489   5.624   0.863   7.318  0.5750 -0.1135  0.1235
   26SAPC   H6X 3490   5.713   0.802   7.341  0.0069 -2.3939 -3.0699
   26SAPC   H6Y 3491   5.542   0.789   7.310 -0.1073  0.6235  0.1200
   26SAPC   C37 3492   5.588   0.966   7.431  0.7149  0.2416 -0.0633
   26SAPC   H7X 3493   5.502   1.026   7.395 -1.0939 -1.9070  0.4581
   26SAPC   H7Y 3494   5.681   1.025   7.448  1.1925 -0.6424  0.4819
   26SAPC   C38 3495   5.543   0.903   7.567  0.5088  0.3723  0.9523
   26SAPC   H8X 3496   5.610   0.827   7.612  0.7236 -0.3069 -0.4550
   26SAPC   H8Y 3497   5.448   0.850   7.547  0.8986  0.0514 -0.1284
   26SAPC   C39 3498   5.504   1.013   7.670  0.0601  0.5497  0.3311
   26SAPC   H9X 3499   5.436   1.086   7.621  1.7351  1.7626 -0.2648
   26SAPC   H9Y 3500   5.599   1.068   7.685 -0.3085  1.1083  0.6623
   26SAPC  C310 3501   5.448   0.949   7.799  0.3450  0.0736 -0.7889
   26SAPC  H10X 3502   5.528   0.877   7.827 -1.5139 -1.2133  1.6665
   26SAPC  H10Y 3503   5.353   0.894   7.779  0.2186  0.8329 -2.4278
   26SAPC  C311 3504   5.429   1.047   7.917  0.4932 -0.8308 -0.2538
   26SAPC  H11X 3505   5.362   1.130   7.886  2.0205  0.7117  0.4221
   26SAPC  H11Y 3506   5.528   1.089   7.946 -0.2527  2.1471 -1.5957
   26SAPC  C312 3507   5.371   0.987   8.037  0.5677 -0.1181 -0.0992
   26SAPC  H12X 3508   5.434   0.900   8.066  0.6191 -0.1503 -0.3063
   26SAPC  H12Y 3509   5.272   0.944   8.010  0.2687  0.5580 -0.0863
   26SAPC  C313 3510   5.355   1.086   8.152 -0.2617 -0.5630  0.1910
   26SAPC  H13X 3511   5.314   1.184   8.117 -1.7711 -0.9801  0.7134
   26SAPC  H13Y 3512   5.461   1.103   8.180  0.0443  0.5026 -1.4644
   26SAPC  C314 3513   5.280   1.020   8.264  0.2449  0.2125 -0.1176
   26SAPC  H14X 3514   5.320   0.920   8.291  1.6703  0.4484 -1.2679
   26SAPC  H14Y 3515   5.176   1.011   8.225 -0.3901  1.0580  1.2799
   26SAPC  C315 3516   5.282   1.103   8.397 -0.9711  0.2296 -0.1694
   26SAPC  H15X 3517   5.266   1.209   8.371  0.0631  1.1183  2.5357
   26SAPC  H15Y 3518   5.382   1.096   8.444  0.5766  1.2077 -3.0566
   26SAPC  C316 3519   5.178   1.042   8.495  0.2800  0.2618  0.3217
   26SAPC  H16X 3520   5.197   0.933   8.501  0.2085  0.1805 -0.7840
   26SAPC  H16Y 3521   5.085   1.068   8.441  0.9412  0.2160 -0.8631
   26SAPC  C317 3522   5.158   1.107   8.629 -0.1543  1.5203 -0.1503
   26SAPC  H17X 3523   5.261   1.118   8.669  0.3419 -0.0358 -0.9342
   26SAPC  H17Y 3524   5.096   1.044   8.697  0.7099  1.0376  0.2029
   26SAPC  C318 3525   5.104   1.252   8.634 -0.7063  1.0877 -0.2227
   26SAPC  H18X 3526   5.088   1.269   8.742  0.1952  1.6395 -0.1680
   26SAPC  H18Y 3527   5.009   1.274   8.580 -0.6639  0.4851 -0.5522
   26SAPC  H18Z 3528   5.189   1.317   8.605  1.1896  0.5188  3.4990
   27SAPC     N 3529   1.863   3.635   6.982 -0.8088  0.4904 -0.1191
   27SAPC   C12 3530   1.869   3.485   7.014 -0.7447  0.6260  0.5635
   27SAPC  H12A 3531   1.789   3.438   6.958  0.1051  1.1087 -1.1403
   27SAPC  H12B 3532   1.862   3.461   7.119 -0.7514 -0.2592  0.3652
   27SAPC   C13 3533   1.860   3.648   6.834 -0.6389 -0.4079 -0.2875
   27SAPC  H13A 3534   1.784   3.589   6.785  1.0731 -2.4377 -0.6255
   27SAPC  H13B 3535   1.848   3.753   6.811 -0.4807 -0.3205  0.0305
   27SAPC  H13C 3536   1.958   3.626   6.795 -1.4827 -2.5035 -1.3687
   27SAPC   C14 3537   1.741   3.701   7.033 -0.3765  0.1713 -1.1069
   27SAPC  H14A 3538   1.723   3.800   6.994  1.1186 -0.0363 -2.3721
   27SAPC  H14B 3539   1.656   3.637   7.012 -1.3749  1.2293 -0.4545
   27SAPC  H14C 3540   1.755   3.700   7.140  1.8626  0.5446 -1.3585
   27SAPC   C15 3541   1.978   3.713   7.034  0.4556  0.3663 -0.2091
   27SAPC  H15A 3542   1.965   3.815   7.001  0.8060  0.0603 -1.3407
   27SAPC  H15B 3543   2.005   3.708   7.138 -0.3402  3.7580  0.2576
   27SAPC  H15C 3544   2.065   3.676   6.981  1.1714 -0.1402  1.2776
   27SAPC   C11 3545   1.998   3.410   6.965  0.0428 -0.4636 -0.3581
   27SAPC  H11A 3546   1.997   3.434   6.856 -1.0014 -2.0075 -0.7189
   27SAPC  H11B 3547   1.981   3.301   6.971  0.2338 -0.4102  1.8062
   27SAPC     P 3548   2.213   3.391   7.130  0.2240  0.0519  0.1030
   27SAPC   O13 3549   2.245   3.253   7.081 -0.4320  0.4052 -0.0167
   27SAPC   O14 3550   2.329   3.481   7.160  0.0440  0.0812  0.1484
   27SAPC   O12 3551   2.116   3.458   7.028  0.1307  0.5243  0.1684
   27SAPC   O11 3552   2.120   3.375   7.258 -0.2408 -0.1177 -0.3646
   27SAPC    C1 3553   2.041   3.460   7.332 -0.1471 -0.1357 -0.8195
   27SAPC    HA 3554   2.084   3.563   7.336  0.1192 -0.2167 -1.3799
   27SAPC    HB 3555   1.940   3.466   7.287 -0.7763 -1.6098  0.3385
   27SAPC    C2 3556   2.017   3.403   7.478 -0.5596 -0.2059  0.0558
   27SAPC    HS 3557   1.939   3.473   7.517 -1.4255 -0.4386 -1.2027
   27SAPC   O21 3558   2.143   3.396   7.558 -0.2189 -0.1862 -0.0073
   27SAPC   C21 3559   2.128   3.406   7.683 -0.3133 -0.0477  0.3452
   27SAPC   O22 3560   2.023   3.432   7.744 -0.2180  0.7572  0.0096
   27SAPC   C22 3561   2.273   3.388   7.741  0.9305 -1.0207  0.4475
   27SAPC   H2R 3562   2.346   3.383   7.657  0.4198 -0.7724 -0.0117
   27SAPC   H2S 3563   2.280   3.487   7.791 -2.1150 -1.1470  1.3053
   27SAPC    C3 3564   1.951   3.266   7.457  0.0385 -0.0488  0.4421
   27SAPC    HX 3565   2.026   3.189   7.427 -0.9810 -1.4211  1.3046
   27SAPC    HY 3566   1.876   3.267   7.375  0.9994 -1.1853 -0.4991
   27SAPC   O31 3567   1.898   3.215   7.576  0.6819  0.1497  0.2781
   27SAPC   C31 3568   1.782   3.270   7.611 -0.5199  0.9306 -0.4004
   27SAPC   O32 3569   1.717   3.346   7.545 -0.8478 -0.4278  0.0514
   27SAPC   C32 3570   1.752   3.241   7.761 -0.1986  0.6147 -0.5619
   27SAPC   H2X 3571   1.832   3.283   7.825 -0.3207  3.1744 -1.9551
   27SAPC   H2Y 3572   1.754   3.130   7.763  2.2026  0.4935 -3.1911
   27SAPC   C23 3573   2.296   3.272   7.836 -0.0830  0.9162 -0.0673
   27SAPC   H3R 3574   2.401   3.241   7.854  0.3035  0.4917 -2.7374
   27SAPC   H3S 3575   2.247   3.186   7.786 -0.9727  0.6100  1.2686
   27SAPC   C24 3576   2.230   3.288   7.979 -0.6694 -0.0444 -0.2911
   27SAPC   H4R 3577   2.227   3.183   8.016 -0.5897  0.7784  2.2036
   27SAPC   H4S 3578   2.123   3.315   7.964 -0.9484 -0.3586  0.9835
   27SAPC   C25 3579   2.307   3.385   8.059 -0.2270 -0.1088 -0.4652
   27SAPC   H5R 3580   2.402   3.418   8.015 -1.1962  1.4115 -1.4987
   27SAPC   C26 3581   2.274   3.428   8.185 -0.5134  0.1143  0.2488
   27SAPC   H6R 3582   2.344   3.495   8.237  1.8880 -2.1313  0.1718
   27SAPC   C27 3583   2.156   3.377   8.263  0.3942  0.5127 -0.0610
   27SAPC   H7R 3584   2.194   3.295   8.328 -1.4387 -0.3246  0.0005
   27SAPC   H7S 3585   2.082   3.327   8.197  2.0179 -0.7635 -1.0010
   27SAPC   C28 3586   2.080   3.479   8.338 -0.1163 -0.5581 -0.2422
   27SAPC   H8R 3587   1.989   3.512   8.286  0.1441  1.5749  0.5493
   27SAPC   C29 3588   2.117   3.535   8.454  0.0590  0.2270  0.1484
   27SAPC   H9R 3589   2.047   3.596   8.512 -1.0334  0.2083 -1.0817
   27SAPC  C210 3590   2.243   3.502   8.537  0.4942 -0.1115  0.5934
   27SAPC  H10R 3591   2.311   3.590   8.534 -0.5241  0.6960  0.2671
   27SAPC  H10S 3592   2.304   3.427   8.483 -0.6243 -0.6533  0.0397
   27SAPC  C211 3593   2.212   3.444   8.670 -0.6714  0.4306  0.2201
   27SAPC  H11R 3594   2.149   3.354   8.666  1.3266 -1.0773  0.9061
   27SAPC  C212 3595   2.250   3.497   8.786  0.7524  0.2104 -0.2675
   27SAPC  H12R 3596   2.221   3.451   8.881  4.0166 -0.5633  0.4713
   27SAPC  C213 3597   2.325   3.627   8.807 -0.1231  0.5408 -0.4278
   27SAPC  H13R 3598   2.425   3.630   8.757 -0.2476  0.7115 -0.6683
   27SAPC  H13S 3599   2.355   3.635   8.914 -3.6836  2.3243  0.5737
   27SAPC  C214 3600   2.251   3.754   8.775  0.1100 -0.1598  0.5688
   27SAPC  H14R 3601   2.196   3.763   8.681 -3.1716 -0.9019  2.2586
   27SAPC  C215 3602   2.225   3.861   8.859 -0.8056 -0.6750  0.0428
   27SAPC  H15R 3603   2.183   3.953   8.815 -2.7988  0.0546  3.1761
   27SAPC  C216 3604   2.280   3.871   9.002  0.2598  0.2759 -0.0488
   27SAPC  H16R 3605   2.386   3.839   9.010 -0.0350 -0.6399  0.4378
   27SAPC  H16S 3606   2.218   3.802   9.064  0.2957 -0.0068 -0.3278
   27SAPC  C217 3607   2.261   4.008   9.074  0.5888  0.1767  0.6708
   27SAPC  H17R 3608   2.151   4.022   9.083 -0.0940 -3.7172  0.4720
   27SAPC  H17S 3609   2.306   4.090   9.015 -2.0700  0.5293 -1.0729
   27SAPC  C218 3610   2.317   4.012   9.215 -0.2885 -0.3662  0.3024
   27SAPC  H18R 3611   2.427   4.002   9.201  0.0470  2.9494 -0.2044
   27SAPC  H18S 3612   2.275   3.924   9.269  0.1995  0.5899  2.3331
   27SAPC  C219 3613   2.278   4.141   9.281 -0.4161 -0.4552  0.0946
   27SAPC  H19R 3614   2.168   4.152   9.291 -0.4660  1.1378 -1.5822
   27SAPC  H19S 3615   2.308   4.230   9.222  2.5891 -0.5443  1.2660
   27SAPC  C220 3616   2.334   4.164   9.421 -0.0526  0.7904 -0.0060
   27SAPC  H20R 3617   2.295   4.091   9.495 -0.3241 -1.3172 -2.1022
   27SAPC  H20S 3618   2.309   4.269   9.449  1.9867  1.1186  0.8018
   27SAPC  H20T 3619   2.445   4.159   9.410 -0.1022 -0.2454 -0.0660
   27SAPC   C33 3620   1.619   3.301   7.813 -0.0913  0.2837 -0.3537
   27SAPC   H3X 3621   1.551   3.257   7.737  1.4983 -1.4891 -0.8123
   27SAPC   H3Y 3622   1.604   3.411   7.803 -0.4978  0.3157  0.4809
   27SAPC   C34 3623   1.591   3.274   7.959  0.1492  0.2902  0.1384
   27SAPC   H4X 3624   1.630   3.178   7.998 -0.1717  0.9440  2.1991
   27SAPC   H4Y 3625   1.483   3.271   7.985  0.3314  2.3916  1.4135
   27SAPC   C35 3626   1.645   3.384   8.043  0.3593 -0.3629 -0.2487
   27SAPC   H5X 3627   1.591   3.476   8.012  0.1972  0.1985  1.5845
   27SAPC   H5Y 3628   1.756   3.391   8.043  0.3551  0.0280 -1.8217
   27SAPC   C36 3629   1.603   3.389   8.198 -0.6280  0.6394  0.2866
   27SAPC   H6X 3630   1.608   3.289   8.247 -1.6948  1.0084  1.1693
   27SAPC   H6Y 3631   1.498   3.423   8.209 -0.3810  1.0865  1.3817
   27SAPC   C37 3632   1.685   3.480   8.282  1.2003 -0.3306  0.3208
   27SAPC   H7X 3633   1.668   3.579   8.235 -1.0244 -0.2004  1.3073
   27SAPC   H7Y 3634   1.790   3.443   8.275  1.5744  0.9007 -1.1789
   27SAPC   C38 3635   1.633   3.488   8.429 -0.1445 -0.1935  0.0673
   27SAPC   H8X 3636   1.637   3.379   8.453  0.5129 -0.0390  0.6954
   27SAPC   H8Y 3637   1.532   3.532   8.438  0.4183  1.5675 -1.6462
   27SAPC   C39 3638   1.727   3.569   8.529 -1.2462 -0.2919 -0.0481
   27SAPC   H9X 3639   1.749   3.666   8.480 -0.5042  0.0312  0.8872
   27SAPC   H9Y 3640   1.827   3.519   8.533 -0.8780  0.2576 -1.7808
   27SAPC  C310 3641   1.666   3.588   8.664  0.1765  0.1436  0.6716
   27SAPC  H10X 3642   1.671   3.489   8.715 -0.4070 -0.7816 -1.0170
   27SAPC  H10Y 3643   1.560   3.621   8.666 -0.8677 -2.7862  3.2060
   27SAPC  C311 3644   1.752   3.692   8.741  0.4172 -0.3357 -1.1829
   27SAPC  H11X 3645   1.733   3.791   8.694  1.6908  0.5996  0.1810
   27SAPC  H11Y 3646   1.859   3.666   8.737  0.2124 -1.1560 -1.3882
   27SAPC  C312 3647   1.710   3.695   8.891 -1.0567  0.0880  0.0130
   27SAPC  H12X 3648   1.730   3.603   8.950 -0.8029  0.3106  0.2739
   27SAPC  H12Y 3649   1.601   3.719   8.897 -0.9346  0.8963 -0.7904
   27SAPC  C313 3650   1.798   3.816   8.953  0.5048 -0.0311  0.1054
   27SAPC  H13X 3651   1.798   3.900   8.881  1.5920  0.2050  0.3603
   27SAPC  H13Y 3652   1.906   3.789   8.944 -0.2471 -3.2630 -0.7099
   27SAPC  C314 3653   1.750   3.853   9.092 -0.3498  0.9534  0.0622
   27SAPC  H14X 3654   1.776   3.766   9.157 -0.7578 -0.6589 -1.8540
   27SAPC  H14Y 3655   1.639   3.862   9.093 -0.3966  1.1324  2.7444
   27SAPC  C315 3656   1.806   3.983   9.142  0.1934  0.6523  1.1645
   27SAPC  H15X 3657   1.799   4.061   9.063 -0.2666 -0.0501  0.5075
   27SAPC  H15Y 3658   1.916   3.973   9.153 -0.0308 -1.0455  2.0780
   27SAPC  C316 3659   1.727   4.027   9.270  0.2904  0.2303  0.2236
   27SAPC  H16X 3660   1.761   3.959   9.351 -0.5755 -0.2346  0.2142
   27SAPC  H16Y 3661   1.618   4.006   9.273  0.4247 -0.6371 -0.5385
   27SAPC  C317 3662   1.755   4.169   9.311 -0.2258  0.0944 -0.9728
   27SAPC  H17X 3663   1.713   4.240   9.237 -4.0580 -1.1041 -0.1447
   27SAPC  H17Y 3664   1.865   4.185   9.314 -0.3259  0.6751  1.4730
   27SAPC  C318 3665   1.698   4.194   9.452  0.7717 -0.1007  0.2981
   27SAPC  H18X 3666   1.733   4.118   9.525  0.4515  0.6991  1.3061
   27SAPC  H18Y 3667   1.587   4.189   9.448  0.5575  0.0520  3.5635
   27SAPC  H18Z 3668   1.722   4.299   9.480  2.2696 -0.2566 -0.2846
   28SAPC     N 3669   2.314   4.760   6.247 -0.1457  0.3307  0.4374
   28SAPC   C12 3670   2.400   4.668   6.341  0.0807  0.5188 -0.4292
   28SAPC  H12A 3671   2.432   4.589   6.274  0.4922  0.4279 -0.1216
   28SAPC  H12B 3672   2.340   4.626   6.420  0.4568  1.4097  0.3477
   28SAPC   C13 3673   2.211   4.681   6.173  0.3512  0.4909 -0.9167
   28SAPC  H13A 3674   2.168   4.742   6.094 -1.1157 -2.3258 -2.4427
   28SAPC  H13B 3675   2.264   4.601   6.124  2.1336  1.5817 -0.8661
   28SAPC  H13C 3676   2.121   4.649   6.222 -0.0810  1.3565 -1.1245
   28SAPC   C14 3677   2.251   4.867   6.335 -0.4929 -0.3608 -0.2442
   28SAPC  H14A 3678   2.170   4.835   6.398  0.6927 -0.1488  1.4558
   28SAPC  H14B 3679   2.329   4.899   6.403 -1.6031  0.7660  0.5299
   28SAPC  H14C 3680   2.219   4.955   6.283  0.9470  0.2067 -0.2209
   28SAPC   C15 3681   2.406   4.820   6.143 -0.5070 -0.7581  0.4226
   28SAPC  H15A 3682   2.397   4.759   6.054 -0.9521 -2.4858  1.6039
   28SAPC  H15B 3683   2.383   4.925   6.131  2.3445 -0.1371 -0.1840
   28SAPC  H15C 3684   2.507   4.824   6.181 -0.4589  1.9672  0.1881
   28SAPC   C11 3685   2.519   4.730   6.419  0.8705 -0.0907 -0.4436
   28SAPC  H11A 3686   2.588   4.769   6.341  0.7105  0.6716 -0.2101
   28SAPC  H11B 3687   2.571   4.655   6.482  1.7837  1.7643  1.1257
   28SAPC     P 3688   2.572   4.904   6.599 -0.1026 -0.1805 -0.5134
   28SAPC   O13 3689   2.710   4.888   6.556  0.1952 -0.3434  0.3323
   28SAPC   O14 3690   2.529   5.037   6.626  0.7541 -0.1590  0.5842
   28SAPC   O12 3691   2.478   4.843   6.499  0.6171 -0.4397 -0.3792
   28SAPC   O11 3692   2.558   4.801   6.720 -0.2177  0.3180 -0.7726
   28SAPC    C1 3693   2.448   4.815   6.812  0.5868 -0.0151  0.8724
   28SAPC    HA 3694   2.356   4.837   6.754  2.8201  1.3443 -2.4949
   28SAPC    HB 3695   2.422   4.713   6.849 -0.8977  0.5217  1.3933
   28SAPC    C2 3696   2.464   4.908   6.934  0.1129  0.1479  0.4243
   28SAPC    HS 3697   2.375   4.882   6.995 -1.1551 -0.0329 -1.4318
   28SAPC   O21 3698   2.465   5.051   6.897 -0.3487 -0.4232  0.3786
   28SAPC   C21 3699   2.433   5.144   6.991 -0.3618  1.0377  1.0829
   28SAPC   O22 3700   2.409   5.108   7.104 -0.7110  0.4316 -0.6971
   28SAPC   C22 3701   2.411   5.279   6.934 -1.2788 -0.4702  0.0260
   28SAPC   H2R 3702   2.487   5.302   6.855 -1.0441 -1.9738 -0.2111
   28SAPC   H2S 3703   2.314   5.277   6.879 -0.5579  0.7058 -1.3938
   28SAPC    C3 3704   2.596   4.871   7.025  0.1183  0.2726 -0.0432
   28SAPC    HX 3705   2.600   4.938   7.114 -1.1986  1.8317 -1.1018
   28SAPC    HY 3706   2.680   4.906   6.962 -0.2514  2.0750  0.3957
   28SAPC   O31 3707   2.613   4.731   7.056 -0.3706  0.1198  0.2393
   28SAPC   C31 3708   2.715   4.698   7.125  0.0929  0.8745 -0.1643
   28SAPC   O32 3709   2.803   4.768   7.166 -0.1003 -0.0234  0.0732
   28SAPC   C32 3710   2.702   4.552   7.165  0.0092 -0.1606 -0.0294
   28SAPC   H2X 3711   2.760   4.502   7.084  1.5267  0.1902  0.8131
   28SAPC   H2Y 3712   2.594   4.524   7.173 -0.3746  0.6436 -1.9026
   28SAPC   C23 3713   2.413   5.387   7.057 -0.5136  0.2245  0.4553
   28SAPC   H3R 3714   2.515   5.394   7.101 -1.6667  2.3248  3.0486
   28SAPC   H3S 3715   2.335   5.358   7.130  0.0448 -0.2536  0.8810
   28SAPC   C24 3716   2.376   5.536   7.018  0.0317  0.0536  0.1511
   28SAPC   H4R 3717   2.278   5.538   6.966  0.1288 -1.8408 -0.1563
   28SAPC   H4S 3718   2.368   5.589   7.116 -2.2729 -2.4075  1.4301
   28SAPC   C25 3719   2.478   5.593   6.925  0.7629  0.1993  0.1736
   28SAPC   H5R 3720   2.482   5.546   6.825 -3.5253  0.9009 -0.5308
   28SAPC   C26 3721   2.556   5.693   6.963 -0.2977  0.5292 -0.1901
   28SAPC   H6R 3722   2.634   5.711   6.888  0.5957  0.3605  0.6881
   28SAPC   C27 3723   2.566   5.764   7.096  0.1101 -0.6273 -0.1858
   28SAPC   H7R 3724   2.464   5.768   7.139  0.3791 -2.9332  0.8394
   28SAPC   H7S 3725   2.614   5.864   7.089  1.5776 -1.1085  1.9773
   28SAPC   C28 3726   2.637   5.683   7.196 -0.1680  0.1144 -0.6059
   28SAPC   H8R 3727   2.679   5.586   7.164  1.8786  0.6050  0.4060
   28SAPC   C29 3728   2.669   5.723   7.317  0.1476  0.2158 -0.5396
   28SAPC   H9R 3729   2.710   5.650   7.389 -0.4879  0.1732 -0.2157
   28SAPC  C210 3730   2.619   5.852   7.377 -0.4307  0.4963  0.0604
   28SAPC  H10R 3731   2.545   5.904   7.313  1.6689  1.4232 -1.7480
   28SAPC  H10S 3732   2.708   5.918   7.388  1.2736 -1.5900 -0.4938
   28SAPC  C211 3733   2.542   5.822   7.505 -0.3003 -0.4905 -0.0055
   28SAPC  H11R 3734   2.466   5.744   7.496 -2.4291  1.4291  0.5042
   28SAPC  C212 3735   2.562   5.881   7.623  0.7714 -0.6520  0.3879
   28SAPC  H12R 3736   2.515   5.838   7.713  0.4178 -2.4736 -0.6223
   28SAPC  C213 3737   2.662   5.990   7.652 -0.6754 -0.6853 -0.0463
   28SAPC  H13R 3738   2.768   5.974   7.622 -0.2151  2.1752 -0.2623
   28SAPC  H13S 3739   2.670   6.008   7.762 -0.5595 -1.1159  0.0161
   28SAPC  C214 3740   2.623   6.129   7.593 -0.3717 -0.6493  0.0920
   28SAPC  H14R 3741   2.661   6.155   7.494  2.8163  0.8519  1.5634
   28SAPC  C215 3742   2.548   6.224   7.658 -0.0712 -0.1726  0.5612
   28SAPC  H15R 3743   2.531   6.316   7.601 -1.4544  1.0634  2.8085
   28SAPC  C216 3744   2.477   6.215   7.794  0.3668 -0.9501  0.7717
   28SAPC  H16R 3745   2.498   6.116   7.840  2.2085 -0.3861  1.1984
   28SAPC  H16S 3746   2.368   6.230   7.777  0.5327  2.5903  2.0540
   28SAPC  C217 3747   2.521   6.316   7.894 -0.2630  0.6031  0.2808
   28SAPC  H17R 3748   2.476   6.283   7.990 -0.0264  0.2008  0.2541
   28SAPC  H17S 3749   2.488   6.421   7.875  0.0302  0.7992  0.8399
   28SAPC  C218 3750   2.675   6.311   7.925  0.2345  0.7389  1.0804
   28SAPC  H18R 3751   2.737   6.288   7.836  0.5127 -0.7673  1.6359
   28SAPC  H18S 3752   2.695   6.227   7.995 -0.6207 -0.0330  0.4311
   28SAPC  C219 3753   2.733   6.446   7.978 -0.8425  0.2164 -0.9710
   28SAPC  H19R 3754   2.832   6.434   8.026 -1.2999 -2.2605 -0.5084
   28SAPC  H19S 3755   2.679   6.475   8.070  1.4575  1.1483  0.1660
   28SAPC  C220 3756   2.726   6.563   7.870 -0.1565 -0.8171  0.7322
   28SAPC  H20R 3757   2.776   6.535   7.775  0.3772  0.3764  0.6435
   28SAPC  H20S 3758   2.759   6.657   7.918 -3.4628  0.3211  1.0009
   28SAPC  H20T 3759   2.619   6.585   7.850  0.0288 -0.5745 -0.0276
   28SAPC   C33 3760   2.773   4.530   7.293 -0.7717 -0.1376 -0.0010
   28SAPC   H3X 3761   2.724   4.587   7.375  1.8756 -0.3658  1.8685
   28SAPC   H3Y 3762   2.882   4.554   7.291 -1.1011  1.5862  0.6531
   28SAPC   C34 3763   2.764   4.378   7.335  0.3103 -0.1571 -0.1479
   28SAPC   H4X 3764   2.787   4.319   7.244 -1.2455 -0.8121 -0.1454
   28SAPC   H4Y 3765   2.661   4.352   7.367 -0.4775  1.9445 -0.8591
   28SAPC   C35 3766   2.863   4.335   7.449 -0.1878  0.0082  0.0978
   28SAPC   H5X 3767   2.969   4.349   7.416 -0.2128 -1.5623 -0.7619
   28SAPC   H5Y 3768   2.858   4.224   7.454 -0.7077  0.0080 -0.3963
   28SAPC   C36 3769   2.830   4.399   7.582 -0.1060 -0.1919  0.3269
   28SAPC   H6X 3770   2.720   4.386   7.594 -0.4726  2.3124  0.2482
   28SAPC   H6Y 3771   2.842   4.509   7.573 -2.5501  0.1470  0.5029
   28SAPC   C37 3772   2.907   4.338   7.707  1.0874  0.3971 -0.3649
   28SAPC   H7X 3773   3.015   4.362   7.702  0.9556  1.3611  1.0719
   28SAPC   H7Y 3774   2.893   4.227   7.709 -2.7835  0.6714 -2.3589
   28SAPC   C38 3775   2.860   4.378   7.850  0.5166 -0.2329  0.1424
   28SAPC   H8X 3776   2.767   4.320   7.867  0.6018 -0.2643  0.5245
   28SAPC   H8Y 3777   2.835   4.486   7.855 -1.3594 -0.6047 -0.2424
   28SAPC   C39 3778   2.958   4.343   7.967  0.5666 -0.8196 -0.4770
   28SAPC   H9X 3779   3.048   4.409   7.962  1.0542 -1.4565 -0.1634
   28SAPC   H9Y 3780   2.983   4.236   7.952  2.3249 -0.4412 -0.4693
   28SAPC  C310 3781   2.883   4.361   8.098  0.0939 -0.3225 -0.0558
   28SAPC  H10X 3782   2.779   4.324   8.086 -0.5171  1.0277  0.9592
   28SAPC  H10Y 3783   2.881   4.465   8.136  0.2309 -0.6372  0.8319
   28SAPC  C311 3784   2.951   4.280   8.205  0.2633 -0.5485 -0.5307
   28SAPC  H11X 3785   3.050   4.328   8.215 -0.1829  0.1314  0.8106
   28SAPC  H11Y 3786   2.972   4.176   8.171 -1.8617 -0.6943 -1.5561
   28SAPC  C312 3787   2.872   4.295   8.339 -0.9357 -0.0443  0.4051
   28SAPC  H12X 3788   2.853   4.203   8.398 -0.4576  0.1211  0.8257
   28SAPC  H12Y 3789   2.770   4.336   8.323 -0.6644  0.4356 -0.1387
   28SAPC  C313 3790   2.936   4.402   8.424 -0.4316 -0.7006 -0.2609
   28SAPC  H13X 3791   2.962   4.490   8.360 -2.5920 -0.5507 -1.0215
   28SAPC  H13Y 3792   3.031   4.362   8.466 -1.5874 -2.5026  0.7531
   28SAPC  C314 3793   2.830   4.456   8.519 -0.1657  0.0953 -0.1583
   28SAPC  H14X 3794   2.768   4.367   8.543 -1.2938  0.7711 -0.4637
   28SAPC  H14Y 3795   2.753   4.524   8.477  0.1860  1.2857  1.0497
   28SAPC  C315 3796   2.881   4.515   8.642  0.4007  0.9248 -0.5520
   28SAPC  H15X 3797   2.798   4.568   8.693  1.3524  1.8785  0.0414
   28SAPC  H15Y 3798   2.963   4.587   8.621  0.4679  1.5674  1.7088
   28SAPC  C316 3799   2.934   4.414   8.736 -1.4189  0.2954  0.0028
   28SAPC  H16X 3800   2.995   4.334   8.689 -0.1935  0.8652  0.5799
   28SAPC  H16Y 3801   2.847   4.360   8.780 -0.8804  0.2303  1.0088
   28SAPC  C317 3802   3.027   4.468   8.844 -0.1203 -1.2053 -0.6702
   28SAPC  H17X 3803   3.116   4.519   8.801  0.1162 -0.3379  0.7832
   28SAPC  H17Y 3804   3.063   4.377   8.895 -0.8885 -0.6024  1.0359
   28SAPC  C318 3805   2.964   4.567   8.953  0.1169  0.5516  0.6835
   28SAPC  H18X 3806   2.909   4.653   8.909  0.1282 -0.7060 -2.0176
   28SAPC  H18Y 3807   3.040   4.600   9.027  3.1065 -0.7617 -1.6060
   28SAPC  H18Z 3808   2.897   4.506   9.017  0.6892 -0.8955 -0.0409
   29SAPC     N 3809   4.455   2.355   6.234 -0.0592 -0.9510 -0.1009
   29SAPC   C12 3810   4.379   2.294   6.350  0.0921  0.1764 -0.0382
   29SAPC  H12A 3811   4.442   2.216   6.391  0.1986 -0.2415 -0.9888
   29SAPC  H12B 3812   4.292   2.248   6.306 -1.7366  1.1927  2.2822
   29SAPC   C13 3813   4.367   2.444   6.140  0.0561  0.4719 -0.1296
   29SAPC  H13A 3814   4.309   2.385   6.071 -0.5177  0.3344  0.4677
   29SAPC  H13B 3815   4.301   2.506   6.199  2.1571  3.4671 -0.6510
   29SAPC  H13C 3816   4.425   2.515   6.082 -1.1481  0.7625 -1.0075
   29SAPC   C14 3817   4.564   2.448   6.295  0.8167  0.1479 -0.4057
   29SAPC  H14A 3818   4.623   2.497   6.219  2.7733 -0.8135  0.4137
   29SAPC  H14B 3819   4.521   2.527   6.355  1.2441 -0.5769  0.9065
   29SAPC  H14C 3820   4.632   2.400   6.365  0.4592 -0.9639 -0.7986
   29SAPC   C15 3821   4.523   2.251   6.152 -0.0111 -0.3225 -0.9096
   29SAPC  H15A 3822   4.569   2.297   6.066  2.4045 -1.0899 -0.1251
   29SAPC  H15B 3823   4.603   2.202   6.206  0.3184 -1.9760 -2.8106
   29SAPC  H15C 3824   4.456   2.173   6.122 -0.4362 -0.1892 -0.3209
   29SAPC   C11 3825   4.333   2.390   6.464 -0.3700 -0.1496  0.4717
   29SAPC  H11A 3826   4.421   2.420   6.525 -0.4912  1.5490 -0.1543
   29SAPC  H11B 3827   4.261   2.333   6.526 -0.6399  0.4291  0.6942
   29SAPC     P 3828   4.289   2.653   6.454  0.0951 -0.2496  0.0659
   29SAPC   O13 3829   4.416   2.699   6.400  0.1626  0.6095  0.1717
   29SAPC   O14 3830   4.169   2.735   6.424  0.1428  0.0940 -0.5851
   29SAPC   O12 3831   4.270   2.506   6.412  0.0147  0.3085  0.6421
   29SAPC   O11 3832   4.291   2.648   6.611  0.2565 -0.0809  0.4711
   29SAPC    C1 3833   4.194   2.565   6.675 -0.4582 -0.8592 -1.1604
   29SAPC    HA 3834   4.112   2.534   6.607 -0.5345 -0.1883 -1.3750
   29SAPC    HB 3835   4.246   2.485   6.733  0.3888  2.2922  2.8817
   29SAPC    C2 3836   4.125   2.635   6.793 -0.2104 -0.4554 -0.6679
   29SAPC    HS 3837   4.072   2.723   6.750  0.1661  0.7211  1.1458
   29SAPC   O21 3838   4.231   2.671   6.879  0.4072 -1.0334  0.3477
   29SAPC   C21 3839   4.209   2.794   6.940 -0.3791 -0.4773 -0.3784
   29SAPC   O22 3840   4.131   2.876   6.905 -0.5265  0.9971 -0.1579
   29SAPC   C22 3841   4.315   2.812   7.042 -0.4126  0.5924 -0.2668
   29SAPC   H2R 3842   4.300   2.757   7.138  0.8890  0.6903  0.0184
   29SAPC   H2S 3843   4.412   2.774   7.003  0.3152  0.1682  1.8017
   29SAPC    C3 3844   4.030   2.547   6.877 -0.0561  0.7692 -0.2880
   29SAPC    HX 3845   4.091   2.468   6.923 -0.9055  1.0710  1.4437
   29SAPC    HY 3846   3.945   2.503   6.821  0.8827 -1.0496 -0.3318
   29SAPC   O31 3847   3.990   2.615   6.994  0.0896 -0.0172 -0.0771
   29SAPC   C31 3848   3.883   2.692   6.984  0.2281 -0.4810 -0.2494
   29SAPC   O32 3849   3.829   2.722   6.880  0.8726 -0.3619  0.3495
   29SAPC   C32 3850   3.846   2.749   7.122 -0.1247  0.1948 -0.1245
   29SAPC   H2X 3851   3.893   2.677   7.191 -2.3914 -0.5127  0.7747
   29SAPC   H2Y 3852   3.736   2.762   7.136  0.2514  4.7055  0.3803
   29SAPC   C23 3853   4.342   2.961   7.069 -0.3158 -0.2865 -0.2604
   29SAPC   H3R 3854   4.244   3.003   7.100  0.6499  0.4881  1.9841
   29SAPC   H3S 3855   4.379   3.020   6.982 -2.1115 -0.4060 -1.1669
   29SAPC   C24 3856   4.425   2.985   7.197 -0.2525 -0.2903 -0.0485
   29SAPC   H4R 3857   4.376   2.934   7.283  0.5906  1.3719  1.5001
   29SAPC   H4S 3858   4.438   3.090   7.231  1.9870 -0.3777 -0.4323
   29SAPC   C25 3859   4.561   2.935   7.181  0.1359  0.3123 -0.6015
   29SAPC   H5R 3860   4.606   2.944   7.081 -2.4934 -0.8763 -2.0016
   29SAPC   C26 3861   4.628   2.891   7.288  0.2460  0.1377 -0.2498
   29SAPC   H6R 3862   4.735   2.864   7.283  0.0463 -0.8137  0.3511
   29SAPC   C27 3863   4.580   2.896   7.433  0.5586  0.3155  0.5216
   29SAPC   H7R 3864   4.503   2.816   7.445  0.3788  0.6586  1.8335
   29SAPC   H7S 3865   4.519   2.986   7.453  0.5318  0.6410 -0.9401
   29SAPC   C28 3866   4.691   2.873   7.528  0.2796 -0.2079 -0.3732
   29SAPC   H8R 3867   4.761   2.796   7.491 -0.3620 -1.1173  0.2750
   29SAPC   C29 3868   4.714   2.923   7.650  0.9677 -0.2546  0.3257
   29SAPC   H9R 3869   4.806   2.890   7.700  2.0346  0.7114 -0.9105
   29SAPC  C210 3870   4.629   3.020   7.727 -0.0778  0.0879  0.0546
   29SAPC  H10R 3871   4.546   2.977   7.787 -0.1712  0.5665  0.2746
   29SAPC  H10S 3872   4.589   3.089   7.650  0.7710  0.2338 -0.2669
   29SAPC  C211 3873   4.718   3.101   7.821 -0.4035  0.1383  0.0442
   29SAPC  H11R 3874   4.766   3.187   7.772 -1.4626  1.1147  0.6726
   29SAPC  C212 3875   4.742   3.077   7.954 -0.0469  0.0779 -0.2972
   29SAPC  H12R 3876   4.807   3.140   8.017 -0.3311 -0.8289  0.9228
   29SAPC  C213 3877   4.685   2.962   8.037  0.6878  0.4668  0.3134
   29SAPC  H13R 3878   4.622   2.890   7.980  1.7228 -0.8028  0.6952
   29SAPC  H13S 3879   4.606   3.000   8.104 -2.3879 -1.3900 -2.0017
   29SAPC  C214 3880   4.783   2.879   8.116  0.8515  0.3950 -0.0754
   29SAPC  H14R 3881   4.884   2.867   8.074  0.3057  1.1882 -1.6835
   29SAPC  C215 3882   4.760   2.844   8.246  0.5035 -0.0561 -0.0989
   29SAPC  H15R 3883   4.825   2.773   8.300  0.4446 -0.7892 -0.9635
   29SAPC  C216 3884   4.643   2.879   8.327  0.6683 -0.2901 -0.1007
   29SAPC  H16R 3885   4.626   2.796   8.399  2.0165  1.3198  2.2198
   29SAPC  H16S 3886   4.548   2.904   8.275 -0.3455 -2.8261  0.3456
   29SAPC  C217 3887   4.689   3.001   8.412 -0.2531  0.5105  0.1496
   29SAPC  H17R 3888   4.695   3.083   8.337  2.0684 -0.5925 -0.9754
   29SAPC  H17S 3889   4.793   2.982   8.448 -0.0171  1.2666 -0.1033
   29SAPC  C218 3890   4.628   3.036   8.540 -0.3238 -0.6855  0.2492
   29SAPC  H18R 3891   4.694   3.105   8.598  0.7947  0.1083 -1.8666
   29SAPC  H18S 3892   4.618   2.947   8.605 -0.1183  0.7560  2.3761
   29SAPC  C219 3893   4.502   3.115   8.505  0.2260 -0.2608  0.2396
   29SAPC  H19R 3894   4.439   3.047   8.443 -0.2285  0.2488  0.1361
   29SAPC  H19S 3895   4.514   3.194   8.428  2.8764 -0.3174  0.5143
   29SAPC  C220 3896   4.423   3.159   8.630 -0.1819  0.2141  0.3750
   29SAPC  H20R 3897   4.332   3.212   8.595  1.0302  0.5808 -2.5121
   29SAPC  H20S 3898   4.489   3.228   8.688  0.6103 -1.1701  1.1937
   29SAPC  H20T 3899   4.400   3.066   8.687  1.2627 -1.3303 -1.4335
   29SAPC   C33 3900   3.902   2.891   7.150 -0.4236  0.3460  0.3892
   29SAPC   H3X 3901   3.875   2.955   7.064  3.0276  0.1439 -1.0144
   29SAPC   H3Y 3902   4.012   2.878   7.145 -0.4752  0.2010 -0.7000
   29SAPC   C34 3903   3.839   2.951   7.289 -0.3500 -0.3329  0.5906
   29SAPC   H4X 3904   3.775   2.875   7.337 -0.7997  0.6299  1.5621
   29SAPC   H4Y 3905   3.766   3.031   7.262  0.9227  0.1802 -1.6250
   29SAPC   C35 3906   3.947   3.009   7.385  0.8571 -0.2891  0.1938
   29SAPC   H5X 3907   3.900   3.069   7.465  0.1137 -1.8837  1.0064
   29SAPC   H5Y 3908   4.018   3.071   7.326  0.7220 -0.7908 -0.5173
   29SAPC   C36 3909   4.028   2.901   7.454 -0.3622  0.6605  0.5535
   29SAPC   H6X 3910   4.029   2.812   7.387  1.0795 -0.4350  1.9488
   29SAPC   H6Y 3911   3.974   2.866   7.545 -0.3913 -0.3220  0.1724
   29SAPC   C37 3912   4.172   2.927   7.487  0.3037  0.0313  0.1358
   29SAPC   H7X 3913   4.212   2.986   7.401 -3.0467 -1.5870 -2.7964
   29SAPC   H7Y 3914   4.223   2.830   7.503 -2.5764 -1.7177 -0.5783
   29SAPC   C38 3915   4.175   3.016   7.617 -0.2922  0.4206  0.7174
   29SAPC   H8X 3916   4.090   3.086   7.616 -0.6042  0.1708 -2.6705
   29SAPC   H8Y 3917   4.270   3.074   7.616  1.6244 -2.4790  0.1162
   29SAPC   C39 3918   4.171   2.928   7.744  0.0271 -0.4584 -0.1467
   29SAPC   H9X 3919   4.265   2.869   7.748  1.1205  1.1032 -1.6686
   29SAPC   H9Y 3920   4.094   2.848   7.749 -0.9268  0.4601  0.5672
   29SAPC  C310 3921   4.161   3.006   7.879 -0.2782 -0.1952 -0.3012
   29SAPC  H10X 3922   4.070   3.071   7.877 -0.9041 -1.0311 -2.4979
   29SAPC  H10Y 3923   4.254   3.066   7.879  0.1661 -0.8794 -0.2222
   29SAPC  C311 3924   4.149   2.923   8.008 -0.5346  0.0383 -0.0249
   29SAPC  H11X 3925   4.229   2.847   7.996 -0.6706 -0.0333 -0.4784
   29SAPC  H11Y 3926   4.057   2.862   7.998 -0.2418 -0.5171  0.5345
   29SAPC  C312 3927   4.165   2.993   8.141  0.2205 -1.1885 -0.4709
   29SAPC  H12X 3928   4.080   3.060   8.163  0.2409 -1.1532 -0.4979
   29SAPC  H12Y 3929   4.251   3.063   8.153 -1.5618  0.9106  0.7842
   29SAPC  C313 3930   4.153   2.893   8.257 -0.2220  0.4249 -0.3778
   29SAPC  H13X 3931   4.044   2.870   8.259 -0.0623 -0.3547 -0.3368
   29SAPC  H13Y 3932   4.169   2.950   8.351  0.8778 -0.3928 -0.0604
   29SAPC  C314 3933   4.236   2.762   8.244 -0.1121  0.2859 -0.2471
   29SAPC  H14X 3934   4.344   2.775   8.223 -0.2011 -0.8725 -1.5460
   29SAPC  H14Y 3935   4.196   2.702   8.160  2.6613 -0.9055 -0.8019
   29SAPC  C315 3936   4.216   2.678   8.369 -0.3228  0.2028 -0.1525
   29SAPC  H15X 3937   4.274   2.584   8.362 -1.8914 -0.9371  1.2395
   29SAPC  H15Y 3938   4.107   2.662   8.387  0.0663 -0.6903  1.6872
   29SAPC  C316 3939   4.291   2.736   8.495  0.4275  0.1889  0.7370
   29SAPC  H16X 3940   4.249   2.838   8.508 -1.3317 -0.0372 -2.3559
   29SAPC  H16Y 3941   4.396   2.757   8.464  0.3013 -1.0933 -0.6578
   29SAPC  C317 3942   4.285   2.658   8.623 -0.1035  1.0074 -0.2841
   29SAPC  H17X 3943   4.191   2.654   8.682 -0.8464  2.7095 -1.2814
   29SAPC  H17Y 3944   4.341   2.726   8.691 -0.8559 -1.1930  2.7903
   29SAPC  C318 3945   4.362   2.520   8.619  0.7338  0.2079  0.0191
   29SAPC  H18X 3946   4.460   2.529   8.567  1.1113 -1.2631  0.4362
   29SAPC  H18Y 3947   4.302   2.445   8.563  0.1112  0.9277 -0.2909
   29SAPC  H18Z 3948   4.395   2.491   8.721  1.1076  0.0779 -0.1372
   30SAPC     N 3949   5.508   2.591   6.258  0.2649 -0.0208 -0.2071
   30SAPC   C12 3950   5.425   2.591   6.383 -0.1561  0.2871  0.1982
   30SAPC  H12A 3951   5.406   2.695   6.402 -0.1394  0.4844 -0.8305
   30SAPC  H12B 3952   5.494   2.562   6.461  1.1086  0.8679 -0.6775
   30SAPC   C13 3953   5.586   2.461   6.238 -0.0197 -0.3679  0.4213
   30SAPC  H13A 3954   5.510   2.386   6.221  0.0551  0.0153 -1.9354
   30SAPC  H13B 3955   5.643   2.463   6.146 -0.5602  0.9569  0.0989
   30SAPC  H13C 3956   5.667   2.452   6.309  1.3772  0.1299 -1.0391
   30SAPC   C14 3957   5.415   2.607   6.142  0.2365 -0.1611 -0.3104
   30SAPC  H14A 3958   5.459   2.625   6.045 -1.3949  1.3232 -0.8552
   30SAPC  H14B 3959   5.354   2.519   6.128  1.7675 -1.8377  2.7569
   30SAPC  H14C 3960   5.347   2.686   6.171  0.2117 -0.2131 -0.2274
   30SAPC   C15 3961   5.605   2.707   6.252 -0.1853 -0.3464 -0.2223
   30SAPC  H15A 3962   5.659   2.706   6.159 -0.6103 -0.3743 -0.4683
   30SAPC  H15B 3963   5.544   2.796   6.252 -0.8650 -0.7614  1.7909
   30SAPC  H15C 3964   5.673   2.708   6.336  0.2366  1.9811 -0.5149
   30SAPC   C11 3965   5.299   2.509   6.388  0.2840  0.2486  0.0659
   30SAPC  H11A 3966   5.229   2.537   6.306  2.5316 -0.5396 -2.2254
   30SAPC  H11B 3967   5.252   2.536   6.485  0.5876 -1.1567  0.6360
   30SAPC     P 3968   5.193   2.275   6.435 -0.1381  0.2855 -0.4354
   30SAPC   O13 3969   5.068   2.319   6.368 -0.1787 -0.2129 -0.3343
   30SAPC   O14 3970   5.226   2.128   6.429  0.2817 -0.2941  0.4514
   30SAPC   O12 3971   5.320   2.364   6.384 -0.1467  0.2136 -0.1947
   30SAPC   O11 3972   5.187   2.313   6.589  0.1533  0.5297  0.1212
   30SAPC    C1 3973   5.312   2.288   6.664  0.3783  0.7059 -0.3041
   30SAPC    HA 3974   5.323   2.183   6.697  0.5633  0.3738 -1.3911
   30SAPC    HB 3975   5.397   2.323   6.601  0.2292  3.6628  0.9702
   30SAPC    C2 3976   5.306   2.376   6.790 -0.1408 -1.0795 -0.6058
   30SAPC    HS 3977   5.410   2.404   6.820 -0.4384 -1.1896  0.6038
   30SAPC   O21 3978   5.243   2.300   6.901  0.1299 -0.4811  0.2474
   30SAPC   C21 3979   5.315   2.214   6.958  0.2998  0.0263 -0.0484
   30SAPC   O22 3980   5.426   2.175   6.931 -0.5156 -0.3642  0.4381
   30SAPC   C22 3981   5.217   2.137   7.050  0.2661  0.4299 -0.5040
   30SAPC   H2R 3982   5.154   2.206   7.110  0.6505 -0.1314  0.5720
   30SAPC   H2S 3983   5.155   2.076   6.981 -0.8134  0.8015  0.1059
   30SAPC    C3 3984   5.238   2.517   6.776 -0.3407  0.0487  0.4546
   30SAPC    HX 3985   5.133   2.502   6.744 -1.0365  0.0296  2.5463
   30SAPC    HY 3986   5.288   2.572   6.694 -2.2460 -1.6150 -1.9646
   30SAPC   O31 3987   5.248   2.578   6.901  0.0290  0.0431 -0.7860
   30SAPC   C31 3988   5.197   2.704   6.901 -0.0577 -0.5878 -0.7987
   30SAPC   O32 3989   5.154   2.768   6.803  0.4669  0.1100 -0.5905
   30SAPC   C32 3990   5.201   2.758   7.046 -0.5127 -1.0440 -0.4951
   30SAPC   H2X 3991   5.303   2.799   7.059 -0.7140 -0.3241 -1.0955
   30SAPC   H2Y 3992   5.191   2.670   7.113  1.4141 -0.4255  0.6825
   30SAPC   C23 3993   5.288   2.046   7.149  0.5881  0.9532 -1.1130
   30SAPC   H3R 3994   5.330   2.119   7.222  0.2631  0.1730 -0.1418
   30SAPC   H3S 3995   5.366   1.977   7.110 -0.0950  0.4152 -1.5594
   30SAPC   C24 3996   5.200   1.951   7.234  0.6439  0.3276  0.0384
   30SAPC   H4R 3997   5.273   1.910   7.307 -0.8474 -1.9179  0.3589
   30SAPC   H4S 3998   5.176   1.865   7.168  1.2185  0.0180  0.2269
   30SAPC   C25 3999   5.082   2.027   7.297  0.3025 -0.9252  0.4538
   30SAPC   H5R 4000   4.996   2.035   7.229  2.6499  0.7974 -2.5566
   30SAPC   C26 4001   5.074   2.066   7.424  0.2690 -0.0177 -0.0327
   30SAPC   H6R 4002   4.974   2.104   7.448  0.4855  1.0072 -0.7194
   30SAPC   C27 4003   5.175   2.051   7.534 -0.3052 -0.3300  0.1612
   30SAPC   H7R 4004   5.141   2.124   7.611 -0.0529  1.3645 -1.2790
   30SAPC   H7S 4005   5.271   2.092   7.496 -1.2217  0.2600 -1.6514
   30SAPC   C28 4006   5.205   1.909   7.585  0.2682 -0.9040 -0.2082
   30SAPC   H8R 4007   5.209   1.833   7.505 -1.5223 -1.0242 -0.2245
   30SAPC   C29 4008   5.202   1.862   7.710  0.0619 -0.2789 -0.2257
   30SAPC   H9R 4009   5.230   1.758   7.734  3.0584  1.0454  2.8444
   30SAPC  C210 4010   5.176   1.931   7.840 -0.2704 -0.4496  0.0294
   30SAPC  H10R 4011   5.077   1.892   7.872 -0.6526  1.3349  1.1773
   30SAPC  H10S 4012   5.161   2.040   7.822  1.4135 -0.3362 -0.7900
   30SAPC  C211 4013   5.281   1.921   7.949 -0.0086  0.5185 -0.0404
   30SAPC  H11R 4014   5.346   1.832   7.944 -1.7710 -0.8183 -0.1995
   30SAPC  C212 4015   5.294   2.001   8.059 -0.2974  0.5559  0.0364
   30SAPC  H12R 4016   5.376   1.981   8.129  0.3234 -0.0471 -0.8430
   30SAPC  C213 4017   5.212   2.117   8.092  1.1025 -0.0002 -0.5408
   30SAPC  H13R 4018   5.212   2.182   8.001 -0.0922  0.2253 -0.4049
   30SAPC  H13S 4019   5.250   2.173   8.180  0.0661  0.6856 -0.5052
   30SAPC  C214 4020   5.075   2.070   8.131 -0.1383 -0.4461  0.4730
   30SAPC  H14R 4021   5.006   2.100   8.051  0.7824  0.3645 -0.0401
   30SAPC  C215 4022   5.039   2.000   8.238 -0.8501  0.0749 -0.3471
   30SAPC  H15R 4023   4.934   1.985   8.267 -0.1341 -1.7379  1.5040
   30SAPC  C216 4024   5.136   1.953   8.343 -0.4945  0.1499 -0.4453
   30SAPC  H16R 4025   5.224   2.019   8.330 -0.6619  0.2837 -0.9087
   30SAPC  H16S 4026   5.176   1.850   8.332 -0.1937 -0.4745  4.2430
   30SAPC  C217 4027   5.102   1.960   8.493 -0.6383 -0.4350 -0.1609
   30SAPC  H17R 4028   5.180   1.912   8.555 -0.0384  2.4334  1.5096
   30SAPC  H17S 4029   5.014   1.898   8.520 -1.7664  0.0198 -2.5255
   30SAPC  C218 4030   5.066   2.099   8.542  0.2056  0.2916  0.7914
   30SAPC  H18R 4031   5.023   2.164   8.463  1.0130  1.3905  1.2449
   30SAPC  H18S 4032   5.156   2.139   8.593  1.4497  0.8079 -1.6427
   30SAPC  C219 4033   4.958   2.106   8.643  0.4083 -0.3004  0.6938
   30SAPC  H19R 4034   4.862   2.060   8.612 -0.3075  1.8174 -0.4126
   30SAPC  H19S 4035   4.934   2.213   8.663 -0.3971 -0.4793  0.7505
   30SAPC  C220 4036   4.999   2.049   8.777  0.7016 -0.0433  0.0370
   30SAPC  H20R 4037   5.017   1.940   8.776 -3.0996 -0.8858  2.2406
   30SAPC  H20S 4038   4.910   2.066   8.842 -0.9272 -2.7188 -1.3094
   30SAPC  H20T 4039   5.096   2.087   8.815 -0.0637  0.0894  1.9487
   30SAPC   C33 4040   5.102   2.867   7.089 -0.1959  0.5980  0.1262
   30SAPC   H3X 4041   4.997   2.831   7.089 -0.0691  0.2114  0.8103
   30SAPC   H3Y 4042   5.111   2.954   7.020 -1.0675 -1.3249 -2.5888
   30SAPC   C34 4043   5.136   2.912   7.228 -0.2947 -0.0639 -0.4748
   30SAPC   H4X 4044   5.219   2.986   7.225 -0.5563  0.2830  0.5027
   30SAPC   H4Y 4045   5.182   2.830   7.286 -0.7197 -0.8448 -1.2280
   30SAPC   C35 4046   5.026   2.982   7.305  1.4139 -0.2766  0.2005
   30SAPC   H5X 4047   4.937   2.920   7.330  2.9154 -2.5378  0.2617
   30SAPC   H5Y 4048   4.986   3.058   7.235 -1.2725 -1.2257  0.5391
   30SAPC   C36 4049   5.072   3.047   7.435  0.5050 -0.4561 -0.6333
   30SAPC   H6X 4050   4.982   3.103   7.467  0.1356 -2.0852  1.3857
   30SAPC   H6Y 4051   5.156   3.119   7.425  2.2687 -2.0845  1.3902
   30SAPC   C37 4052   5.116   2.946   7.536 -0.4348  0.3909  0.3387
   30SAPC   H7X 4053   5.212   2.911   7.493 -0.9191 -2.0628  1.1217
   30SAPC   H7Y 4054   5.046   2.860   7.542 -0.7867  0.5383 -1.2755
   30SAPC   C38 4055   5.152   3.013   7.668 -0.3814  0.3092 -0.5287
   30SAPC   H8X 4056   5.084   3.094   7.703  0.4696  3.2218 -4.8076
   30SAPC   H8Y 4057   5.252   3.060   7.659  0.9302 -2.3040 -0.6589
   30SAPC   C39 4058   5.151   2.915   7.779  0.7446 -0.0006 -0.1230
   30SAPC   H9X 4059   5.224   2.832   7.770  0.4742 -0.1693 -0.7467
   30SAPC   H9Y 4060   5.054   2.862   7.780 -1.4057  3.5822  0.2599
   30SAPC  C310 4061   5.164   2.987   7.919  0.1015 -0.1303  0.4658
   30SAPC  H10X 4062   5.065   3.034   7.934  0.0276 -0.1469  0.0429
   30SAPC  H10Y 4063   5.242   3.066   7.916 -1.2344  1.2168 -0.9903
   30SAPC  C311 4064   5.201   2.897   8.035 -0.5117 -0.2703 -0.8155
   30SAPC  H11X 4065   5.308   2.868   8.039 -1.0261 -2.1691  0.5305
   30SAPC  H11Y 4066   5.125   2.818   8.050 -3.4657  2.8531  2.8973
   30SAPC  C312 4067   5.188   2.972   8.165  0.6116  0.2559  0.5556
   30SAPC  H12X 4068   5.087   3.017   8.174  0.3389  0.0351 -1.2048
   30SAPC  H12Y 4069   5.266   3.050   8.178  1.0669  0.0113 -0.5842
   30SAPC  C313 4070   5.197   2.872   8.285 -0.4451 -0.1979  0.2583
   30SAPC  H13X 4071   5.307   2.863   8.294 -0.2587 -2.6291 -2.8306
   30SAPC  H13Y 4072   5.157   2.775   8.250  1.3189 -1.7671  2.3559
   30SAPC  C314 4073   5.117   2.924   8.405  0.3758 -0.0812  0.5090
   30SAPC  H14X 4074   5.114   2.844   8.483  1.0870 -1.4829 -0.8460
   30SAPC  H14Y 4075   5.014   2.941   8.368  0.8400  1.6233 -0.0889
   30SAPC  C315 4076   5.170   3.054   8.469  0.2832 -0.4070  0.2038
   30SAPC  H15X 4077   5.084   3.094   8.527 -0.1853 -0.5064 -0.4220
   30SAPC  H15Y 4078   5.184   3.122   8.383  0.5483  1.1188  1.4034
   30SAPC  C316 4079   5.293   3.028   8.556  0.4489 -0.2215  0.8654
   30SAPC  H16X 4080   5.342   2.957   8.487  0.4512 -0.7483  1.4083
   30SAPC  H16Y 4081   5.267   2.976   8.651 -2.0370 -0.0904  0.3414
   30SAPC  C317 4082   5.379   3.153   8.559 -0.0597  0.4643 -0.1503
   30SAPC  H17X 4083   5.326   3.224   8.625  0.6951  0.4097  0.5390
   30SAPC  H17Y 4084   5.387   3.196   8.457  0.3636  1.9710  0.4994
   30SAPC  C318 4085   5.517   3.122   8.617 -0.0297 -0.4979 -0.9867
   30SAPC  H18X 4086   5.506   3.108   8.727 -0.4011 -0.1784 -0.9826
   30SAPC  H18Y 4087   5.588   3.203   8.587  3.0294 -2.3088  0.7977
   30SAPC  H18Z 4088   5.553   3.030   8.568 -0.2836 -0.4767 -1.2074
   31SAPC     N 4089   1.036   2.510   6.305 -0.5969 -0.2840  0.6140
   31SAPC   C12 4090   0.930   2.622   6.292 -0.3275 -0.2984  0.5772
   31SAPC  H12A 4091   0.885   2.610   6.195  0.3749  1.0158  0.0659
   31SAPC  H12B 4092   0.977   2.719   6.284  0.0425 -0.6395 -3.3688
   31SAPC   C13 4093   0.981   2.374   6.296  0.0420  0.1614 -0.8130
   31SAPC  H13A 4094   0.929   2.362   6.202 -1.3561 -1.0023  0.0698
   31SAPC  H13B 4095   1.063   2.303   6.297 -0.5638 -0.5597 -1.0754
   31SAPC  H13C 4096   0.919   2.350   6.381  1.0808 -1.2187 -0.4043
   31SAPC   C14 4097   1.141   2.524   6.196 -0.9069 -0.3883  0.1509
   31SAPC  H14A 4098   1.117   2.514   6.092 -0.5709 -2.1430  0.2125
   31SAPC  H14B 4099   1.187   2.621   6.208 -1.2949 -0.1883  0.0518
   31SAPC  H14C 4100   1.222   2.456   6.218 -0.5336 -0.0838 -0.2820
   31SAPC   C15 4101   1.113   2.516   6.434 -0.1059  1.0323  1.2079
   31SAPC  H15A 4102   1.050   2.480   6.515 -0.0560 -0.4771  0.6188
   31SAPC  H15B 4103   1.194   2.444   6.432 -0.9156  0.0573 -1.7473
   31SAPC  H15C 4104   1.144   2.613   6.469  0.1424  1.4105 -0.0323
   31SAPC   C11 4105   0.818   2.618   6.400  0.0312 -0.7918 -0.6937
   31SAPC  H11A 4106   0.781   2.513   6.406  0.2959 -0.9013 -0.9138
   31SAPC  H11B 4107   0.737   2.689   6.373 -0.3379 -0.0656  2.0135
   31SAPC     P 4108   0.752   2.704   6.637  0.2221  0.4539 -0.1924
   31SAPC   O13 4109   0.812   2.716   6.770  0.0556  0.0219 -0.0334
   31SAPC   O14 4110   0.680   2.825   6.584  0.1693  0.2792  0.1844
   31SAPC   O12 4111   0.867   2.659   6.533  0.0717  0.0584  0.1716
   31SAPC   O11 4112   0.639   2.586   6.643  0.0742 -0.3884 -0.3396
   31SAPC    C1 4113   0.692   2.453   6.657  0.7335  0.0712 -0.4109
   31SAPC    HA 4114   0.647   2.379   6.587  1.8742 -1.8208  0.7417
   31SAPC    HB 4115   0.803   2.448   6.658  0.7147 -0.4354  0.8440
   31SAPC    C2 4116   0.639   2.394   6.792 -0.4419 -0.6524 -0.4686
   31SAPC    HS 4117   0.529   2.406   6.787 -0.2498  1.0633 -2.1991
   31SAPC   O21 4118   0.698   2.473   6.895  0.3633 -0.4183 -0.9745
   31SAPC   C21 4119   0.611   2.507   6.994  0.4760 -0.3737  0.0037
   31SAPC   O22 4120   0.499   2.468   7.014  0.1297  0.0772  0.2321
   31SAPC   C22 4121   0.674   2.609   7.083 -0.1905 -0.1184 -0.3292
   31SAPC   H2R 4122   0.763   2.556   7.123 -1.8044 -1.1417  2.2469
   31SAPC   H2S 4123   0.700   2.693   7.016 -0.0573  0.6707  0.6889
   31SAPC    C3 4124   0.670   2.246   6.802  0.6768 -0.5818 -0.4257
   31SAPC    HX 4125   0.778   2.234   6.779  1.4090  3.6525 -0.1432
   31SAPC    HY 4126   0.611   2.193   6.724 -2.8548  2.3604 -0.0411
   31SAPC   O31 4127   0.623   2.195   6.931 -0.3389  0.0051 -0.0422
   31SAPC   C31 4128   0.717   2.118   6.996 -1.1021 -0.5970  0.4121
   31SAPC   O32 4129   0.820   2.083   6.950 -0.0870  0.6363  0.7008
   31SAPC   C32 4130   0.669   2.115   7.139 -0.3903 -0.7007 -0.7067
   31SAPC   H2X 4131   0.722   2.030   7.186 -2.1358 -2.6945 -2.1259
   31SAPC   H2Y 4132   0.559   2.097   7.142 -0.4221 -0.3703  0.5996
   31SAPC   C23 4133   0.588   2.645   7.212 -0.4955  0.7348 -0.2362
   31SAPC   H3R 4134   0.579   2.552   7.272 -1.2315  2.2600  2.1720
   31SAPC   H3S 4135   0.483   2.671   7.185  0.5125  3.3752 -2.0857
   31SAPC   C24 4136   0.663   2.744   7.305  0.1442 -0.3164 -0.3101
   31SAPC   H4R 4137   0.772   2.723   7.318  0.4229  0.1266 -1.7692
   31SAPC   H4S 4138   0.616   2.737   7.405  0.1061 -1.8572 -0.4116
   31SAPC   C25 4139   0.665   2.880   7.246  0.5165 -0.1568 -0.2533
   31SAPC   H5R 4140   0.717   2.878   7.149  0.0006 -1.0260 -0.5314
   31SAPC   C26 4141   0.619   2.996   7.296 -0.3203  0.0492  0.3861
   31SAPC   H6R 4142   0.629   3.081   7.228 -1.2145 -0.0337  0.1412
   31SAPC   C27 4143   0.563   3.014   7.434  0.4562 -1.2751  0.3156
   31SAPC   H7R 4144   0.540   3.122   7.443  0.1132 -1.4238  1.3168
   31SAPC   H7S 4145   0.643   3.006   7.511  1.0620 -2.1088 -0.3773
   31SAPC   C28 4146   0.444   2.929   7.483 -0.4095  0.0849  0.1412
   31SAPC   H8R 4147   0.404   2.858   7.410 -1.1921 -0.4144  1.0346
   31SAPC   C29 4148   0.381   2.945   7.602  0.5005  0.1144  0.3156
   31SAPC   H9R 4149   0.293   2.884   7.629 -1.2511  2.3379 -0.0826
   31SAPC  C210 4150   0.421   3.054   7.701  0.3770 -0.4927  0.0552
   31SAPC  H10R 4151   0.440   3.152   7.654  2.4280 -0.5796  0.6217
   31SAPC  H10S 4152   0.509   3.022   7.761 -0.4491 -1.8020  0.6110
   31SAPC  C211 4153   0.301   3.071   7.798  0.0694 -0.7657 -0.8608
   31SAPC  H11R 4154   0.201   3.064   7.752 -0.8812  0.3388  0.9197
   31SAPC  C212 4155   0.303   3.103   7.936 -0.2809  0.4694 -0.4664
   31SAPC  H12R 4156   0.206   3.122   7.985 -0.1173  1.1676 -0.4040
   31SAPC  C213 4157   0.422   3.127   8.023  0.4287 -0.0805 -0.3665
   31SAPC  H13R 4158   0.515   3.143   7.965 -0.7514  0.2836 -2.2505
   31SAPC  H13S 4159   0.440   3.026   8.064  2.6023  0.4893  0.2319
   31SAPC  C214 4160   0.401   3.224   8.138  1.0321 -0.1912 -0.6651
   31SAPC  H14R 4161   0.397   3.328   8.103 -0.3006 -0.6239 -1.8814
   31SAPC  C215 4162   0.361   3.206   8.266 -0.7452 -0.1381  0.3365
   31SAPC  H15R 4163   0.330   3.293   8.327 -2.7526 -0.0567 -0.7004
   31SAPC  C216 4164   0.342   3.072   8.330 -0.3946 -0.2465 -0.1462
   31SAPC  H16R 4165   0.396   2.993   8.274  1.1308  0.4295  0.3171
   31SAPC  H16S 4166   0.236   3.039   8.329 -0.1307 -1.0987 -0.6602
   31SAPC  C217 4167   0.397   3.057   8.473 -0.0228  0.2075  0.5458
   31SAPC  H17R 4168   0.331   3.116   8.539  0.7357  0.8839  0.7240
   31SAPC  H17S 4169   0.496   3.105   8.493 -1.0848  2.0985  1.5298
   31SAPC  C218 4170   0.391   2.910   8.510  0.5796  0.1451 -0.2000
   31SAPC  H18R 4171   0.458   2.848   8.447 -0.9983  0.6173 -2.4657
   31SAPC  H18S 4172   0.288   2.878   8.483  1.3014 -1.6662 -0.9527
   31SAPC  C219 4173   0.407   2.869   8.655  0.0448  0.7501 -1.5823
   31SAPC  H19R 4174   0.359   2.939   8.727  2.2910 -0.4008  1.2711
   31SAPC  H19S 4175   0.512   2.889   8.684 -0.6974  2.1519  0.3773
   31SAPC  C220 4176   0.367   2.724   8.678  0.2756  0.2803 -0.0069
   31SAPC  H20R 4177   0.366   2.698   8.786 -0.5798 -0.1602 -0.1123
   31SAPC  H20S 4178   0.438   2.659   8.624  0.0462 -0.3624  0.4475
   31SAPC  H20T 4179   0.260   2.707   8.654  0.6267 -0.3629 -1.1433
   31SAPC   C33 4180   0.706   2.235   7.233 -0.2448  0.6497  1.0283
   31SAPC   H3X 4181   0.651   2.324   7.195  1.2680  1.9810  1.8335
   31SAPC   H3Y 4182   0.816   2.246   7.227 -0.0537 -1.6284 -2.3769
   31SAPC   C34 4183   0.669   2.208   7.376 -0.1564 -0.1870 -0.5222
   31SAPC   H4X 4184   0.714   2.113   7.411  0.2998 -0.4804 -1.8308
   31SAPC   H4Y 4185   0.559   2.214   7.381 -0.1384  0.3325 -0.6636
   31SAPC   C35 4186   0.714   2.324   7.470  0.2918 -0.0232  0.1694
   31SAPC   H5X 4187   0.675   2.308   7.573  0.7313  2.5860  0.8066
   31SAPC   H5Y 4188   0.670   2.415   7.423 -1.1951 -1.5516 -1.5308
   31SAPC   C36 4189   0.866   2.344   7.491  0.5749 -0.0558 -0.3654
   31SAPC   H6X 4190   0.904   2.391   7.398 -3.6539  0.0507 -2.2633
   31SAPC   H6Y 4191   0.921   2.248   7.498 -0.8870 -0.8516  1.0283
   31SAPC   C37 4192   0.896   2.420   7.620 -0.6187  0.5185 -0.1190
   31SAPC   H7X 4193   1.002   2.453   7.622 -1.0262  2.1431  3.8532
   31SAPC   H7Y 4194   0.866   2.359   7.708 -0.4856 -0.2749 -0.6135
   31SAPC   C38 4195   0.821   2.550   7.620 -0.3316 -0.1922 -0.3011
   31SAPC   H8X 4196   0.716   2.527   7.647 -1.0054  3.1975  0.4046
   31SAPC   H8Y 4197   0.810   2.602   7.523  1.0047  2.1613  0.7432
   31SAPC   C39 4198   0.870   2.646   7.729 -0.1016 -0.1764  0.1853
   31SAPC   H9X 4199   0.965   2.699   7.704  1.1152 -2.3319  0.0633
   31SAPC   H9Y 4200   0.880   2.590   7.824  2.1498  1.1919  0.8252
   31SAPC  C310 4201   0.771   2.751   7.772 -0.0211  0.0268 -0.3526
   31SAPC  H10X 4202   0.671   2.712   7.799 -0.7220  1.3056 -0.9962
   31SAPC  H10Y 4203   0.759   2.836   7.700 -2.5270 -2.1152 -2.6645
   31SAPC  C311 4204   0.808   2.813   7.910  0.5634 -0.4599  0.1923
   31SAPC  H11X 4205   0.898   2.876   7.894  0.1408 -0.0571 -0.6527
   31SAPC  H11Y 4206   0.835   2.733   7.983  1.5763  0.2533  0.6281
   31SAPC  C312 4207   0.710   2.907   7.981 -0.3470 -0.0601 -0.5038
   31SAPC  H12X 4208   0.609   2.860   7.978 -0.8012  0.7868  0.7270
   31SAPC  H12Y 4209   0.700   3.006   7.932  0.8955  0.0614 -0.5312
   31SAPC  C313 4210   0.747   2.929   8.125 -0.1065 -0.3093  0.1349
   31SAPC  H13X 4211   0.764   2.830   8.173  4.6845  1.0865  1.9701
   31SAPC  H13Y 4212   0.669   2.979   8.186  0.3258 -0.8343  1.1530
   31SAPC  C314 4213   0.877   3.010   8.156  0.8766  0.5598 -0.5759
   31SAPC  H14X 4214   0.872   3.117   8.127 -0.4444  1.0438  1.2254
   31SAPC  H14Y 4215   0.951   2.971   8.083  1.1654  1.7333 -0.9234
   31SAPC  C315 4216   0.948   3.001   8.293  0.4262 -0.2185  1.0720
   31SAPC  H15X 4217   1.036   3.068   8.292  0.3626 -0.1381 -0.0641
   31SAPC  H15Y 4218   0.982   2.897   8.313  1.2191 -0.3247 -0.6792
   31SAPC  C316 4219   0.864   3.050   8.405 -0.6465  0.5266 -0.2283
   31SAPC  H16X 4220   0.786   2.972   8.423  0.0544 -0.0577  0.3238
   31SAPC  H16Y 4221   0.811   3.138   8.361  1.2225  0.9107 -1.8685
   31SAPC  C317 4222   0.937   3.091   8.540  0.3596  0.4589  0.3671
   31SAPC  H17X 4223   1.008   3.174   8.518  0.6881 -0.0471 -0.5722
   31SAPC  H17Y 4224   0.998   3.002   8.567  2.2951  1.7437  0.4150
   31SAPC  C318 4225   0.844   3.112   8.653 -0.4423 -0.6399 -0.0265
   31SAPC  H18X 4226   0.891   3.119   8.753  0.6397 -1.6213 -0.4445
   31SAPC  H18Y 4227   0.760   3.040   8.654  0.4352 -1.6703  0.8945
   31SAPC  H18Z 4228   0.809   3.216   8.635 -1.3611 -1.0149 -0.4783
   32SAPC     N 4229   0.162   3.360   6.231  0.5900 -0.6315  0.3910
   32SAPC   C12 4230   0.185   3.347   6.378 -0.6800 -0.1300 -0.3692
   32SAPC  H12A 4231   0.108   3.279   6.411 -0.9209 -0.4048 -1.4883
   32SAPC  H12B 4232   0.184   3.444   6.426 -0.7508 -1.1409  1.7840
   32SAPC   C13 4233   0.035   3.448   6.207 -0.6610  0.7542  0.5298
   32SAPC  H13A 4234   0.050   3.552   6.230 -1.1671  1.1292 -0.7568
   32SAPC  H13B 4235   0.004   3.446   6.103 -0.1184 -0.5067  0.3746
   32SAPC  H13C 4236  -0.044   3.424   6.276  0.1330  1.1688  1.6002
   32SAPC   C14 4237   0.275   3.413   6.154  0.1666 -0.1895  0.0905
   32SAPC  H14A 4238   0.365   3.368   6.194 -0.1312  1.0175  2.2415
   32SAPC  H14B 4239   0.271   3.432   6.048  0.4582 -1.8135 -0.2483
   32SAPC  H14C 4240   0.300   3.510   6.195  0.5335  0.8796 -2.5033
   32SAPC   C15 4241   0.126   3.230   6.170  0.2609  0.4272 -0.1123
   32SAPC  H15A 4242   0.082   3.161   6.240  0.5727  0.0950 -0.2423
   32SAPC  H15B 4243   0.073   3.239   6.076  1.2610 -1.0091 -0.8487
   32SAPC  H15C 4244   0.215   3.181   6.132  0.2365 -0.0393  0.4133
   32SAPC   C11 4245   0.321   3.288   6.431  0.0234 -0.2998  0.0174
   32SAPC  H11A 4246   0.327   3.179   6.408 -0.1172  0.1879 -2.6440
   32SAPC  H11B 4247   0.315   3.306   6.541 -0.1715  0.8675 -0.1745
   32SAPC     P 4248   0.579   3.318   6.429 -0.3972 -0.0537  0.7574
   32SAPC   O13 4249   0.638   3.217   6.337 -0.6193 -0.0631 -0.3042
   32SAPC   O14 4250   0.667   3.439   6.448  0.5035 -0.1065 -0.5937
   32SAPC   O12 4251   0.435   3.360   6.383 -0.6158 -0.2928  0.5745
   32SAPC   O11 4252   0.562   3.236   6.564  0.2867 -0.2501  0.2622
   32SAPC    C1 4253   0.572   3.308   6.682  0.4961  0.1825 -0.0620
   32SAPC    HA 4254   0.665   3.369   6.685  0.1089  0.9477 -2.0787
   32SAPC    HB 4255   0.475   3.360   6.701 -0.2758 -1.3642  0.4910
   32SAPC    C2 4256   0.601   3.210   6.804  0.0722 -0.0997  0.0153
   32SAPC    HS 4257   0.711   3.195   6.799  0.1656  0.8263 -0.8651
   32SAPC   O21 4258   0.524   3.088   6.791  0.7666  0.1906 -0.3790
   32SAPC   C21 4259   0.560   2.988   6.868  0.0966  0.1095 -0.3592
   32SAPC   O22 4260   0.661   2.985   6.937 -0.0269  0.1110  0.4590
   32SAPC   C22 4261   0.449   2.885   6.860  0.0283 -0.1205  0.4607
   32SAPC   H2R 4262   0.445   2.849   6.755  0.8557 -0.0802  0.4100
   32SAPC   H2S 4263   0.481   2.796   6.919  0.9222  0.5223  0.9615
   32SAPC    C3 4264   0.561   3.276   6.935 -0.2047  0.3886 -0.9448
   32SAPC    HX 4265   0.602   3.216   7.019 -1.8926 -0.0539 -0.3957
   32SAPC    HY 4266   0.451   3.269   6.942 -0.3619  0.7581 -2.6416
   32SAPC   O31 4267   0.616   3.411   6.937 -0.1163 -0.4280  0.3379
   32SAPC   C31 4268   0.530   3.505   6.969  0.2437  0.3732  0.7017
   32SAPC   O32 4269   0.405   3.492   6.976 -0.4278  0.0150  0.0687
   32SAPC   C32 4270   0.605   3.623   7.014 -0.5634  0.0782  0.0257
   32SAPC   H2X 4271   0.552   3.716   6.985  2.1630  1.6282 -0.3887
   32SAPC   H2Y 4272   0.701   3.626   6.957 -1.8162 -0.4626 -2.2190
   32SAPC   C23 4273   0.307   2.933   6.902  0.6395  0.6224 -0.9947
   32SAPC   H3R 4274   0.234   2.857   6.867 -0.4971  1.2859 -0.0962
   32SAPC   H3S 4275   0.287   3.032   6.858 -2.8152  0.8704  0.8641
   32SAPC   C24 4276   0.307   2.958   7.054  0.2517 -0.4375 -0.0969
   32SAPC   H4R 4277   0.381   3.039   7.073  2.1204 -2.1979  0.4549
   32SAPC   H4S 4278   0.341   2.870   7.113  0.5976 -1.8570 -2.3206
   32SAPC   C25 4279   0.172   2.988   7.115  0.1145 -0.8547  0.4748
   32SAPC   H5R 4280   0.085   2.954   7.056 -0.1642  0.5522  0.0317
   32SAPC   C26 4281   0.148   3.078   7.210 -0.9792 -0.6635  0.1393
   32SAPC   H6R 4282   0.044   3.106   7.233 -0.6467  0.2278  0.6245
   32SAPC   C27 4283   0.251   3.170   7.269  0.7007  0.4328 -0.2135
   32SAPC   H7R 4284   0.355   3.131   7.279  1.1657  2.0095  1.9962
   32SAPC   H7S 4285   0.224   3.184   7.376  0.8374  0.5556 -0.1928
   32SAPC   C28 4286   0.261   3.302   7.203  0.5859  0.4585  0.1210
   32SAPC   H8R 4287   0.225   3.296   7.100  0.3848 -1.9922  0.2711
   32SAPC   C29 4288   0.328   3.403   7.253  0.5252 -0.6584 -1.0146
   32SAPC   H9R 4289   0.334   3.498   7.198  1.9603  0.3267  0.7243
   32SAPC  C210 4290   0.406   3.400   7.384 -0.6187  0.5618  0.5831
   32SAPC  H10R 4291   0.495   3.467   7.377  1.6116 -1.9818  2.3476
   32SAPC  H10S 4292   0.439   3.296   7.402  0.9216  0.7877 -0.6945
   32SAPC  C211 4293   0.328   3.422   7.510 -0.3249  0.0921 -0.5996
   32SAPC  H11R 4294   0.222   3.436   7.486  0.0460  0.5656 -2.0730
   32SAPC  C212 4295   0.371   3.462   7.627  0.2117  0.3923 -0.4976
   32SAPC  H12R 4296   0.299   3.486   7.706 -0.6252  0.4959 -1.2755
   32SAPC  C213 4297   0.515   3.477   7.663 -0.5023  0.3389  0.2287
   32SAPC  H13R 4298   0.583   3.450   7.579  0.5459 -0.2884  1.2474
   32SAPC  H13S 4299   0.537   3.410   7.749 -0.2734  0.6033  0.3799
   32SAPC  C214 4300   0.554   3.619   7.700 -0.8905  0.2092 -0.5021
   32SAPC  H14R 4301   0.612   3.674   7.624  0.3418 -1.5524 -0.9087
   32SAPC  C215 4302   0.526   3.673   7.821 -0.1669 -0.0500  0.3631
   32SAPC  H15R 4303   0.572   3.771   7.842 -2.1255  0.2815  3.6658
   32SAPC  C216 4304   0.450   3.602   7.931 -0.2193  0.5258  0.0811
   32SAPC  H16R 4305   0.468   3.493   7.926 -0.3670  0.5483 -2.0193
   32SAPC  H16S 4306   0.344   3.633   7.943 -0.3055 -0.4766  2.4932
   32SAPC  C217 4307   0.489   3.642   8.070 -0.6440  0.0670  0.0262
   32SAPC  H17R 4308   0.436   3.582   8.148  1.6732  0.6295  2.1773
   32SAPC  H17S 4309   0.470   3.748   8.094 -0.6315 -0.2926  1.8227
   32SAPC  C218 4310   0.637   3.624   8.105 -0.4219  0.0267 -1.0485
   32SAPC  H18R 4311   0.700   3.635   8.015  0.9768  1.2958  0.0165
   32SAPC  H18S 4312   0.648   3.517   8.131  0.9922  0.7626  1.9537
   32SAPC  C219 4313   0.696   3.717   8.219 -0.2288  0.5883  0.4868
   32SAPC  H19R 4314   0.625   3.728   8.304 -1.3389  2.1123 -0.5827
   32SAPC  H19S 4315   0.715   3.820   8.181 -0.2107  1.6522  3.1452
   32SAPC  C220 4316   0.831   3.657   8.262 -0.2930 -0.5460  0.6322
   32SAPC  H20R 4317   0.908   3.666   8.183 -0.0851 -1.0576  0.7737
   32SAPC  H20S 4318   0.828   3.551   8.295 -0.2408 -0.2719  1.5407
   32SAPC  H20T 4319   0.877   3.711   8.347  4.0039  0.0717 -1.8019
   32SAPC   C33 4320   0.618   3.644   7.172  0.3734  0.0685  0.0571
   32SAPC   H3X 4321   0.514   3.643   7.211 -0.1071  1.8935 -1.0712
   32SAPC   H3Y 4322   0.655   3.747   7.193  0.6898 -0.1663  0.6621
   32SAPC   C34 4323   0.716   3.539   7.226  0.3709  0.1502 -0.2440
   32SAPC   H4X 4324   0.807   3.539   7.162  0.2834 -0.2006 -0.3680
   32SAPC   H4Y 4325   0.683   3.433   7.222  1.7019 -0.3304  0.7266
   32SAPC   C35 4326   0.767   3.571   7.370  0.3895  0.0111 -0.6027
   32SAPC   H5X 4327   0.798   3.482   7.428  2.0999  1.0279  0.1298
   32SAPC   H5Y 4328   0.690   3.625   7.428  1.0262  0.2135  0.0698
   32SAPC   C36 4329   0.893   3.665   7.359 -0.0300  0.3096  0.2354
   32SAPC   H6X 4330   0.852   3.766   7.333 -0.3125  0.3151  0.6798
   32SAPC   H6Y 4331   0.949   3.631   7.270  1.0585 -1.3725  1.5070
   32SAPC   C37 4332   0.980   3.665   7.488 -0.2634 -0.2640  0.0238
   32SAPC   H7X 4333   1.060   3.742   7.486 -1.2136  0.7563  0.4342
   32SAPC   H7Y 4334   1.024   3.567   7.513  1.2109  0.1830 -0.7291
   32SAPC   C38 4335   0.907   3.718   7.613 -0.0861 -0.4672  0.7207
   32SAPC   H8X 4336   0.831   3.639   7.631  0.8421 -1.7549 -0.7257
   32SAPC   H8Y 4337   0.865   3.817   7.584  2.2405  1.0775  2.3134
   32SAPC   C39 4338   1.001   3.730   7.741  0.4583  0.3559  0.7278
   32SAPC   H9X 4339   1.096   3.778   7.707  1.6753 -3.1181 -1.2285
   32SAPC   H9Y 4340   1.030   3.635   7.790 -1.2152 -0.3745  0.3634
   32SAPC  C310 4341   0.932   3.823   7.847 -0.0240 -0.4045 -0.5234
   32SAPC  H10X 4342   0.841   3.770   7.884 -2.9569  3.4941 -1.4998
   32SAPC  H10Y 4343   0.899   3.919   7.802  1.4371  0.7639  0.7924
   32SAPC  C311 4344   1.030   3.866   7.958 -0.0029  1.0953  0.0488
   32SAPC  H11X 4345   1.122   3.913   7.919 -1.0446  1.3195 -2.2825
   32SAPC  H11Y 4346   1.059   3.778   8.019 -0.1681  0.8607 -0.2122
   32SAPC  C312 4347   0.966   3.981   8.037 -0.8667 -0.0658 -0.2320
   32SAPC  H12X 4348   0.869   3.943   8.077 -1.1435  2.4535  1.7457
   32SAPC  H12Y 4349   0.953   4.068   7.969 -0.7049 -1.3621 -2.0097
   32SAPC  C313 4350   1.059   4.033   8.155 -0.2152  0.1182  0.6554
   32SAPC  H13X 4351   1.148   4.067   8.099  0.1316 -0.5624  0.7834
   32SAPC  H13Y 4352   1.072   3.952   8.231  0.0176  1.6122  2.2705
   32SAPC  C314 4353   1.014   4.162   8.231 -0.4248  1.0572 -1.3437
   32SAPC  H14X 4354   0.981   4.237   8.157 -1.0820  2.5507  0.3918
   32SAPC  H14Y 4355   1.106   4.197   8.283 -1.5236  1.4068  0.4260
   32SAPC  C315 4356   0.913   4.132   8.350 -0.6791 -1.1376  0.2322
   32SAPC  H15X 4357   0.830   4.070   8.312 -1.6094  0.6590 -0.8270
   32SAPC  H15Y 4358   0.873   4.227   8.390 -1.1231 -0.6469 -1.2920
   32SAPC  C316 4359   0.977   4.068   8.470 -0.4575  0.3125 -0.5341
   32SAPC  H16X 4360   1.078   4.105   8.497 -1.0072  1.0354  0.6199
   32SAPC  H16Y 4361   0.991   3.961   8.442  0.5290  0.3530 -0.2263
   32SAPC  C317 4362   0.888   4.057   8.598 -0.2272  0.1516  0.3595
   32SAPC  H17X 4363   0.800   3.993   8.574 -1.0920 -0.3850  4.3093
   32SAPC  H17Y 4364   0.854   4.160   8.622  3.5504  1.8516 -0.9065
   32SAPC  C318 4365   0.972   3.994   8.714 -0.3359  0.3240  0.2975
   32SAPC  H18X 4366   1.052   4.064   8.747  0.7266 -0.9660  0.5535
   32SAPC  H18Y 4367   1.019   3.900   8.678 -0.6177  0.0023  0.7690
   32SAPC  H18Z 4368   0.896   3.976   8.793 -0.5313  0.3201  0.1102
   33POPC     N 4369   4.782   4.912  11.010  0.5275 -0.6414 -0.5036
   33POPC   C12 4370   4.738   4.773  11.039 -0.1388  0.3067  1.0994
   33POPC  H12A 4371   4.701   4.733  10.945  2.9380  1.7926 -0.9313
   33POPC  H12B 4372   4.669   4.769  11.121 -0.0002  1.0765  1.2591
   33POPC   C13 4373   4.661   4.986  10.969 -0.1127 -0.2965  0.6124
   33POPC  H13A 4374   4.690   5.086  10.941  1.0106 -0.6041  0.6235
   33POPC  H13B 4375   4.613   4.941  10.883  0.6479  1.0897 -0.5734
   33POPC  H13C 4376   4.584   4.988  11.045 -2.0907  0.1100 -1.2997
   33POPC   C14 4377   4.841   4.973  11.128 -1.0801  0.0865 -0.4988
   33POPC  H14A 4378   4.872   5.072  11.098  0.6008 -0.0212  0.7449
   33POPC  H14B 4379   4.775   4.989  11.212 -0.8354 -0.8635 -0.1106
   33POPC  H14C 4380   4.924   4.918  11.171 -0.7172 -0.2557 -1.5887
   33POPC   C15 4381   4.879   4.916  10.902  0.3073  0.2218  0.3789
   33POPC  H15A 4382   4.912   5.016  10.880 -0.9131  0.2290 -1.7253
   33POPC  H15B 4383   4.842   4.883  10.806  0.4055  0.4280  0.2707
   33POPC  H15C 4384   4.963   4.850  10.921  0.4549  0.0013 -0.9027
   33POPC   C11 4385   4.850   4.667  11.088 -0.1036  0.6559  0.1608
   33POPC  H11A 4386   4.803   4.568  11.102 -0.4977  1.1058  2.2902
   33POPC  H11B 4387   4.890   4.699  11.186  1.0217 -1.6266  0.5018
   33POPC     P 4388   4.954   4.573  10.855 -0.0117 -0.2478 -0.1886
   33POPC   O13 4389   4.951   4.426  10.870 -0.5548 -0.1205  0.3774
   33POPC   O14 4390   5.055   4.632  10.768 -0.2315 -0.0676  0.3906
   33POPC   O12 4391   4.960   4.635  11.005 -0.3473  0.5762  0.3975
   33POPC   O11 4392   4.814   4.629  10.804  0.2222 -0.3091 -0.3300
   33POPC    C1 4393   4.703   4.537  10.787  0.1796  0.0920  0.5756
   33POPC    HA 4394   4.692   4.456  10.862 -2.0319 -0.8497 -0.6632
   33POPC    HB 4395   4.611   4.599  10.783  0.2671  0.1532 -1.1315
   33POPC    C2 4396   4.723   4.461  10.651 -0.6567 -0.3545 -0.0714
   33POPC    HS 4397   4.794   4.377  10.669 -0.2900 -0.4232 -1.7101
   33POPC   O21 4398   4.762   4.564  10.557 -0.5087 -0.2396 -0.6300
   33POPC   C21 4399   4.865   4.538  10.490  0.3006 -0.1954  0.0776
   33POPC   O22 4400   4.933   4.442  10.510 -0.4886  0.0442 -0.1039
   33POPC   C22 4401   4.908   4.652  10.406  0.3892  0.4128  0.3939
   33POPC   H2R 4402   4.998   4.693  10.456  1.2788 -1.8543  0.7587
   33POPC   H2S 4403   4.825   4.726  10.406 -0.4901 -0.5357 -0.8015
   33POPC    C3 4404   4.593   4.410  10.606  0.1146  0.0596  0.0461
   33POPC    HX 4405   4.509   4.484  10.609 -0.1051 -0.1990  0.2488
   33POPC    HY 4406   4.567   4.333  10.681  1.8758  0.3640  1.0120
   33POPC   O31 4407   4.610   4.351  10.480 -0.0074 -0.1849  0.1069
   33POPC   C31 4408   4.496   4.307  10.433  0.1537  0.0985 -0.3860
   33POPC   O32 4409   4.391   4.300  10.492 -0.4011  0.2957  0.1606
   33POPC   C32 4410   4.522   4.253  10.289  0.2214  0.1805 -1.0898
   33POPC   H2X 4411   4.519   4.142  10.287 -2.4579  0.2053 -2.2686
   33POPC   H2Y 4412   4.623   4.283  10.252  0.5929  1.5108  0.8409
   33POPC   C23 4413   4.933   4.606  10.264  0.2374  0.2273 -0.3919
   33POPC   H3R 4414   5.002   4.519  10.267  0.1736  0.1606 -0.8211
   33POPC   H3S 4415   4.981   4.685  10.202 -1.5862  0.8436 -1.0812
   33POPC   C24 4416   4.799   4.565  10.193  0.0801  0.5644 -0.1974
   33POPC   H4R 4417   4.725   4.623  10.252 -0.8401 -0.1638 -0.6219
   33POPC   H4S 4418   4.781   4.459  10.219 -0.0641  1.2121  2.5875
   33POPC   C25 4419   4.804   4.601  10.046  0.7426  0.7214 -0.0303
   33POPC   H5R 4420   4.887   4.543  10.000  2.5488  2.4014  0.8998
   33POPC   H5S 4421   4.831   4.708  10.028  0.6228  0.6089 -0.9000
   33POPC   C26 4422   4.671   4.579   9.971  0.1281 -0.3852  0.5816
   33POPC   H6R 4423   4.579   4.619  10.018 -1.1521 -2.7913  0.2824
   33POPC   H6S 4424   4.658   4.470   9.960  1.0464 -0.3922 -0.6566
   33POPC   C27 4425   4.662   4.636   9.824  0.4624  0.5670  0.6266
   33POPC   H7R 4426   4.755   4.629   9.763  1.0101 -1.0055  1.5679
   33POPC   H7S 4427   4.653   4.746   9.840 -1.7218  0.5759 -0.3113
   33POPC   C28 4428   4.532   4.609   9.745 -0.5915 -0.0706  0.5928
   33POPC   H8R 4429   4.452   4.631   9.819 -0.2905  0.0700  0.8789
   33POPC   H8S 4430   4.522   4.502   9.716 -2.3367  0.0238  0.7208
   33POPC   C29 4431   4.514   4.702   9.624  0.5665  0.9386 -0.1062
   33POPC   H91 4432   4.480   4.804   9.649  0.5752  1.1592 -0.9618
   33POPC  C210 4433   4.532   4.669   9.496 -0.3166  0.5210 -0.1017
   33POPC  H101 4434   4.512   4.744   9.418  0.2533  0.6385 -0.1347
   33POPC  C211 4435   4.593   4.543   9.448 -0.0408  0.2240  0.1349
   33POPC  H11R 4436   4.515   4.509   9.376 -1.1233  2.4871  0.1603
   33POPC  H11S 4437   4.615   4.473   9.531 -1.4372 -0.2547  0.1336
   33POPC  C212 4438   4.730   4.553   9.377 -0.1579 -0.3694  0.0250
   33POPC  H12R 4439   4.768   4.454   9.344 -0.1137 -0.5407  0.5798
   33POPC  H12S 4440   4.808   4.605   9.437  1.1110 -0.9059 -1.1145
   33POPC  C213 4441   4.724   4.650   9.254 -0.1742  0.3711 -0.4769
   33POPC  H13R 4442   4.705   4.756   9.283 -0.6740  0.5290 -1.3703
   33POPC  H13S 4443   4.641   4.608   9.195  0.5757  0.9214 -1.9884
   33POPC  C214 4444   4.854   4.661   9.181 -0.6038  0.4993  0.1146
   33POPC  H14R 4445   4.887   4.555   9.176 -2.6576 -0.1654 -1.1533
   33POPC  H14S 4446   4.929   4.710   9.246 -1.0196 -1.2796  2.0494
   33POPC  C215 4447   4.851   4.719   9.042 -0.4703  0.1705 -0.1648
   33POPC  H15R 4448   4.957   4.706   9.012  0.3017 -1.8654  2.9688
   33POPC  H15S 4449   4.827   4.826   9.060 -0.1148 -0.1453  2.6358
   33POPC  C216 4450   4.751   4.653   8.950  0.2934 -0.4203  0.3615
   33POPC  H16R 4451   4.654   4.699   8.977 -0.4859 -0.4455 -2.1205
   33POPC  H16S 4452   4.764   4.545   8.972 -0.0763 -0.5652 -0.1026
   33POPC  C217 4453   4.779   4.686   8.797 -0.9974 -0.6904  1.1620
   33POPC  H17R 4454   4.747   4.604   8.728  2.4024 -1.5917  0.4995
   33POPC  H17S 4455   4.887   4.707   8.787 -1.0568 -0.8321  0.0493
   33POPC  C218 4456   4.703   4.810   8.756 -0.3768 -0.2829 -0.1766
   33POPC  H18R 4457   4.712   4.887   8.835  0.6268 -0.6981  0.1201
   33POPC  H18S 4458   4.592   4.802   8.755 -0.6195  0.9233  3.0718
   33POPC  H18T 4459   4.733   4.847   8.655 -0.9811 -1.2253 -0.7128
   33POPC   C33 4460   4.424   4.305  10.192  0.7473  0.1748 -0.3185
   33POPC   H3X 4461   4.437   4.415  10.185 -0.5159  0.6243  2.8353
   33POPC   H3Y 4462   4.319   4.295  10.226 -0.1004  0.2712 -2.7031
   33POPC   C34 4463   4.454   4.244  10.055  0.8213  0.2498  0.8894
   33POPC   H4X 4464   4.456   4.134  10.064  1.4206  0.2049  0.2272
   33POPC   H4Y 4465   4.559   4.266  10.025  0.0486  3.9631  0.3603
   33POPC   C35 4466   4.356   4.296   9.951 -1.1024 -0.2069  0.1820
   33POPC   H5X 4467   4.369   4.405   9.934 -0.4362 -0.3673 -0.4295
   33POPC   H5Y 4468   4.251   4.285   9.985 -1.3201  3.3632  1.0787
   33POPC   C36 4469   4.387   4.229   9.817  0.3120  0.1185 -0.2562
   33POPC   H6X 4470   4.379   4.118   9.820  3.4990 -0.1850  0.0417
   33POPC   H6Y 4471   4.493   4.250   9.792  0.7562 -2.3011 -0.7412
   33POPC   C37 4472   4.310   4.292   9.698  0.3217  0.4734 -0.1286
   33POPC   H7X 4473   4.346   4.396   9.687  1.0957  0.2130 -0.1293
   33POPC   H7Y 4474   4.201   4.297   9.716 -0.1723 -2.2374 -1.7857
   33POPC   C38 4475   4.323   4.226   9.556  0.1736 -0.6178 -0.6836
   33POPC   H8X 4476   4.257   4.138   9.571  2.2952 -1.9148  1.9246
   33POPC   H8Y 4477   4.432   4.219   9.536 -0.0117 -0.4797 -1.7742
   33POPC   C39 4478   4.249   4.315   9.454  0.3018 -0.5196  0.3558
   33POPC   H9X 4479   4.288   4.419   9.454 -0.5666 -0.1882  0.6300
   33POPC   H9Y 4480   4.140   4.320   9.475  0.1026 -1.8087 -0.2476
   33POPC  C310 4481   4.259   4.257   9.311  0.3494  0.6758 -0.6921
   33POPC  H10X 4482   4.213   4.319   9.231 -0.9967 -1.2783 -1.5024
   33POPC  H10Y 4483   4.203   4.161   9.307 -0.7507  1.2318  0.6290
   33POPC  C311 4484   4.400   4.227   9.255  0.7550  0.9165  0.4804
   33POPC  H11X 4485   4.455   4.148   9.310 -0.4543 -0.8195 -0.6670
   33POPC  H11Y 4486   4.458   4.320   9.271  1.8006  0.0995  1.5518
   33POPC  C312 4487   4.407   4.216   9.100  0.5330 -0.2300  0.2039
   33POPC  H12X 4488   4.318   4.261   9.053 -1.9525 -0.4282  4.2136
   33POPC  H12Y 4489   4.394   4.109   9.074  1.1849 -0.2897  0.0967
   33POPC  C313 4490   4.543   4.252   9.037  0.5311  0.6046 -0.0232
   33POPC  H13X 4491   4.624   4.188   9.079  1.2582  0.1835 -1.9508
   33POPC  H13Y 4492   4.568   4.356   9.066 -2.8159  0.9285  2.3142
   33POPC  C314 4493   4.559   4.239   8.886 -0.3626 -0.0859 -0.5439
   33POPC  H14X 4494   4.555   4.129   8.873 -0.2963 -0.3452  1.3360
   33POPC  H14Y 4495   4.659   4.277   8.858 -0.9255  1.6533 -0.3031
   33POPC  C315 4496   4.453   4.318   8.804  0.2278  0.0432 -0.4274
   33POPC  H15X 4497   4.352   4.301   8.846  0.9395  0.0440  1.3763
   33POPC  H15Y 4498   4.451   4.275   8.701  2.4621 -0.2626 -0.3961
   33POPC  C316 4499   4.483   4.470   8.804  0.0317  0.3731 -0.3117
   33POPC  H16X 4500   4.449   4.522   8.712  0.5678  2.0180  0.3643
   33POPC  H16Y 4501   4.593   4.487   8.803  0.2045 -0.5000  0.9575
   33POPC  H16Z 4502   4.429   4.520   8.887  0.0412 -0.7818  0.4113
   34POPC     N 4503   5.944   0.296  11.258 -0.0994  0.2251  0.4748
   34POPC   C12 4504   5.929   0.139  11.234 -0.7216  0.0886  0.8085
   34POPC  H12A 4505   5.900   0.098  11.330 -3.5094 -0.2439 -0.0918
   34POPC  H12B 4506   6.028   0.103  11.211 -0.9014  0.5749 -0.8611
   34POPC   C13 4507   5.951   0.376  11.129  0.1732 -0.2734  0.6852
   34POPC  H13A 4508   6.046   0.349  11.084  0.7448 -0.6985  2.0872
   34POPC  H13B 4509   5.864   0.357  11.069 -0.2825  3.2388  0.0212
   34POPC  H13C 4510   5.951   0.483  11.145  0.0078 -0.0853 -0.4812
   34POPC   C14 4511   5.827   0.340  11.340  0.3409  0.7005 -0.7781
   34POPC  H14A 4512   5.790   0.272  11.415 -0.3602  1.5882 -0.3068
   34POPC  H14B 4513   5.835   0.439  11.381 -0.2365 -0.1212  1.4767
   34POPC  H14C 4514   5.737   0.352  11.281 -0.7457 -2.3962  0.0477
   34POPC   C15 4515   6.064   0.308  11.343 -1.0606 -0.0245  0.7087
   34POPC  H15A 4516   6.152   0.295  11.282 -0.8269 -0.3807  1.1168
   34POPC  H15B 4517   6.072   0.225  11.412 -0.5527 -0.5281  0.0608
   34POPC  H15C 4518   6.083   0.402  11.392 -0.6120 -0.0028  0.5005
   34POPC   C11 4519   5.828   0.085  11.128  0.3033 -0.2720 -0.2037
   34POPC  H11A 4520   5.726   0.121  11.151  0.5276 -0.0893  0.5192
   34POPC  H11B 4521   5.821  -0.026  11.131  0.1455 -0.2896 -0.9218
   34POPC     P 4522   5.982   0.047  10.920  0.2425  0.2760  0.4008
   34POPC   O13 4523   6.082   0.006  11.021 -0.1803  0.2257  0.1625
   34POPC   O14 4524   6.031   0.126  10.808 -0.3022 -0.6331 -0.3584
   34POPC   O12 4525   5.863   0.124  10.994  0.0800  0.1868 -0.0705
   34POPC   O11 4526   5.925  -0.085  10.859  0.2751 -0.2643  0.4807
   34POPC    C1 4527   5.782  -0.094  10.828  0.1363 -1.1301  0.1593
   34POPC    HA 4528   5.715  -0.050  10.905  0.0975 -1.8437  0.5388
   34POPC    HB 4529   5.767  -0.203  10.818  0.4653 -1.2169  0.5926
   34POPC    C2 4530   5.746  -0.046  10.689 -0.0289 -0.5960  0.6056
   34POPC    HS 4531   5.777   0.060  10.678  0.0470 -0.7437 -0.8332
   34POPC   O21 4532   5.603  -0.068  10.656  0.5455 -0.0618  0.8169
   34POPC   C21 4533   5.509  -0.012  10.727  0.4610 -0.1433  0.0709
   34POPC   O22 4534   5.521   0.057  10.828  0.4447  0.1956  0.0297
   34POPC   C22 4535   5.370  -0.038  10.659  0.1097 -0.3827 -0.5705
   34POPC   H2R 4536   5.314   0.057  10.649  1.3943  0.7057  1.7377
   34POPC   H2S 4537   5.308  -0.116  10.708  0.1848  0.0848  0.2934
   34POPC    C3 4538   5.825  -0.134  10.589  0.3381  0.0117  0.0716
   34POPC    HX 4539   5.820  -0.242  10.618 -1.4905  0.3730  1.2958
   34POPC    HY 4540   5.930  -0.104  10.606  0.2821  1.1993 -1.5041
   34POPC   O31 4541   5.801  -0.126  10.447  0.5000 -0.4901 -0.3594
   34POPC   C31 4542   5.856  -0.021  10.394 -0.6016 -0.1469  0.8471
   34POPC   O32 4543   5.913   0.078  10.448  0.3232  0.5123 -0.2003
   34POPC   C32 4544   5.833  -0.036  10.238  0.2780 -0.3381  0.5322
   34POPC   H2X 4545   5.776   0.049  10.195  0.9767  0.1999  0.6559
   34POPC   H2Y 4546   5.776  -0.131  10.227  2.2260 -1.5832  0.7798
   34POPC   C23 4547   5.382  -0.099  10.524 -0.1011  0.3992 -0.3540
   34POPC   H3R 4548   5.433  -0.196  10.539  2.9149  1.1213 -4.1259
   34POPC   H3S 4549   5.442  -0.037  10.453  0.4854  0.0082 -0.2019
   34POPC   C24 4550   5.241  -0.117  10.462  0.2692  0.0588 -0.2786
   34POPC   H4R 4551   5.171  -0.181  10.518  0.1251  2.2479  2.2491
   34POPC   H4S 4552   5.256  -0.167  10.363 -1.3040 -2.0821  0.4891
   34POPC   C25 4553   5.175   0.017  10.420 -0.2468  0.3181 -0.4226
   34POPC   H5R 4554   5.260   0.069  10.371  0.5496 -0.6839 -0.1373
   34POPC   H5S 4555   5.134   0.066  10.510  1.1713 -1.0321  1.0160
   34POPC   C26 4556   5.070   0.003  10.311 -0.3647  0.5053  0.4921
   34POPC   H6R 4557   5.018   0.102  10.312  0.3768  0.9089  0.3727
   34POPC   H6S 4558   5.001  -0.080  10.335 -0.0913  0.3060  0.5937
   34POPC   C27 4559   5.117  -0.017  10.168  0.3975 -0.4306 -0.3452
   34POPC   H7R 4560   5.197  -0.095  10.167  1.2581  0.1622  3.5666
   34POPC   H7S 4561   5.163   0.079  10.137 -0.4124  0.4739  1.1658
   34POPC   C28 4562   5.000  -0.060  10.066 -0.1922  0.2267 -0.0188
   34POPC   H8R 4563   4.927   0.024  10.071 -1.4066 -0.8299  3.9878
   34POPC   H8S 4564   4.957  -0.157  10.101 -1.4528 -0.3478 -2.8853
   34POPC   C29 4565   5.055  -0.095   9.926 -0.5289  0.5302  0.6077
   34POPC   H91 4566   5.140  -0.163   9.918 -1.0899 -0.2786  1.3576
   34POPC  C210 4567   4.991  -0.066   9.814 -0.5994  0.3450  0.2843
   34POPC  H101 4568   5.041  -0.083   9.717 -0.5447  3.0942 -0.2579
   34POPC  C211 4569   4.851  -0.014   9.810 -0.6857 -0.2325  0.1955
   34POPC  H11R 4570   4.793  -0.001   9.904  0.5649  1.9446  0.7464
   34POPC  H11S 4571   4.791  -0.081   9.745 -3.4767  4.1092 -2.1499
   34POPC  C212 4572   4.821   0.125   9.749 -0.2363  0.4595  0.1664
   34POPC  H12R 4573   4.877   0.189   9.820  2.1508 -0.5933 -0.6751
   34POPC  H12S 4574   4.711   0.140   9.756 -0.3209  0.1804 -0.4572
   34POPC  C213 4575   4.874   0.139   9.606 -0.0694  1.0431  0.5456
   34POPC  H13R 4576   4.982   0.140   9.579  0.0904 -2.3695  0.7091
   34POPC  H13S 4577   4.833   0.237   9.572 -0.6346  0.3000 -0.9914
   34POPC  C214 4578   4.807   0.044   9.498  0.5254  0.1960 -0.7994
   34POPC  H14R 4579   4.698   0.067   9.489 -0.4567 -3.3861  0.2300
   34POPC  H14S 4580   4.812  -0.063   9.529  0.8715  0.5176  0.2680
   34POPC  C215 4581   4.873   0.059   9.359 -0.4089  0.1164 -0.6196
   34POPC  H15R 4582   4.882   0.166   9.333  0.3370 -0.0628 -1.1445
   34POPC  H15S 4583   4.804   0.021   9.280  0.6409  1.4589 -2.2540
   34POPC  C216 4584   5.018  -0.007   9.340 -0.2162 -0.2726  0.0321
   34POPC  H16R 4585   5.013  -0.115   9.365 -1.0639 -0.3446 -0.3925
   34POPC  H16S 4586   5.089   0.036   9.414  0.2938 -0.9221 -0.0727
   34POPC  C217 4587   5.069  -0.006   9.196  0.1888  0.2641  0.5481
   34POPC  H17R 4588   5.168  -0.055   9.190 -0.5273 -1.1181 -0.6002
   34POPC  H17S 4589   5.074   0.098   9.156 -1.2192  0.1343 -0.0211
   34POPC  C218 4590   4.991  -0.093   9.100 -0.4112 -0.2063 -0.4492
   34POPC  H18R 4591   4.978  -0.191   9.149 -0.4222 -0.3271 -0.6931
   34POPC  H18S 4592   5.041  -0.101   9.001  0.9791 -2.4297  0.3701
   34POPC  H18T 4593   4.887  -0.055   9.095 -0.5746 -0.1377  2.2407
   34POPC   C33 4594   5.967  -0.029  10.163  1.1032  0.7150  0.2086
   34POPC   H3X 4595   6.020  -0.125  10.182 -0.2465  0.0184  0.5848
   34POPC   H3Y 4596   6.029   0.053  10.204  2.0030 -0.9923  2.4983
   34POPC   C34 4597   5.955  -0.022  10.011  0.1213 -0.1141 -0.2625
   34POPC   H4X 4598   6.052   0.009   9.968  1.8529 -2.5921  1.5613
   34POPC   H4Y 4599   5.883   0.054   9.975 -0.7202 -0.7092  0.1134
   34POPC   C35 4600   5.916  -0.158   9.951 -0.1802  0.0598 -0.3257
   34POPC   H5X 4601   5.823  -0.196   9.999  1.0139 -1.9548  0.5220
   34POPC   H5Y 4602   5.989  -0.238   9.975  0.0972 -0.3173 -2.2267
   34POPC   C36 4603   5.897  -0.149   9.792 -0.3759 -0.0148  0.6699
   34POPC   H6X 4604   5.838  -0.228   9.742  0.0686  0.7666 -1.1937
   34POPC   H6Y 4605   5.996  -0.146   9.740 -2.0297  1.4305 -2.6699
   34POPC   C37 4606   5.828  -0.019   9.741 -0.8264  0.4717  0.7762
   34POPC   H7X 4607   5.914   0.051   9.733  1.7323 -2.4315  0.9372
   34POPC   H7Y 4608   5.744   0.026   9.798 -0.7299  1.9249 -0.1845
   34POPC   C38 4609   5.768  -0.047   9.600  0.4506  0.2436 -0.2507
   34POPC   H8X 4610   5.706  -0.138   9.580  0.3177  0.1727  0.4728
   34POPC   H8Y 4611   5.854  -0.061   9.532 -1.1156 -1.4028 -2.0310
   34POPC   C39 4612   5.691   0.080   9.547  0.4849  0.4303 -0.4332
   34POPC   H9X 4613   5.743   0.177   9.564 -0.0932  0.6377  0.2173
   34POPC   H9Y 4614   5.597   0.090   9.605  0.4331 -0.3645 -0.3740
   34POPC  C310 4615   5.663   0.071   9.397  0.1700 -0.2209  0.1461
   34POPC  H10X 4616   5.597  -0.014   9.371 -0.8403  0.0865  1.5583
   34POPC  H10Y 4617   5.764   0.069   9.350  0.7838  0.6325  1.3885
   34POPC  C311 4618   5.565   0.184   9.351 -0.0628 -0.3614  0.3140
   34POPC  H11X 4619   5.605   0.282   9.388 -1.4522  1.8307 -3.4389
   34POPC  H11Y 4620   5.470   0.167   9.406  1.3960 -3.9255  2.0912
   34POPC  C312 4621   5.556   0.198   9.202  0.4181 -0.0781 -0.0262
   34POPC  H12X 4622   5.633   0.136   9.151 -1.5542 -2.8151  0.0850
   34POPC  H12Y 4623   5.565   0.303   9.168 -1.5986 -0.5021 -2.1190
   34POPC  C313 4624   5.428   0.150   9.142  0.4505  0.0770 -0.2671
   34POPC  H13X 4625   5.345   0.211   9.185 -1.7225 -2.7635 -0.1107
   34POPC  H13Y 4626   5.415   0.048   9.185  2.3031 -0.5107 -1.0288
   34POPC  C314 4627   5.431   0.131   8.986  0.5941 -0.3003 -0.3687
   34POPC  H14X 4628   5.507   0.055   8.958  0.6409 -0.0019 -1.0767
   34POPC  H14Y 4629   5.466   0.225   8.937  0.2951  0.0871  0.1530
   34POPC  C315 4630   5.290   0.100   8.928  0.0069  0.1910  0.2674
   34POPC  H15X 4631   5.216   0.179   8.955 -0.7718 -0.6878  0.7662
   34POPC  H15Y 4632   5.253   0.008   8.977  0.1751 -0.3650 -0.6244
   34POPC  C316 4633   5.284   0.087   8.772  0.1028  0.2186 -0.8594
   34POPC  H16X 4634   5.303   0.184   8.723  0.3717 -0.6972 -2.6569
   34POPC  H16Y 4635   5.187   0.050   8.734  1.3565 -1.2986 -2.8412
   34POPC  H16Z 4636   5.361   0.017   8.731 -0.5729 -0.4376 -1.0358
   35POPC     N 4637   4.479   3.487  11.757 -0.7955  0.1344  0.9239
   35POPC   C12 4638   4.356   3.454  11.673  0.7603  0.3664  0.0436
   35POPC  H12A 4639   4.286   3.535  11.690 -1.8533 -1.6459 -0.3919
   35POPC  H12B 4640   4.306   3.363  11.705  0.2368  0.9584  0.9549
   35POPC   C13 4641   4.462   3.475  11.903 -0.0402  0.1827 -0.3230
   35POPC  H13A 4642   4.359   3.487  11.934  0.7590  1.7228  2.0223
   35POPC  H13B 4643   4.488   3.373  11.926  3.5379  1.1920  0.7540
   35POPC  H13C 4644   4.530   3.534  11.962 -1.1327 -0.8847  2.1371
   35POPC   C14 4645   4.603   3.421  11.708  0.1539 -0.3577 -0.5183
   35POPC  H14A 4646   4.682   3.473  11.759 -1.9209  2.4984  0.0293
   35POPC  H14B 4647   4.599   3.315  11.730 -0.2187  0.0008  1.2071
   35POPC  H14C 4648   4.609   3.436  11.601 -3.7006 -0.2521 -0.8660
   35POPC   C15 4649   4.499   3.643  11.741 -0.1471  0.0279  0.4771
   35POPC  H15A 4650   4.525   3.673  11.641 -3.3806  0.1525 -0.4353
   35POPC  H15B 4651   4.565   3.685  11.816  1.0766  0.2664 -0.6952
   35POPC  H15C 4652   4.403   3.691  11.756  0.7456  2.2877 -0.5621
   35POPC   C11 4653   4.381   3.457  11.522  0.5805  0.3332 -0.3012
   35POPC  H11A 4654   4.435   3.552  11.501 -0.8777  1.5085  1.0728
   35POPC  H11B 4655   4.285   3.471  11.467  1.2284  1.1042 -1.2801
   35POPC     P 4656   4.398   3.208  11.415 -0.0339 -0.1902  0.2027
   35POPC   O13 4657   4.295   3.168  11.516 -0.0905 -0.0269 -0.4300
   35POPC   O14 4658   4.510   3.108  11.389  0.1121 -0.0398  0.3283
   35POPC   O12 4659   4.458   3.346  11.465  0.3428  0.0892 -0.5492
   35POPC   O11 4660   4.327   3.229  11.276 -0.4588  0.4973 -0.7038
   35POPC    C1 4661   4.200   3.165  11.245  0.6885 -0.5924  0.3839
   35POPC    HA 4662   4.153   3.106  11.327 -0.0751  2.2732  2.1337
   35POPC    HB 4663   4.207   3.101  11.154  2.3328  0.8631 -0.5764
   35POPC    C2 4664   4.090   3.281  11.237 -0.0841 -0.3637  0.3096
   35POPC    HS 4665   4.103   3.343  11.328 -2.4711 -1.1249  1.2405
   35POPC   O21 4666   3.961   3.217  11.237 -0.2012  0.1875 -0.3090
   35POPC   C21 4667   3.859   3.301  11.238  0.4477 -0.1785  0.0501
   35POPC   O22 4668   3.868   3.419  11.262 -0.0256  0.1391  0.1258
   35POPC   C22 4669   3.728   3.230  11.205  0.0309  0.7435  0.0230
   35POPC   H2R 4670   3.656   3.296  11.153  2.0457  0.1077 -4.0152
   35POPC   H2S 4671   3.682   3.198  11.301 -0.7423 -0.3565 -0.6891
   35POPC    C3 4672   4.126   3.373  11.114 -0.2461  0.1243 -0.3207
   35POPC    HX 4673   4.223   3.424  11.135 -1.1482  2.0469 -0.6759
   35POPC    HY 4674   4.049   3.451  11.099  0.6580  1.2048  0.4586
   35POPC   O31 4675   4.131   3.300  10.990 -0.0876 -0.0564  0.2108
   35POPC   C31 4676   4.161   3.382  10.883  0.1279 -0.2234  0.9560
   35POPC   O32 4677   4.173   3.503  10.888  0.1745  0.4509  0.6632
   35POPC   C32 4678   4.179   3.289  10.761  1.1866  1.2390  0.3071
   35POPC   H2X 4679   4.138   3.188  10.785  0.6736  1.8162  1.9823
   35POPC   H2Y 4680   4.287   3.274  10.740  0.4492  0.2213 -3.3748
   35POPC   C23 4681   3.740   3.103  11.111  0.6463  0.1450  0.1241
   35POPC   H3R 4682   3.636   3.071  11.090  0.4410 -0.1305  1.4957
   35POPC   H3S 4683   3.794   3.019  11.160 -0.5464 -0.0949  1.0596
   35POPC   C24 4684   3.810   3.122  10.973  0.6292 -0.2440 -0.4095
   35POPC   H4R 4685   3.919   3.143  10.978  0.2883  1.3532  2.4005
   35POPC   H4S 4686   3.761   3.216  10.939  0.0098  0.8731  3.1358
   35POPC   C25 4687   3.790   3.001  10.882  0.0533  0.4363  0.1016
   35POPC   H5R 4688   3.684   2.980  10.860  0.4193 -0.7524 -0.5941
   35POPC   H5S 4689   3.824   2.913  10.942  2.2305  1.0534 -0.1378
   35POPC   C26 4690   3.872   2.996  10.751  0.0323  0.3381 -0.9066
   35POPC   H6R 4691   3.978   3.019  10.776 -0.0952  0.7593 -0.7369
   35POPC   H6S 4692   3.826   3.072  10.684  1.2722  2.4449  0.5285
   35POPC   C27 4693   3.854   2.872  10.660 -0.5227 -0.1993 -0.0796
   35POPC   H7R 4694   3.751   2.863  10.619  0.3895  0.4703 -2.7884
   35POPC   H7S 4695   3.878   2.778  10.713  0.6198 -0.7026 -1.4299
   35POPC   C28 4696   3.947   2.881  10.539  0.0764 -0.7126  0.7446
   35POPC   H8R 4697   4.050   2.858  10.575  0.3475  0.0353  0.4643
   35POPC   H8S 4698   3.937   2.985  10.500  1.4945 -0.7662  0.1997
   35POPC   C29 4699   3.910   2.771  10.442  0.1354  0.5033  0.0645
   35POPC   H91 4700   3.888   2.669  10.476 -0.1002  1.0027  1.5077
   35POPC  C210 4701   3.899   2.803  10.307  0.6297  0.7150  0.3029
   35POPC  H101 4702   3.864   2.717  10.247 -0.9991  1.5455  0.0301
   35POPC  C211 4703   3.905   2.931  10.231 -0.7712  0.4178 -0.1827
   35POPC  H11R 4704   4.009   2.952  10.199 -2.1384  4.2195 -2.7951
   35POPC  H11S 4705   3.872   3.016  10.294 -0.8853 -1.2371  2.1401
   35POPC  C212 4706   3.824   2.941  10.102 -0.5840 -0.0443 -0.4064
   35POPC  H12R 4707   3.811   3.049  10.080 -1.9233 -0.1997 -0.4315
   35POPC  H12S 4708   3.719   2.906  10.111 -1.0218  1.4339  0.8101
   35POPC  C213 4709   3.897   2.883   9.982  0.1599 -0.4531  0.0144
   35POPC  H13R 4710   3.925   2.777   9.997  0.4676 -0.1779  1.5154
   35POPC  H13S 4711   3.997   2.930   9.974  0.3444 -0.9679 -0.8283
   35POPC  C214 4712   3.795   2.889   9.875  0.3458 -0.4270  0.3467
   35POPC  H14R 4713   3.768   2.995   9.854  1.5510  0.1126  1.4019
   35POPC  H14S 4714   3.701   2.836   9.900 -1.8779  2.1343 -1.7959
   35POPC  C215 4715   3.849   2.821   9.750  0.0849  0.4634 -0.4117
   35POPC  H15R 4716   3.887   2.723   9.785  0.5490  1.4528  2.1349
   35POPC  H15S 4717   3.933   2.887   9.719  0.2954  0.1140 -0.5886
   35POPC  C216 4718   3.748   2.815   9.642 -0.4545  0.1644  0.7939
   35POPC  H16R 4719   3.712   2.918   9.623 -0.9286 -0.2416 -0.6409
   35POPC  H16S 4720   3.668   2.748   9.679 -0.0061  1.3535  4.2409
   35POPC  C217 4721   3.799   2.766   9.499  0.4332 -0.0967 -0.0598
   35POPC  H17R 4722   3.707   2.731   9.447 -0.1547  1.0695  0.1657
   35POPC  H17S 4723   3.878   2.689   9.514  0.7183  0.1754 -0.1495
   35POPC  C218 4724   3.865   2.892   9.437 -0.1359  0.8012 -0.5044
   35POPC  H18R 4725   3.932   2.940   9.512 -0.5121  1.4090 -0.5484
   35POPC  H18S 4726   3.776   2.952   9.409 -0.9655 -1.3078 -2.7676
   35POPC  H18T 4727   3.927   2.868   9.348 -2.1224 -2.5259 -1.1595
   35POPC   C33 4728   4.080   3.344  10.644  0.3406  0.3636  0.2126
   35POPC   H3X 4729   4.084   3.454  10.632 -1.6323  0.6952  1.9964
   35POPC   H3Y 4730   3.979   3.314  10.680 -1.0552  2.1578 -1.9677
   35POPC   C34 4731   4.101   3.281  10.509  0.2170 -0.5021  0.5195
   35POPC   H4X 4732   4.019   3.307  10.440  1.1602 -0.3430 -0.5813
   35POPC   H4Y 4733   4.082   3.173  10.524 -2.9214 -0.1534 -0.3063
   35POPC   C35 4734   4.230   3.302  10.440 -0.7104 -0.8064 -0.3176
   35POPC   H5X 4735   4.305   3.237  10.491 -0.2854 -0.2576 -0.2335
   35POPC   H5Y 4736   4.258   3.407  10.461  0.5100 -1.2697  0.5254
   35POPC   C36 4737   4.246   3.294  10.286  0.1986  0.2356 -0.4440
   35POPC   H6X 4738   4.172   3.217  10.254  0.2407  0.0194 -0.0215
   35POPC   H6Y 4739   4.348   3.257  10.261  0.2444  0.7650 -1.0936
   35POPC   C37 4740   4.207   3.413  10.200 -0.2708 -0.2620 -0.2339
   35POPC   H7X 4741   4.269   3.502  10.227 -0.4141  0.2497 -1.5142
   35POPC   H7Y 4742   4.101   3.442  10.211 -0.2474 -0.7716  1.6810
   35POPC   C38 4743   4.227   3.383  10.049 -0.0110  0.2705 -0.4129
   35POPC   H8X 4744   4.321   3.325  10.055  0.2855  0.8008  0.3181
   35POPC   H8Y 4745   4.234   3.484  10.003  0.1725  0.0564 -0.8524
   35POPC   C39 4746   4.115   3.306   9.996 -0.2740  0.3636  0.5873
   35POPC   H9X 4747   4.014   3.348  10.017 -0.5514  0.5606 -0.9696
   35POPC   H9Y 4748   4.115   3.203  10.037 -0.0679  0.3939  0.6596
   35POPC  C310 4749   4.126   3.293   9.839 -0.8881  0.5868 -0.4269
   35POPC  H10X 4750   4.225   3.251   9.813 -0.0714  1.6838  0.8120
   35POPC  H10Y 4751   4.126   3.398   9.803 -2.3355  0.9603  0.5516
   35POPC  C311 4752   4.028   3.206   9.766  0.0605  0.0153  0.0529
   35POPC  H11X 4753   3.930   3.245   9.800 -0.5381 -1.6086  0.2822
   35POPC  H11Y 4754   4.022   3.102   9.806 -1.6851  1.3394  3.7784
   35POPC  C312 4755   4.025   3.213   9.611 -0.3050 -0.6061  0.2058
   35POPC  H12X 4756   4.015   3.320   9.580  2.2354  0.1826  1.7933
   35POPC  H12Y 4757   3.944   3.157   9.559  0.4139 -1.3724 -0.1122
   35POPC  C313 4758   4.158   3.150   9.550 -0.1228  0.2497 -0.2499
   35POPC  H13X 4759   4.148   3.040   9.568  1.4942  0.4234  2.2450
   35POPC  H13Y 4760   4.252   3.184   9.599 -1.0485  0.8915  1.1628
   35POPC  C314 4761   4.155   3.176   9.397  0.1129  0.2080 -0.1073
   35POPC  H14X 4762   4.055   3.144   9.359  0.3135 -2.0095  1.0933
   35POPC  H14Y 4763   4.232   3.118   9.343  0.0703  0.1128 -0.0641
   35POPC  C315 4764   4.188   3.327   9.372  0.8015  0.2403 -0.4761
   35POPC  H15X 4765   4.283   3.346   9.427  1.7926 -0.3475 -1.9159
   35POPC  H15Y 4766   4.111   3.391   9.419  0.0001 -0.5487 -0.6834
   35POPC  C316 4767   4.184   3.363   9.226  0.3527 -0.1963  0.1746
   35POPC  H16X 4768   4.081   3.358   9.183  0.2075 -0.3390  0.5332
   35POPC  H16Y 4769   4.248   3.309   9.153  0.0858 -0.0235 -0.1930
   35POPC  H16Z 4770   4.223   3.467   9.219  1.9137 -0.8270 -1.3757
   36POPC     N 4771   3.698   2.033  11.474 -0.0186  0.0940 -0.6713
   36POPC   C12 4772   3.761   1.977  11.348  0.0806  0.4174 -0.5794
   36POPC  H12A 4773   3.700   1.901  11.302 -0.5683  1.5501 -1.6489
   36POPC  H12B 4774   3.855   1.939  11.384  1.6538  3.1009 -1.5549
   36POPC   C13 4775   3.652   1.926  11.568 -0.3716  0.1166 -0.1500
   36POPC  H13A 4776   3.659   1.965  11.668  0.1204  2.5148 -1.0606
   36POPC  H13B 4777   3.547   1.911  11.549  0.2178 -0.8128 -3.3087
   36POPC  H13C 4778   3.708   1.833  11.566 -3.0735 -1.6774  1.7815
   36POPC   C14 4779   3.796   2.115  11.542  0.2983  0.0257 -0.4963
   36POPC  H14A 4780   3.874   2.050  11.581 -1.1176 -0.2354  2.1495
   36POPC  H14B 4781   3.820   2.190  11.468 -0.1504 -1.5652 -2.3382
   36POPC  H14C 4782   3.754   2.168  11.626 -2.8449 -0.9668 -1.3216
   36POPC   C15 4783   3.581   2.119  11.448  0.1947  0.7038 -0.5621
   36POPC  H15A 4784   3.531   2.154  11.537  1.8349  0.5276  0.4795
   36POPC  H15B 4785   3.508   2.086  11.375 -1.2657  1.4901  0.5013
   36POPC  H15C 4786   3.626   2.211  11.412 -0.3493  0.7137 -1.2328
   36POPC   C11 4787   3.795   2.072  11.231 -0.3148  0.2421  0.4064
   36POPC  H11A 4788   3.708   2.110  11.172  0.4566 -1.8159 -2.2719
   36POPC  H11B 4789   3.841   2.015  11.147 -0.5800  2.5091 -1.3752
   36POPC     P 4790   3.857   2.323  11.242  0.0128  0.1250 -0.1582
   36POPC   O13 4791   3.843   2.344  11.096 -0.4931  0.3947 -0.0085
   36POPC   O14 4792   3.966   2.397  11.312  0.3423 -0.4899  0.4764
   36POPC   O12 4793   3.883   2.177  11.270  0.1174 -0.0926  0.3044
   36POPC   O11 4794   3.721   2.345  11.313  0.0308 -0.3295 -0.0186
   36POPC    C1 4795   3.681   2.479  11.332 -0.1212  0.2808 -0.3309
   36POPC    HA 4796   3.765   2.542  11.370  0.3770  0.4872 -1.7048
   36POPC    HB 4797   3.599   2.462  11.404 -1.3922 -1.7397 -2.1481
   36POPC    C2 4798   3.610   2.547  11.219 -0.7739  0.7179 -0.4356
   36POPC    HS 4799   3.522   2.597  11.265 -0.5853  0.7102 -0.0620
   36POPC   O21 4800   3.573   2.470  11.111 -0.2083 -0.4341  0.5366
   36POPC   C21 4801   3.507   2.365  11.139  0.1333  0.0658  0.6309
   36POPC   O22 4802   3.435   2.349  11.234 -0.0709  0.1847  0.3740
   36POPC   C22 4803   3.522   2.275  11.016  0.6019 -0.4449  0.3653
   36POPC   H2R 4804   3.610   2.208  11.028 -0.9934 -2.5390  1.1288
   36POPC   H2S 4805   3.531   2.333  10.922  0.6354 -1.3567 -0.2065
   36POPC    C3 4806   3.691   2.662  11.160 -0.2885  0.2217  0.1450
   36POPC    HX 4807   3.793   2.617  11.154 -0.4082 -0.7323  3.4141
   36POPC    HY 4808   3.693   2.744  11.235 -2.0366  0.5973 -0.1747
   36POPC   O31 4809   3.639   2.701  11.033 -0.4421  0.1632  0.1863
   36POPC   C31 4810   3.529   2.778  11.049 -0.6320  0.7008  0.2614
   36POPC   O32 4811   3.499   2.837  11.146  0.5888  0.4358 -0.5589
   36POPC   C32 4812   3.455   2.787  10.914  0.3255  0.0125  0.3431
   36POPC   H2X 4813   3.500   2.865  10.850  0.6587 -0.1184  0.4162
   36POPC   H2Y 4814   3.347   2.807  10.933  0.2402 -1.5093  1.7463
   36POPC   C23 4815   3.382   2.207  10.996  0.0814 -0.1488 -0.3934
   36POPC   H3R 4816   3.302   2.283  11.012  1.9869  2.2239 -1.4686
   36POPC   H3S 4817   3.373   2.131  11.077 -1.9672  3.3097  2.9885
   36POPC   C24 4818   3.359   2.138  10.861  0.0166  0.2111 -0.3782
   36POPC   H4R 4819   3.441   2.065  10.845 -0.0659 -0.0345  0.2959
   36POPC   H4S 4820   3.366   2.204  10.772 -0.0037  0.1921 -0.3936
   36POPC   C25 4821   3.227   2.052  10.846 -0.5492  0.8199  0.0659
   36POPC   H5R 4822   3.225   1.984  10.933  1.4049  0.2819 -0.2483
   36POPC   H5S 4823   3.221   1.996  10.750 -1.6094 -0.0546  0.6170
   36POPC   C26 4824   3.098   2.140  10.848 -0.1462  0.4779  0.7071
   36POPC   H6R 4825   3.084   2.190  10.946  1.3702  1.5746  0.3944
   36POPC   H6S 4826   3.021   2.062  10.827 -0.1960  1.3501 -3.2971
   36POPC   C27 4827   3.076   2.246  10.741 -0.5918  0.2470 -0.0492
   36POPC   H7R 4828   3.139   2.334  10.767  0.8006 -1.6338  3.7465
   36POPC   H7S 4829   2.970   2.274  10.757 -0.2606  0.3080  2.3930
   36POPC   C28 4830   3.107   2.196  10.594  0.2113  0.1845  0.1455
   36POPC   H8R 4831   3.045   2.106  10.573  1.4766 -0.7408  0.2035
   36POPC   H8S 4832   3.216   2.173  10.588  0.0572 -1.0039  1.5707
   36POPC   C29 4833   3.055   2.301  10.496 -0.5284 -0.1710  0.1307
   36POPC   H91 4834   3.032   2.396  10.546 -1.5626  0.0299 -0.7090
   36POPC  C210 4835   3.037   2.285  10.367  0.0927  0.2734 -0.3955
   36POPC  H101 4836   2.996   2.373  10.315  0.4868  0.9820  0.4594
   36POPC  C211 4837   3.060   2.156  10.287 -0.7192 -0.3848  0.4670
   36POPC  H11R 4838   2.967   2.096  10.285 -1.5853  0.9284 -1.3677
   36POPC  H11S 4839   3.144   2.100  10.333 -0.9387 -0.6597  0.5283
   36POPC  C212 4840   3.117   2.203  10.151 -0.0208 -0.4428 -0.4908
   36POPC  H12R 4841   3.182   2.123  10.109 -0.2227 -0.8859  0.0234
   36POPC  H12S 4842   3.179   2.295  10.160  0.8853 -1.0749 -0.0518
   36POPC  C213 4843   3.004   2.218  10.049 -0.0929  0.1324  0.5505
   36POPC  H13R 4844   2.929   2.284  10.097 -1.7389  0.3611 -2.1013
   36POPC  H13S 4845   2.954   2.122  10.024 -1.3478  0.9939 -0.4074
   36POPC  C214 4846   3.047   2.295   9.915  1.1648  0.2898 -0.2792
   36POPC  H14R 4847   3.126   2.226   9.878  1.2275 -1.4865  2.8570
   36POPC  H14S 4848   3.094   2.395   9.932 -0.3004  1.3679 -2.1981
   36POPC  C215 4849   2.938   2.312   9.809 -0.1608 -0.2041  0.3047
   36POPC  H15R 4850   2.865   2.394   9.826 -0.7973 -0.5946 -0.5009
   36POPC  H15S 4851   2.890   2.213   9.794  0.6285 -0.2720 -2.3461
   36POPC  C216 4852   3.001   2.344   9.676 -1.3172 -0.3130  0.2294
   36POPC  H16R 4853   3.084   2.416   9.695 -1.7629  0.3166 -0.1968
   36POPC  H16S 4854   2.937   2.411   9.615 -2.4055 -1.4209  0.1064
   36POPC  C217 4855   3.065   2.234   9.599  0.0895  0.2297 -0.4463
   36POPC  H17R 4856   2.992   2.151   9.587 -1.7263  1.2703  2.4254
   36POPC  H17S 4857   3.155   2.203   9.656  0.7727  1.3991 -0.8532
   36POPC  C218 4858   3.109   2.277   9.459 -0.1437 -0.2045  0.3794
   36POPC  H18R 4859   3.024   2.296   9.391  0.0979 -2.8631 -0.7896
   36POPC  H18S 4860   3.176   2.202   9.410 -0.9866  0.5446 -2.0518
   36POPC  H18T 4861   3.177   2.365   9.465  2.6864 -2.2606  0.5992
   36POPC   C33 4862   3.465   2.648  10.842 -0.0328  0.4654  0.1119
   36POPC   H3X 4863   3.424   2.565  10.903 -2.9212  2.2904  0.8695
   36POPC   H3Y 4864   3.568   2.628  10.806 -0.4772 -1.6345 -0.1299
   36POPC   C34 4865   3.384   2.646  10.712  0.4210  0.2479 -0.5493
   36POPC   H4X 4866   3.277   2.657  10.739  1.1250 -0.0888  2.7633
   36POPC   H4Y 4867   3.397   2.550  10.657  0.5237  0.7313 -1.3957
   36POPC   C35 4868   3.419   2.758  10.614  0.0647  0.7326  0.4154
   36POPC   H5X 4869   3.525   2.791  10.621 -0.0894  1.3023  0.1616
   36POPC   H5Y 4870   3.354   2.844  10.640 -1.8017 -0.1815 -1.0307
   36POPC   C36 4871   3.398   2.715  10.470  0.2882  0.8953 -0.4781
   36POPC   H6X 4872   3.454   2.621  10.451 -1.3695 -0.1543 -0.2916
   36POPC   H6Y 4873   3.438   2.789  10.397 -1.4126  0.3497 -2.0313
   36POPC   C37 4874   3.249   2.686  10.444 -0.1457  0.0452 -0.3232
   36POPC   H7X 4875   3.196   2.783  10.429  1.6163  0.8346 -1.9469
   36POPC   H7Y 4876   3.202   2.633  10.529  0.3867  1.1288  0.6681
   36POPC   C38 4877   3.236   2.606  10.317  0.3745 -0.3075 -0.0015
   36POPC   H8X 4878   3.134   2.561  10.315  1.1324 -2.1129 -0.8016
   36POPC   H8Y 4879   3.308   2.522  10.313  1.0426  0.1157  1.8953
   36POPC   C39 4880   3.249   2.697  10.189 -0.0841 -0.2413 -0.3673
   36POPC   H9X 4881   3.355   2.723  10.171 -0.1593 -1.4962 -3.1388
   36POPC   H9Y 4882   3.193   2.790  10.212 -1.3570 -0.1148 -3.5409
   36POPC  C310 4883   3.193   2.633  10.057 -0.8019  0.2590  0.1992
   36POPC  H10X 4884   3.094   2.585  10.072  0.3025 -1.5962  2.0972
   36POPC  H10Y 4885   3.263   2.551  10.029 -2.5772 -1.4888  0.6605
   36POPC  C311 4886   3.183   2.729   9.942 -0.6413 -0.3442 -0.2090
   36POPC  H11X 4887   3.262   2.801   9.971  0.7325 -1.6941 -0.5073
   36POPC  H11Y 4888   3.081   2.772   9.931 -0.3490  0.2398 -0.6797
   36POPC  C312 4889   3.235   2.671   9.809 -0.8593  0.2512 -0.3804
   36POPC  H12X 4890   3.180   2.579   9.781  0.5844 -2.2612  4.0140
   36POPC  H12Y 4891   3.344   2.653   9.819 -0.7848 -0.6301 -2.3024
   36POPC  C313 4892   3.225   2.769   9.694  0.3086 -0.5066 -0.3266
   36POPC  H13X 4893   3.320   2.825   9.682 -0.8389  1.2417 -1.8172
   36POPC  H13Y 4894   3.136   2.834   9.711  1.9131  1.2056  2.3286
   36POPC  C314 4895   3.223   2.698   9.559  0.0683  1.0719  0.0304
   36POPC  H14X 4896   3.148   2.618   9.545  0.4352  0.6262  0.5490
   36POPC  H14Y 4897   3.312   2.631   9.549 -2.0878 -1.7676 -1.9516
   36POPC  C315 4898   3.213   2.790   9.436 -1.0879 -0.5785  0.6906
   36POPC  H15X 4899   3.130   2.863   9.442  0.0735  1.0190 -1.2560
   36POPC  H15Y 4900   3.193   2.723   9.349 -0.4891 -1.0890  0.9341
   36POPC  C316 4901   3.342   2.864   9.406 -0.4511  0.2863 -0.5487
   36POPC  H16X 4902   3.300   2.945   9.342 -1.7183  0.7666  0.8289
   36POPC  H16Y 4903   3.406   2.805   9.337  0.5920  1.9060 -1.0064
   36POPC  H16Z 4904   3.395   2.899   9.497  2.0423 -2.1910 -0.9131
   37POPC     N 4905   3.173   4.145   6.635  0.7114  0.0376 -0.0381
   37POPC   C12 4906   3.261   4.072   6.748  0.7692  0.0976  0.5553
   37POPC  H12A 4907   3.352   4.125   6.773  0.1275 -0.2118  4.0275
   37POPC  H12B 4908   3.294   3.985   6.693 -0.5196  0.9487 -1.7157
   37POPC   C13 4909   3.121   4.272   6.692  0.5755  0.1032  0.2480
   37POPC  H13A 4910   3.034   4.318   6.646 -0.6060 -1.3541  0.9148
   37POPC  H13B 4911   3.075   4.250   6.788 -0.7326 -0.1133 -0.3989
   37POPC  H13C 4912   3.190   4.352   6.711 -2.8716  3.0633  1.4914
   37POPC   C14 4913   3.255   4.180   6.511 -1.0209  0.4262  0.1614
   37POPC  H14A 4914   3.274   4.088   6.457  0.8527  1.0799 -0.3550
   37POPC  H14B 4915   3.199   4.239   6.439 -0.0724 -1.6087 -2.4197
   37POPC  H14C 4916   3.350   4.225   6.534 -0.3140 -1.4560  1.0598
   37POPC   C15 4917   3.059   4.058   6.596 -0.2969 -0.2440  0.2486
   37POPC  H15A 4918   2.992   4.114   6.532  1.6086  0.7221 -0.9708
   37POPC  H15B 4919   3.012   4.029   6.689  1.6042 -3.2519  0.4078
   37POPC  H15C 4920   3.090   3.966   6.547 -1.3248  0.1750 -1.2788
   37POPC   C11 4921   3.195   4.026   6.876 -0.2433 -0.2930  0.2721
   37POPC  H11A 4922   3.253   3.946   6.926 -3.3153 -3.1911 -0.4585
   37POPC  H11B 4923   3.098   3.979   6.850  0.2302 -2.3192  1.9141
   37POPC     P 4924   3.046   4.153   7.055 -0.6445 -0.1616  0.0712
   37POPC   O13 4925   2.939   4.062   6.997 -0.0992  0.1837 -1.0353
   37POPC   O14 4926   3.014   4.292   7.070  0.0006 -0.3294 -0.2567
   37POPC   O12 4927   3.175   4.134   6.966 -0.6275  0.0717  0.0136
   37POPC   O11 4928   3.091   4.092   7.195 -0.0455  0.3127  0.0347
   37POPC    C1 4929   3.229   4.103   7.236 -0.5545 -0.7325  0.7604
   37POPC    HA 4930   3.276   4.204   7.236 -0.0664 -0.8728 -2.2494
   37POPC    HB 4931   3.296   4.053   7.164  0.2916 -0.2379  1.1883
   37POPC    C2 4932   3.253   4.043   7.374  0.1608 -0.5251  0.1096
   37POPC    HS 4933   3.358   4.032   7.408  0.1610 -0.5908  0.0885
   37POPC   O21 4934   3.202   3.911   7.367  0.4130 -0.2736 -0.1093
   37POPC   C21 4935   3.287   3.830   7.288  0.7567  0.0797  0.2933
   37POPC   O22 4936   3.389   3.860   7.240  0.7914 -0.4880  0.8103
   37POPC   C22 4937   3.229   3.687   7.285 -0.1971 -0.8297  0.5629
   37POPC   H2R 4938   3.305   3.617   7.245  0.0172 -0.1740 -0.1794
   37POPC   H2S 4939   3.152   3.681   7.205  0.1655 -2.4628  0.3107
   37POPC    C3 4940   3.178   4.115   7.492  0.1137 -0.5206  0.2594
   37POPC    HX 4941   3.074   4.127   7.455 -0.0622 -3.0380 -0.1748
   37POPC    HY 4942   3.230   4.213   7.497  0.4947 -0.6859 -0.4705
   37POPC   O31 4943   3.189   4.037   7.617  0.1087  0.0690 -0.5332
   37POPC   C31 4944   3.082   3.963   7.642 -0.0270  0.1207  0.4871
   37POPC   O32 4945   2.978   3.957   7.581 -0.5116 -0.6266 -0.5151
   37POPC   C32 4946   3.105   3.886   7.774  0.3114  0.6686 -0.0590
   37POPC   H2X 4947   3.171   3.949   7.838  1.0233 -1.1824  1.1283
   37POPC   H2Y 4948   3.154   3.788   7.756  1.1997  0.6470  2.0795
   37POPC   C23 4949   3.163   3.621   7.414  0.1427  0.2079 -0.5852
   37POPC   H3R 4950   3.110   3.528   7.386  0.5166 -0.1510 -0.1237
   37POPC   H3S 4951   3.085   3.692   7.450 -1.0544 -0.3842 -1.9225
   37POPC   C24 4952   3.280   3.584   7.506  0.6996 -0.7877 -0.1952
   37POPC   H4R 4953   3.334   3.678   7.531 -2.9775  0.9407  2.0579
   37POPC   H4S 4954   3.342   3.503   7.462  1.0524  0.2784 -1.6964
   37POPC   C25 4955   3.221   3.526   7.644  0.1912 -0.0685  0.2064
   37POPC   H5R 4956   3.172   3.429   7.620 -0.3048  0.6152 -1.6626
   37POPC   H5S 4957   3.136   3.590   7.675 -0.1773 -1.0791  1.3672
   37POPC   C26 4958   3.331   3.493   7.750  0.8260  0.1326  0.4478
   37POPC   H6R 4959   3.402   3.577   7.766  0.2950  0.5137  0.8532
   37POPC   H6S 4960   3.396   3.421   7.695 -0.2425  0.2580 -1.0190
   37POPC   C27 4961   3.276   3.439   7.887  0.3086  0.3276 -0.4630
   37POPC   H7R 4962   3.190   3.369   7.872  2.7017 -2.7458 -0.7781
   37POPC   H7S 4963   3.244   3.528   7.945 -2.0234 -1.1451  0.6667
   37POPC   C28 4964   3.392   3.372   7.976  0.3843 -0.4170  0.0759
   37POPC   H8R 4965   3.435   3.297   7.907 -2.9904 -1.4389 -1.1127
   37POPC   H8S 4966   3.347   3.309   8.057  1.8585 -3.0826 -1.0646
   37POPC   C29 4967   3.499   3.461   8.032  0.6003 -0.9799 -0.1944
   37POPC   H91 4968   3.557   3.518   7.958 -2.4762  3.1946  0.2124
   37POPC  C210 4969   3.516   3.484   8.161 -0.9657 -0.9140  0.2816
   37POPC  H101 4970   3.605   3.540   8.191  0.4321 -2.2761 -1.1200
   37POPC  C211 4971   3.429   3.422   8.270  0.0113 -0.0754  0.9254
   37POPC  H11R 4972   3.477   3.333   8.316 -0.0779 -1.1108 -0.9105
   37POPC  H11S 4973   3.333   3.374   8.241 -0.0560 -0.0185  1.0548
   37POPC  C212 4974   3.402   3.534   8.367 -0.2242 -0.0576 -0.5129
   37POPC  H12R 4975   3.369   3.628   8.318  2.1809  0.6101 -0.9573
   37POPC  H12S 4976   3.497   3.556   8.419  1.0558 -3.4622 -1.1224
   37POPC  C213 4977   3.295   3.486   8.466 -0.1437  0.0175  0.9573
   37POPC  H13R 4978   3.319   3.385   8.505  3.4846  0.3146 -0.0775
   37POPC  H13S 4979   3.191   3.493   8.429  0.1210 -0.6075  0.0672
   37POPC  C214 4980   3.292   3.581   8.593  0.1061 -0.4312  0.0954
   37POPC  H14R 4981   3.370   3.535   8.658  1.9124 -1.2946 -2.5031
   37POPC  H14S 4982   3.193   3.555   8.635 -0.2703  0.5974 -0.1207
   37POPC  C215 4983   3.293   3.726   8.553 -0.0473 -0.5214 -0.0753
   37POPC  H15R 4984   3.223   3.746   8.470  0.1470  1.2740  0.1453
   37POPC  H15S 4985   3.397   3.750   8.521 -0.8372  2.3506 -0.7425
   37POPC  C216 4986   3.254   3.814   8.671 -0.6084 -0.6315 -0.3819
   37POPC  H16R 4987   3.147   3.801   8.701 -0.4918  0.9655  0.8952
   37POPC  H16S 4988   3.260   3.922   8.646  0.9742  0.0643  2.5491
   37POPC  C217 4989   3.332   3.809   8.803  0.0926  0.1831  1.2638
   37POPC  H17R 4990   3.327   3.703   8.836 -0.6986 -0.7603 -1.6422
   37POPC  H17S 4991   3.272   3.862   8.880 -1.7305  0.7383 -0.4465
   37POPC  C218 4992   3.479   3.872   8.801  0.7298 -0.1497  0.3639
   37POPC  H18R 4993   3.534   3.839   8.710 -1.1950 -3.4108  0.2184
   37POPC  H18S 4994   3.541   3.856   8.892  0.9440 -1.7118 -0.0233
   37POPC  H18T 4995   3.478   3.982   8.793 -0.6399 -0.1319  0.5542
   37POPC   C33 4996   2.965   3.865   7.849 -0.3836  0.2345  0.1791
   37POPC   H3X 4997   2.906   3.802   7.778 -1.0455  1.1947 -0.1405
   37POPC   H3Y 4998   2.902   3.956   7.859 -1.3687 -0.2835 -0.9923
   37POPC   C34 4999   2.978   3.790   7.982  0.4212  0.7960  0.2204
   37POPC   H4X 5000   3.026   3.693   7.960 -2.1187 -1.1776  2.6282
   37POPC   H4Y 5001   2.879   3.760   8.023  1.1575 -0.5200  1.1109
   37POPC   C35 5002   3.063   3.862   8.084 -0.0681  0.6038 -0.4347
   37POPC   H5X 5003   3.011   3.955   8.116 -1.4549 -0.4062  0.3400
   37POPC   H5Y 5004   3.160   3.890   8.038  0.5964  0.0647  0.5883
   37POPC   C36 5005   3.085   3.773   8.210  1.4680 -0.2593 -0.0878
   37POPC   H6X 5006   3.183   3.797   8.257 -0.5382 -1.2035  5.3662
   37POPC   H6Y 5007   3.095   3.668   8.176 -1.5981 -0.2295 -1.3417
   37POPC   C37 5008   2.970   3.784   8.306 -0.3927  0.2426  0.4894
   37POPC   H7X 5009   2.967   3.697   8.376 -2.1791 -0.1034  0.0423
   37POPC   H7Y 5010   2.868   3.772   8.263  0.4203 -0.7347 -1.2461
   37POPC   C38 5011   2.963   3.912   8.390  0.0244 -0.3255 -0.2208
   37POPC   H8X 5012   2.946   4.001   8.326 -0.7151 -2.6070 -3.4300
   37POPC   H8Y 5013   3.064   3.928   8.434 -0.2391  0.1913  0.1979
   37POPC   C39 5014   2.873   3.896   8.509  0.0501  0.0407 -0.0271
   37POPC   H9X 5015   2.894   3.803   8.566 -2.4946  0.3289  1.5833
   37POPC   H9Y 5016   2.765   3.885   8.482  0.3776  1.5928 -2.2173
   37POPC  C310 5017   2.875   4.010   8.618  0.3557 -0.3399 -0.0769
   37POPC  H10X 5018   2.852   4.109   8.573  1.3790 -0.0335  0.0593
   37POPC  H10Y 5019   2.973   4.025   8.667 -0.1330  1.8061  0.3489
   37POPC  C311 5020   2.777   3.969   8.736 -0.4542 -0.7069  0.7139
   37POPC  H11X 5021   2.812   3.873   8.779  0.9139 -0.0428  1.1240
   37POPC  H11Y 5022   2.681   3.945   8.684 -1.0011  2.8450 -0.1450
   37POPC  C312 5023   2.767   4.078   8.841  0.3574  0.4597 -0.1706
   37POPC  H12X 5024   2.695   4.049   8.921  0.2545  3.4696  0.9477
   37POPC  H12Y 5025   2.743   4.177   8.797  2.8277  1.8876  1.4563
   37POPC  C313 5026   2.896   4.090   8.930  0.0061  0.3380  0.1083
   37POPC  H13X 5027   2.984   4.130   8.876 -0.6055  1.5537 -0.0340
   37POPC  H13Y 5028   2.912   3.987   8.968  2.5575  1.2462  1.7418
   37POPC  C314 5029   2.877   4.177   9.056 -0.0033 -0.2752 -0.4099
   37POPC  H14X 5030   2.781   4.145   9.103 -0.0254 -0.2029 -0.4068
   37POPC  H14Y 5031   2.862   4.276   9.008 -1.2374 -0.7216 -1.0152
   37POPC  C315 5032   2.976   4.189   9.178  0.5182  0.2375  0.1095
   37POPC  H15X 5033   3.077   4.210   9.138 -0.3484  1.3910 -1.6144
   37POPC  H15Y 5034   2.972   4.088   9.223 -1.7232  0.7523  1.2375
   37POPC  C316 5035   2.934   4.291   9.286 -0.1738 -0.3296 -0.2134
   37POPC  H16X 5036   2.936   4.393   9.243  1.9639  0.4280  1.4601
   37POPC  H16Y 5037   3.011   4.284   9.367  0.2085 -0.2373 -0.5659
   37POPC  H16Z 5038   2.833   4.258   9.316  0.1289 -1.6967 -0.6399
   38POPC     N 5039   3.349   2.327   6.602 -0.9410  0.0096 -0.7485
   38POPC   C12 5040   3.468   2.238   6.558  0.2860 -0.1817 -0.1026
   38POPC  H12A 5041   3.490   2.266   6.456  1.0925  0.2156  0.1717
   38POPC  H12B 5042   3.425   2.139   6.565 -1.3940  0.6093  2.0843
   38POPC   C13 5043   3.302   2.291   6.747 -0.1969  0.7856  0.2870
   38POPC  H13A 5044   3.236   2.367   6.786 -0.4363  1.4772 -1.3753
   38POPC  H13B 5045   3.265   2.191   6.764  2.7883 -0.4432  0.1628
   38POPC  H13C 5046   3.384   2.292   6.818  1.0866  0.4517 -1.1342
   38POPC   C14 5047   3.391   2.473   6.588  0.4337  0.8146  0.3578
   38POPC  H14A 5048   3.411   2.500   6.486  0.0361  2.3844  0.6705
   38POPC  H14B 5049   3.323   2.546   6.629  0.1321  0.7175  0.0281
   38POPC  H14C 5050   3.484   2.488   6.642  1.9701  1.8857 -2.3968
   38POPC   C15 5051   3.231   2.297   6.514  0.0735 -0.2409 -0.2060
   38POPC  H15A 5052   3.245   2.289   6.407 -0.2190 -1.1440 -0.1829
   38POPC  H15B 5053   3.155   2.368   6.544 -1.2257 -2.3462  1.8686
   38POPC  H15C 5054   3.192   2.198   6.535 -2.9242  0.6858 -0.8430
   38POPC   C11 5055   3.608   2.237   6.632  0.0379  0.0288  1.0295
   38POPC  H11A 5056   3.655   2.143   6.594  0.4936  1.1431 -1.2932
   38POPC  H11B 5057   3.577   2.216   6.737  0.6478  0.8137  1.3772
   38POPC     P 5058   3.789   2.390   6.542 -0.3961  0.6133 -0.1483
   38POPC   O13 5059   3.864   2.502   6.608 -0.8668  0.2768  0.0862
   38POPC   O14 5060   3.727   2.426   6.410 -0.4803  0.4959  0.1166
   38POPC   O12 5061   3.672   2.359   6.640  0.5671  0.2812  0.6402
   38POPC   O11 5062   3.880   2.258   6.540  0.7599 -0.6557 -0.3547
   38POPC    C1 5063   3.973   2.216   6.634 -0.5852  0.5752 -1.0692
   38POPC    HA 5064   4.027   2.299   6.686  1.3265  0.2872 -2.4752
   38POPC    HB 5065   4.052   2.156   6.585  0.0089 -0.1088  0.6735
   38POPC    C2 5066   3.907   2.139   6.755 -0.1322  0.2715  0.0331
   38POPC    HS 5067   3.830   2.080   6.701 -0.0788  0.5210 -0.3178
   38POPC   O21 5068   3.854   2.234   6.846  0.1948 -0.2803  0.4441
   38POPC   C21 5069   3.756   2.187   6.927  0.0309 -0.1524  0.0973
   38POPC   O22 5070   3.706   2.075   6.923  0.4108 -0.0069  0.6285
   38POPC   C22 5071   3.729   2.289   7.033  0.3640 -0.7676 -0.1927
   38POPC   H2R 5072   3.697   2.388   6.994  1.1484 -0.0289  0.9619
   38POPC   H2S 5073   3.821   2.316   7.090  0.0143  3.4789 -1.2957
   38POPC    C3 5074   3.996   2.027   6.827 -0.2717 -0.0451  0.0328
   38POPC    HX 5075   3.995   1.956   6.742 -1.0081  0.6155 -0.5211
   38POPC    HY 5076   3.948   1.989   6.920 -1.3070  0.9786 -0.0595
   38POPC   O31 5077   4.138   2.060   6.842  0.0572 -0.2343 -0.7564
   38POPC   C31 5078   4.149   2.133   6.952 -1.7028 -0.5241  0.5063
   38POPC   O32 5079   4.064   2.170   7.030  0.4969  0.3072  0.5943
   38POPC   C32 5080   4.300   2.161   6.977 -0.1016  0.2537  0.1636
   38POPC   H2X 5081   4.365   2.118   6.897  1.5545  3.0648 -0.1121
   38POPC   H2Y 5082   4.333   2.093   7.058  1.7120 -0.1130 -0.8278
   38POPC   C23 5083   3.629   2.238   7.139 -0.3127  0.5717 -0.6998
   38POPC   H3R 5084   3.596   2.133   7.126  1.7961 -0.1079 -0.8282
   38POPC   H3S 5085   3.543   2.309   7.137  1.4752  2.9450  0.7219
   38POPC   C24 5086   3.676   2.262   7.284 -0.4962  0.3950  0.5844
   38POPC   H4R 5087   3.777   2.215   7.284  1.2668  3.8148 -1.3088
   38POPC   H4S 5088   3.612   2.209   7.358  1.8261 -2.6782  0.6182
   38POPC   C25 5089   3.698   2.402   7.317  0.1260  0.3279  0.2208
   38POPC   H5R 5090   3.599   2.452   7.308  1.0702  2.4359  0.8066
   38POPC   H5S 5091   3.775   2.456   7.258  0.1891  0.2172  0.2024
   38POPC   C26 5092   3.746   2.421   7.462 -0.1176 -0.2501 -0.1959
   38POPC   H6R 5093   3.700   2.344   7.527 -0.7274  1.2713  1.2395
   38POPC   H6S 5094   3.728   2.522   7.505  3.8948  0.7179 -0.3719
   38POPC   C27 5095   3.898   2.406   7.462 -0.1269  0.0727 -0.4651
   38POPC   H7R 5096   3.952   2.467   7.387  1.0396 -1.0413 -0.5616
   38POPC   H7S 5097   3.909   2.302   7.424 -1.4602 -0.9378  1.7062
   38POPC   C28 5098   3.965   2.445   7.593 -0.8488  0.5670 -0.2091
   38POPC   H8R 5099   3.941   2.552   7.613 -0.0739  0.5443  0.9042
   38POPC   H8S 5100   4.074   2.441   7.572 -0.5531 -1.0100  1.4191
   38POPC   C29 5101   3.922   2.360   7.710 -0.2904 -0.2786 -0.7618
   38POPC   H91 5102   3.966   2.260   7.721  0.7600  0.2902  0.4070
   38POPC  C210 5103   3.837   2.404   7.808 -0.6039  0.2796 -0.1730
   38POPC  H101 5104   3.822   2.334   7.891  1.0529 -2.0072 -1.6764
   38POPC  C211 5105   3.779   2.535   7.816  0.1529 -0.2782  0.0196
   38POPC  H11R 5106   3.732   2.546   7.717 -2.1800 -2.2699  0.8003
   38POPC  H11S 5107   3.860   2.609   7.834 -0.7878  1.0438 -1.0379
   38POPC  C212 5108   3.672   2.549   7.929  1.0535  0.8833 -0.4578
   38POPC  H12R 5109   3.570   2.508   7.912  1.1490 -1.0922  2.9403
   38POPC  H12S 5110   3.662   2.659   7.940  2.5677  0.9743  0.2403
   38POPC  C213 5111   3.722   2.506   8.070 -0.4772 -0.0695 -0.5585
   38POPC  H13R 5112   3.830   2.531   8.071  0.4475 -3.4949  2.3248
   38POPC  H13S 5113   3.724   2.395   8.072 -4.7932 -0.3068 -0.2948
   38POPC  C214 5114   3.642   2.560   8.181 -0.6921  0.4969 -0.0115
   38POPC  H14R 5115   3.552   2.498   8.202 -0.1803  0.6002  2.8295
   38POPC  H14S 5116   3.607   2.663   8.156 -1.9377  0.5647  1.7777
   38POPC  C215 5117   3.719   2.564   8.312 -0.2842  0.0430 -0.8339
   38POPC  H15R 5118   3.817   2.615   8.300 -0.5813  0.5749 -1.0343
   38POPC  H15S 5119   3.738   2.458   8.338 -0.2693  0.4552  0.9837
   38POPC  C216 5120   3.652   2.609   8.441  0.0032 -0.4423 -0.2300
   38POPC  H16R 5121   3.554   2.557   8.439  0.0299 -0.4634 -1.1755
   38POPC  H16S 5122   3.633   2.718   8.430 -1.3247 -0.5115  1.0583
   38POPC  C217 5123   3.717   2.579   8.572 -0.1678  1.3301  0.7494
   38POPC  H17R 5124   3.663   2.636   8.651 -0.0515  2.1049  0.2768
   38POPC  H17S 5125   3.822   2.607   8.595  0.1801  0.7906 -0.1167
   38POPC  C218 5126   3.717   2.427   8.599  0.7345 -0.1601 -0.5396
   38POPC  H18R 5127   3.709   2.404   8.707 -1.3350 -0.0058 -0.6174
   38POPC  H18S 5128   3.816   2.388   8.568 -0.1608 -2.3676 -0.8034
   38POPC  H18T 5129   3.628   2.381   8.551  0.9564 -0.2748 -0.8447
   38POPC   C33 5130   4.343   2.305   7.009 -0.4393 -0.2001 -0.1494
   38POPC   H3X 5131   4.321   2.387   6.937 -0.2815 -0.6756 -0.7458
   38POPC   H3Y 5132   4.454   2.295   7.013 -0.5605 -2.7134 -0.9810
   38POPC   C34 5133   4.309   2.354   7.147  0.6732 -0.4523  0.1225
   38POPC   H4X 5134   4.338   2.284   7.228 -1.8187 -1.4135  0.2539
   38POPC   H4Y 5135   4.203   2.386   7.143  0.2756 -1.5193  1.5048
   38POPC   C35 5136   4.387   2.478   7.191  0.3753 -0.1372 -0.1166
   38POPC   H5X 5137   4.393   2.547   7.104 -2.2892 -1.9762 -1.9134
   38POPC   H5Y 5138   4.495   2.458   7.211  0.4035 -0.5569 -0.6639
   38POPC   C36 5139   4.340   2.544   7.318  0.7179  0.5702  0.0122
   38POPC   H6X 5140   4.232   2.568   7.314  0.4216 -0.1988  1.8929
   38POPC   H6Y 5141   4.401   2.636   7.325  1.7866 -0.0339 -1.0150
   38POPC   C37 5142   4.362   2.461   7.451  0.7812  0.5371  0.5275
   38POPC   H7X 5143   4.462   2.415   7.466  0.3844 -0.0683  1.4487
   38POPC   H7Y 5144   4.290   2.376   7.450  1.4948 -0.0744  0.4222
   38POPC   C38 5145   4.339   2.555   7.568  0.0587  0.5135 -0.3795
   38POPC   H8X 5146   4.247   2.616   7.569  0.7191  1.6567 -2.6475
   38POPC   H8Y 5147   4.423   2.627   7.568  0.2073  0.3420 -0.1808
   38POPC   C39 5148   4.329   2.478   7.699 -0.4113  0.5956 -0.4010
   38POPC   H9X 5149   4.430   2.446   7.734 -0.5687 -1.0489 -1.3521
   38POPC   H9Y 5150   4.273   2.386   7.673  0.0687 -0.7860  2.9207
   38POPC  C310 5151   4.272   2.554   7.823 -0.1662 -0.5296  0.9969
   38POPC  H10X 5152   4.161   2.559   7.815 -0.0925  1.8810  0.7446
   38POPC  H10Y 5153   4.308   2.658   7.835 -0.4458 -0.3812  0.5731
   38POPC  C311 5154   4.299   2.492   7.962 -0.0960 -0.0719  0.2365
   38POPC  H11X 5155   4.332   2.574   8.029 -1.9183 -0.0301  1.1570
   38POPC  H11Y 5156   4.391   2.430   7.973 -0.6504 -0.7798  0.9965
   38POPC  C312 5157   4.181   2.422   8.034  0.3761  0.1979  0.8582
   38POPC  H12X 5158   4.112   2.378   7.959 -0.8856  2.1033  0.8220
   38POPC  H12Y 5159   4.130   2.505   8.088  1.2856  0.0598  1.9668
   38POPC  C313 5160   4.223   2.334   8.155  0.0037  0.0357 -0.1613
   38POPC  H13X 5161   4.273   2.404   8.225 -1.7946  0.8037  0.4079
   38POPC  H13Y 5162   4.296   2.254   8.131 -0.9594 -0.2106 -2.4678
   38POPC  C314 5163   4.089   2.275   8.210  0.1976 -0.1991  0.3456
   38POPC  H14X 5164   4.035   2.216   8.132  0.2087  2.2516 -1.6370
   38POPC  H14Y 5165   4.028   2.365   8.232  1.1809  0.8414 -0.9841
   38POPC  C315 5166   4.108   2.189   8.338  0.0317 -0.0277 -0.4090
   38POPC  H15X 5167   4.217   2.181   8.355 -0.3460 -1.2065  1.7928
   38POPC  H15Y 5168   4.063   2.087   8.330 -2.2996  0.8498  0.6572
   38POPC  C316 5169   4.050   2.256   8.461 -0.3382 -0.7075  0.2955
   38POPC  H16X 5170   4.085   2.210   8.556 -0.5991  0.5429  1.0205
   38POPC  H16Y 5171   3.940   2.268   8.453 -0.4592 -1.6363  0.4663
   38POPC  H16Z 5172   4.094   2.358   8.458  1.3644 -1.4179 -2.3670
   39POPC     N 5173   2.841   5.107   6.257 -0.1736 -0.1700  0.6207
   39POPC   C12 5174   2.890   4.996   6.353  0.0047 -0.2930  0.5211
   39POPC  H12A 5175   2.920   4.908   6.300 -0.1904  0.8271 -1.5526
   39POPC  H12B 5176   2.799   4.969   6.404 -0.6450 -0.9713 -0.9438
   39POPC   C13 5177   2.943   5.134   6.153 -0.0146  0.5209  0.4217
   39POPC  H13A 5178   2.968   5.040   6.105 -0.1657 -0.6376  2.4796
   39POPC  H13B 5179   2.910   5.203   6.076 -2.6977  0.0237  1.0367
   39POPC  H13C 5180   3.037   5.158   6.200 -0.8825  1.4001  1.7603
   39POPC   C14 5181   2.725   5.053   6.180 -0.3570  0.5761  0.4592
   39POPC  H14A 5182   2.680   5.127   6.116  1.7983  1.8461  0.3135
   39POPC  H14B 5183   2.752   4.964   6.125  1.2222  1.2945  0.0221
   39POPC  H14C 5184   2.650   5.020   6.251 -0.9633 -2.6140 -1.4790
   39POPC   C15 5185   2.803   5.226   6.335 -0.3490 -0.2771 -0.2422
   39POPC  H15A 5186   2.887   5.247   6.400  2.0223 -2.8700 -2.2072
   39POPC  H15B 5187   2.716   5.208   6.396 -0.2024  1.1543  0.4436
   39POPC  H15C 5188   2.800   5.311   6.269  1.7221 -0.5762 -0.8020
   39POPC   C11 5189   3.010   5.028   6.451 -0.1247  0.5883  0.0104
   39POPC  H11A 5190   3.023   4.951   6.530 -0.7503  0.5740  0.1041
   39POPC  H11B 5191   2.985   5.123   6.504 -0.2026  0.0598  0.9423
   39POPC     P 5192   3.234   5.138   6.391 -0.5919  0.1431 -0.4251
   39POPC   O13 5193   3.174   5.265   6.356  0.1559 -0.0222  0.2813
   39POPC   O14 5194   3.356   5.097   6.316 -0.1716 -0.3573  0.2512
   39POPC   O12 5195   3.125   5.028   6.374  0.2803  0.3137  0.2687
   39POPC   O11 5196   3.276   5.136   6.544 -0.5949  0.0244  0.0016
   39POPC    C1 5197   3.325   5.015   6.598  0.4672 -0.0179 -0.5573
   39POPC    HA 5198   3.427   4.985   6.566  0.8948  0.1417  0.6068
   39POPC    HB 5199   3.243   4.941   6.591  1.2337 -1.1428  1.5514
   39POPC    C2 5200   3.333   5.043   6.756  0.6946 -0.6227 -0.1539
   39POPC    HS 5201   3.356   4.955   6.819 -1.6608  0.9513  3.2234
   39POPC   O21 5202   3.203   5.087   6.809 -0.1892 -0.1133 -0.1595
   39POPC   C21 5203   3.114   4.987   6.819  0.3655 -0.2872  0.3008
   39POPC   O22 5204   3.143   4.868   6.796 -0.7285 -0.5348 -0.5997
   39POPC   C22 5205   2.982   5.031   6.867  0.4828 -0.2405 -0.6744
   39POPC   H2R 5206   2.905   4.954   6.845  0.3989 -0.2925 -0.2207
   39POPC   H2S 5207   2.964   5.131   6.821 -0.7431 -0.2994 -0.3655
   39POPC    C3 5208   3.434   5.156   6.770 -0.3469  0.3516 -0.2745
   39POPC    HX 5209   3.406   5.248   6.714  0.2165 -0.6852 -2.3740
   39POPC    HY 5210   3.521   5.126   6.708 -0.4057  3.9278 -2.3404
   39POPC   O31 5211   3.483   5.174   6.907  0.0338  0.4510 -0.1265
   39POPC   C31 5212   3.425   5.281   6.961  0.2877 -0.4620  0.0160
   39POPC   O32 5213   3.339   5.351   6.906  0.1934  0.1620 -0.4590
   39POPC   C32 5214   3.475   5.302   7.103  0.2725 -0.5518 -0.2578
   39POPC   H2X 5215   3.434   5.225   7.171  0.6430  0.4137  1.1006
   39POPC   H2Y 5216   3.584   5.285   7.098 -0.0213 -3.1409  1.0149
   39POPC   C23 5217   2.990   5.061   7.024 -0.2420  0.3159  0.0487
   39POPC   H3R 5218   3.079   5.126   7.037  0.7500 -0.7836 -0.9208
   39POPC   H3S 5219   3.025   4.972   7.082 -0.3039 -0.6412 -1.3261
   39POPC   C24 5220   2.866   5.142   7.074  0.0039  0.5366  0.9175
   39POPC   H4R 5221   2.794   5.059   7.092  0.4788 -0.5250 -1.5633
   39POPC   H4S 5222   2.821   5.199   6.990 -2.2061  1.4595  2.6260
   39POPC   C25 5223   2.893   5.216   7.204 -0.0253 -0.2003  0.0304
   39POPC   H5R 5224   2.948   5.307   7.172 -0.4022 -0.5890 -1.8014
   39POPC   H5S 5225   2.963   5.157   7.267 -0.2638 -1.7676 -1.1036
   39POPC   C26 5226   2.769   5.255   7.286 -0.2178  0.2252  0.9639
   39POPC   H6R 5227   2.707   5.172   7.328 -0.5965  0.5838  1.1212
   39POPC   H6S 5228   2.706   5.317   7.218  1.4434  1.4750  0.5040
   39POPC   C27 5229   2.816   5.341   7.400  0.1641 -0.0996 -0.1339
   39POPC   H7R 5230   2.863   5.423   7.341  1.1584  0.7931  1.8026
   39POPC   H7S 5231   2.890   5.290   7.465 -0.2577 -0.3659  0.1417
   39POPC   C28 5232   2.694   5.391   7.489 -0.6895 -0.5062  0.3663
   39POPC   H8R 5233   2.612   5.417   7.419  0.1338  0.6131 -0.2036
   39POPC   H8S 5234   2.722   5.482   7.548 -1.7093  0.5527 -0.7253
   39POPC   C29 5235   2.665   5.275   7.584 -0.3459  0.0624  1.3133
   39POPC   H91 5236   2.718   5.185   7.549 -0.4603  0.6931 -0.5931
   39POPC  C210 5237   2.593   5.287   7.694 -1.0655 -0.2600  0.2760
   39POPC  H101 5238   2.584   5.198   7.759 -2.6736 -0.0794  0.3528
   39POPC  C211 5239   2.539   5.415   7.756 -0.3800 -0.0502  0.3935
   39POPC  H11R 5240   2.428   5.426   7.758 -0.4451  0.0860 -1.5479
   39POPC  H11S 5241   2.573   5.500   7.693 -2.8376 -0.5039 -1.7342
   39POPC  C212 5242   2.589   5.448   7.899 -0.1806  0.5523 -0.7253
   39POPC  H12R 5243   2.569   5.556   7.913 -1.3904  0.0370  2.5622
   39POPC  H12S 5244   2.699   5.430   7.906  0.0037  1.4512 -1.2123
   39POPC  C213 5245   2.512   5.373   8.007 -0.3617 -0.4922  0.6176
   39POPC  H13R 5246   2.493   5.268   7.977 -2.6476  0.1110 -0.2806
   39POPC  H13S 5247   2.408   5.409   8.021 -0.0315  0.1703  1.4602
   39POPC  C214 5248   2.575   5.376   8.149 -0.4179 -0.5971 -0.0714
   39POPC  H14R 5249   2.685   5.391   8.146 -0.5561  0.3313 -0.7969
   39POPC  H14S 5250   2.551   5.279   8.198 -3.7159  0.1061 -0.0676
   39POPC  C215 5251   2.517   5.480   8.240  0.4265 -0.9437  0.7446
   39POPC  H15R 5252   2.408   5.470   8.256  0.2700  0.4192  0.6912
   39POPC  H15S 5253   2.537   5.580   8.194 -2.4526 -1.5981 -2.3469
   39POPC  C216 5254   2.576   5.478   8.380  0.0218  0.0590 -0.5666
   39POPC  H16R 5255   2.687   5.482   8.376  0.1182 -0.9919  0.2728
   39POPC  H16S 5256   2.556   5.375   8.419  0.5226  1.1333  2.8980
   39POPC  C217 5257   2.527   5.586   8.470  0.3379  0.6020  0.3264
   39POPC  H17R 5258   2.416   5.581   8.472  0.3460  0.0478 -0.3291
   39POPC  H17S 5259   2.561   5.681   8.425 -0.2311 -0.1064 -1.7325
   39POPC  C218 5260   2.583   5.572   8.612  0.0912 -0.5811 -0.0105
   39POPC  H18R 5261   2.587   5.466   8.645  2.3816 -0.5753 -0.1071
   39POPC  H18S 5262   2.513   5.628   8.677  1.9854  0.2586  1.4106
   39POPC  H18T 5263   2.684   5.618   8.617  0.1717 -0.6285 -0.9907
   39POPC   C33 5264   3.434   5.436   7.165  0.1800 -0.4094  0.1170
   39POPC   H3X 5265   3.323   5.447   7.166  0.0005 -1.6543  2.7346
   39POPC   H3Y 5266   3.487   5.520   7.116  3.1456 -1.1710  1.7789
   39POPC   C34 5267   3.481   5.437   7.320  1.2010 -0.4149  0.2980
   39POPC   H4X 5268   3.417   5.359   7.367  1.0977 -1.9073 -2.1594
   39POPC   H4Y 5269   3.455   5.529   7.377  0.4327 -1.3634  1.5483
   39POPC   C35 5270   3.629   5.413   7.331 -0.0849 -0.0593 -0.3379
   39POPC   H5X 5271   3.681   5.496   7.280  0.8729 -0.7452 -0.4935
   39POPC   H5Y 5272   3.651   5.313   7.289 -0.5686 -0.1754 -0.3214
   39POPC   C36 5273   3.670   5.413   7.477  0.3597  0.2983 -0.6399
   39POPC   H6X 5274   3.612   5.337   7.534 -0.6828  0.3773 -1.5744
   39POPC   H6Y 5275   3.639   5.512   7.514  1.2287  0.2874  0.1520
   39POPC   C37 5276   3.821   5.400   7.500 -0.0641  0.6370  0.2385
   39POPC   H7X 5277   3.868   5.478   7.436 -0.3364 -0.5504 -1.4611
   39POPC   H7Y 5278   3.861   5.307   7.456  1.2828  0.8329  0.9757
   39POPC   C38 5279   3.868   5.416   7.639  0.5616 -0.3820  0.8100
   39POPC   H8X 5280   3.839   5.517   7.674 -2.6237 -1.1980  0.8021
   39POPC   H8Y 5281   3.979   5.420   7.635  0.5191  0.4254 -0.0591
   39POPC   C39 5282   3.819   5.312   7.732 -0.3393 -0.0515 -0.0141
   39POPC   H9X 5283   3.823   5.211   7.685 -1.2244 -0.7508  1.3529
   39POPC   H9Y 5284   3.709   5.313   7.749 -0.2351  2.1317  0.7868
   39POPC  C310 5285   3.885   5.318   7.876  0.2259  0.5315  0.3655
   39POPC  H10X 5286   3.985   5.274   7.856 -0.1620  0.1579 -0.8384
   39POPC  H10Y 5287   3.841   5.250   7.953 -1.1037 -0.5901 -1.3070
   39POPC  C311 5288   3.875   5.442   7.955 -0.0159 -0.0294  0.1952
   39POPC  H11X 5289   3.769   5.469   7.976 -0.0253 -0.2764  0.4878
   39POPC  H11Y 5290   3.912   5.526   7.894  0.5395  0.4786  1.2089
   39POPC  C312 5291   3.958   5.439   8.088 -0.2180  0.3655  0.0775
   39POPC  H12X 5292   4.064   5.430   8.057 -0.5005 -1.8775 -0.4157
   39POPC  H12Y 5293   3.929   5.345   8.140  0.3674 -0.7928 -1.6305
   39POPC  C313 5294   3.929   5.558   8.176  0.4100  0.3132 -0.3739
   39POPC  H13X 5295   3.872   5.641   8.129  0.2156  0.3195 -0.1319
   39POPC  H13Y 5296   4.017   5.615   8.213 -0.6030  0.8126  1.3975
   39POPC  C314 5297   3.856   5.517   8.306 -0.3285 -0.0452  0.5434
   39POPC  H14X 5298   3.913   5.442   8.365  0.7004 -1.4855 -2.1121
   39POPC  H14Y 5299   3.763   5.463   8.278  1.1021 -2.5207  0.2360
   39POPC  C315 5300   3.814   5.632   8.392 -0.9418  0.4895 -0.2493
   39POPC  H15X 5301   3.843   5.728   8.345 -1.7426  1.4742  1.1521
   39POPC  H15Y 5302   3.879   5.620   8.482  1.1986 -0.2605 -1.8164
   39POPC  C316 5303   3.663   5.638   8.416  0.1308 -0.7542  0.3965
   39POPC  H16X 5304   3.645   5.727   8.481 -2.4467 -0.6179 -0.3599
   39POPC  H16Y 5305   3.615   5.543   8.449  0.1539 -0.2718  1.9223
   39POPC  H16Z 5306   3.611   5.663   8.321 -1.3936 -1.5522  0.9698
   40POPC     N 5307   0.335   2.640   6.435  0.3581 -0.0402 -0.2340
   40POPC   C12 5308   0.332   2.642   6.590 -0.3469  0.2277  0.4656
   40POPC  H12A 5309   0.306   2.744   6.613 -0.9168 -0.0696  1.2000
   40POPC  H12B 5310   0.429   2.617   6.630  0.7826  1.6480 -1.2808
   40POPC   C13 5311   0.361   2.505   6.383  0.0853  0.6008  0.1566
   40POPC  H13A 5312   0.380   2.514   6.277 -0.5045 -1.0284 -0.1144
   40POPC  H13B 5313   0.447   2.454   6.424 -1.8724 -0.7612  2.9325
   40POPC  H13C 5314   0.277   2.441   6.405  0.7142 -0.6306 -0.9423
   40POPC   C14 5315   0.208   2.685   6.366 -1.3096 -0.0513 -0.4239
   40POPC  H14A 5316   0.219   2.687   6.259 -0.4756 -0.7406 -0.3642
   40POPC  H14B 5317   0.123   2.621   6.387 -0.6447 -0.9959 -0.5609
   40POPC  H14C 5318   0.180   2.782   6.405  0.0615  0.7642 -1.3975
   40POPC   C15 5319   0.441   2.732   6.385 -0.4809  0.4912  0.4071
   40POPC  H15A 5320   0.412   2.831   6.416 -1.6606  0.0002  0.9286
   40POPC  H15B 5321   0.455   2.717   6.279 -1.7506 -2.4966  0.5601
   40POPC  H15C 5322   0.535   2.724   6.438  0.4612  0.0452 -1.2740
   40POPC   C11 5323   0.222   2.561   6.665 -0.5933  0.1233  0.1466
   40POPC  H11A 5324   0.235   2.577   6.774  3.2933  0.5494 -0.2575
   40POPC  H11B 5325   0.263   2.459   6.647 -0.4517  0.0799  0.7060
   40POPC     P 5326   0.006   2.687   6.689 -0.0297 -0.1323  0.5469
   40POPC   O13 5327  -0.129   2.693   6.622  0.0274 -0.2647  0.2511
   40POPC   O14 5328   0.084   2.811   6.701  0.7116 -0.1110  0.3668
   40POPC   O12 5329   0.091   2.585   6.613  0.1947  0.1341  0.6552
   40POPC   O11 5330  -0.012   2.632   6.836 -0.6630  0.0036  0.0814
   40POPC    C1 5331  -0.035   2.494   6.874 -0.1662  0.2423  1.0136
   40POPC    HA 5332   0.059   2.436   6.865 -1.2973 -1.4376 -0.9709
   40POPC    HB 5333  -0.112   2.451   6.806 -0.1916  0.7133  0.7432
   40POPC    C2 5334  -0.069   2.477   7.025  0.3240 -0.0459  0.3746
   40POPC    HS 5335  -0.141   2.557   7.052 -0.2643 -0.0746 -0.9977
   40POPC   O21 5336   0.053   2.469   7.094  0.5785  0.2106 -0.1265
   40POPC   C21 5337   0.094   2.585   7.141 -0.6482  0.1896  0.2751
   40POPC   O22 5338   0.027   2.689   7.151 -0.1559 -0.4644  0.1058
   40POPC   C22 5339   0.239   2.560   7.187 -0.0667 -0.1189 -0.2975
   40POPC   H2R 5340   0.297   2.622   7.116  0.2241 -2.2607 -2.0140
   40POPC   H2S 5341   0.275   2.456   7.174  1.4684  0.1677  1.2475
   40POPC    C3 5342  -0.143   2.334   7.050 -0.6025 -0.4698  0.3274
   40POPC    HX 5343  -0.086   2.270   6.979 -1.0094  0.8277 -1.2381
   40POPC    HY 5344  -0.249   2.324   7.016 -0.8825  0.0306  1.0411
   40POPC   O31 5345  -0.126   2.293   7.187  0.1265 -0.9560 -0.1849
   40POPC   C31 5346  -0.205   2.342   7.276  0.7557 -0.8616 -0.4198
   40POPC   O32 5347  -0.311   2.405   7.253 -0.1116  0.8518 -0.5292
   40POPC   C32 5348  -0.139   2.313   7.407  0.1541 -0.0704 -0.2207
   40POPC   H2X 5349  -0.035   2.351   7.407  0.4337 -0.7136  1.4997
   40POPC   H2Y 5350  -0.132   2.202   7.411  0.4375 -0.0877 -1.0448
   40POPC   C23 5351   0.268   2.592   7.334 -0.3610  0.0581 -0.0887
   40POPC   H3R 5352   0.241   2.695   7.368 -1.7360 -0.5590  0.8074
   40POPC   H3S 5353   0.379   2.585   7.336 -0.2096  1.3986 -1.6540
   40POPC   C24 5354   0.203   2.482   7.423  0.9731  0.0241 -0.3174
   40POPC   H4R 5355   0.202   2.389   7.362  0.8752  0.9567 -1.8130
   40POPC   H4S 5356   0.102   2.514   7.459  0.6975 -2.1712  1.0002
   40POPC   C25 5357   0.276   2.451   7.549  0.6590  0.5755 -0.7082
   40POPC   H5R 5358   0.357   2.378   7.527 -0.6282 -0.9912 -0.3980
   40POPC   H5S 5359   0.208   2.394   7.614  1.2104 -0.3535 -0.9318
   40POPC   C26 5360   0.322   2.571   7.631 -0.5844 -0.0318 -0.0049
   40POPC   H6R 5361   0.242   2.647   7.623 -1.5454 -1.1177 -0.9689
   40POPC   H6S 5362   0.413   2.623   7.592 -1.4252  1.4484 -0.0481
   40POPC   C27 5363   0.337   2.534   7.780 -0.3119 -0.3465 -0.0443
   40POPC   H7R 5364   0.425   2.467   7.787 -0.7680 -1.0842 -1.0889
   40POPC   H7S 5365   0.247   2.478   7.814  0.5948 -0.5918  2.1152
   40POPC   C28 5366   0.345   2.659   7.869 -0.4893  0.6661 -0.2057
   40POPC   H8R 5367   0.248   2.711   7.876  0.9887  3.5030  0.7112
   40POPC   H8S 5368   0.423   2.724   7.823  2.0270 -0.2668  2.4060
   40POPC   C29 5369   0.391   2.624   8.009 -0.6171  0.9109 -0.1336
   40POPC   H91 5370   0.490   2.576   8.009 -1.3591 -0.8381 -2.8388
   40POPC  C210 5371   0.336   2.656   8.127 -0.0222 -0.0930 -0.0278
   40POPC  H101 5372   0.378   2.619   8.221  0.0776 -0.1402 -0.0917
   40POPC  C211 5373   0.216   2.743   8.136 -0.1273  0.2114 -0.4362
   40POPC  H11R 5374   0.219   2.814   8.051  0.3368 -1.6507 -2.0340
   40POPC  H11S 5375   0.218   2.801   8.231 -0.7359  1.3794 -1.1151
   40POPC  C212 5376   0.085   2.666   8.118 -0.3810  0.3557  0.2516
   40POPC  H12R 5377   0.066   2.595   8.201 -1.4190  0.8584  0.4595
   40POPC  H12S 5378   0.091   2.611   8.022 -1.4147 -0.0114  0.3817
   40POPC  C213 5379  -0.045   2.744   8.095 -0.1022  0.0176  0.5501
   40POPC  H13R 5380  -0.051   2.803   8.189  0.0430 -1.5740  1.6003
   40POPC  H13S 5381  -0.131   2.674   8.097 -1.3348  1.5109  0.7590
   40POPC  C214 5382  -0.062   2.822   7.961 -0.3214 -0.1705 -0.0344
   40POPC  H14R 5383   0.031   2.879   7.945 -0.1733  0.1411  1.7337
   40POPC  H14S 5384  -0.152   2.885   7.973 -0.1160  0.0901  0.1414
   40POPC  C215 5385  -0.065   2.736   7.832  0.5397 -0.1024 -1.0839
   40POPC  H15R 5386  -0.171   2.707   7.818  0.2139  0.5240 -0.0273
   40POPC  H15S 5387   0.007   2.651   7.834  0.8198  0.1009  1.7010
   40POPC  C216 5388  -0.042   2.826   7.703  0.1484  0.1761  0.0638
   40POPC  H16R 5389   0.066   2.848   7.689 -0.0024  1.5122  0.7968
   40POPC  H16S 5390  -0.096   2.923   7.712 -0.4305  0.2242 -2.9642
   40POPC  C217 5391  -0.093   2.754   7.575 -0.0977 -0.4895  0.6502
   40POPC  H17R 5392  -0.203   2.744   7.566 -0.2269  0.8010  0.6329
   40POPC  H17S 5393  -0.070   2.646   7.581  1.3793 -0.1357  2.1456
   40POPC  C218 5394  -0.029   2.815   7.452  0.1409 -0.0754 -0.5819
   40POPC  H18R 5395  -0.083   2.907   7.421  2.7812  1.2479 -1.5557
   40POPC  H18S 5396  -0.032   2.741   7.370 -0.4586 -2.4541  1.4773
   40POPC  H18T 5397   0.074   2.847   7.481 -0.3190  1.6980 -0.7908
   40POPC   C33 5398  -0.208   2.386   7.526 -1.5209 -0.0403  0.3895
   40POPC   H3X 5399  -0.306   2.333   7.532 -1.7666  0.4037  0.2792
   40POPC   H3Y 5400  -0.230   2.493   7.508 -3.0924  0.0177  2.2484
   40POPC   C34 5401  -0.118   2.371   7.650  0.2393 -0.2441 -0.0960
   40POPC   H4X 5402  -0.033   2.443   7.647 -0.3325  0.4851  0.7005
   40POPC   H4Y 5403  -0.080   2.268   7.665  1.1372  0.2973  1.6105
   40POPC   C35 5404  -0.194   2.389   7.776  0.2685  0.3257  0.3458
   40POPC   H5X 5405  -0.279   2.317   7.781 -0.0769  0.7339  0.4586
   40POPC   H5Y 5406  -0.242   2.487   7.796  1.1474  0.3847  2.4456
   40POPC   C36 5407  -0.112   2.346   7.898 -0.3470  0.1346  0.9339
   40POPC   H6X 5408  -0.018   2.405   7.897  0.1272 -0.6053  1.0886
   40POPC   H6Y 5409  -0.090   2.238   7.898 -2.1124 -0.2563  1.3338
   40POPC   C37 5410  -0.183   2.379   8.023 -0.0496  0.3016  0.0020
   40POPC   H7X 5411  -0.278   2.321   8.020 -1.2134  2.0468  1.1222
   40POPC   H7Y 5412  -0.214   2.485   8.029  2.2672  1.0133  0.1094
   40POPC   C38 5413  -0.117   2.344   8.158  0.0652 -0.3257 -0.1864
   40POPC   H8X 5414  -0.011   2.380   8.153  0.4667 -1.4015  0.2781
   40POPC   H8Y 5415  -0.112   2.233   8.152  0.1386 -0.3248 -0.1478
   40POPC   C39 5416  -0.182   2.417   8.279 -0.8568 -0.2483 -0.7955
   40POPC   H9X 5417  -0.187   2.528   8.275 -3.0572 -0.2738 -0.0634
   40POPC   H9Y 5418  -0.114   2.384   8.361  0.6380  0.4604 -1.7085
   40POPC  C310 5419  -0.318   2.364   8.319  0.1340 -0.4722 -0.2816
   40POPC  H10X 5420  -0.386   2.367   8.231 -1.4874  1.1787  0.9455
   40POPC  H10Y 5421  -0.364   2.432   8.394  0.9473 -0.4100  0.1734
   40POPC  C311 5422  -0.335   2.216   8.360 -0.3341 -0.1608  0.0594
   40POPC  H11X 5423  -0.318   2.155   8.269 -1.3984 -0.1473 -0.1570
   40POPC  H11Y 5424  -0.441   2.209   8.393 -0.5373  4.0289  0.7641
   40POPC  C312 5425  -0.234   2.181   8.480 -0.6713 -0.0105  0.1936
   40POPC  H12X 5426  -0.125   2.186   8.457 -0.1378 -0.1691  2.4365
   40POPC  H12Y 5427  -0.265   2.075   8.492 -2.3611  0.5316  0.9297
   40POPC  C313 5428  -0.265   2.247   8.613  0.0698 -0.1531  0.6828
   40POPC  H13X 5429  -0.283   2.356   8.599 -0.6316  0.1272  3.2591
   40POPC  H13Y 5430  -0.175   2.234   8.678 -1.0141 -0.7858  2.1129
   40POPC  C314 5431  -0.387   2.177   8.683  0.3115  0.3679  0.0161
   40POPC  H14X 5432  -0.350   2.076   8.709 -1.9300 -0.4454  0.2850
   40POPC  H14Y 5433  -0.468   2.163   8.609  1.1795 -1.6627 -0.6188
   40POPC  C315 5434  -0.460   2.243   8.805  0.1722  0.1524  0.6923
   40POPC  H15X 5435  -0.536   2.167   8.833 -0.4567  0.4797 -0.1164
   40POPC  H15Y 5436  -0.498   2.340   8.768 -3.4020 -1.4853 -0.3495
   40POPC  C316 5437  -0.356   2.271   8.916 -0.0056 -0.4501  1.1234
   40POPC  H16X 5438  -0.397   2.300   9.015  0.0638  1.6896  0.5777
   40POPC  H16Y 5439  -0.313   2.371   8.893  0.0562 -1.0921 -2.1416
   40POPC  H16Z 5440  -0.275   2.196   8.915  0.8895  0.4772 -0.3175
   41CHL1    C3 5441   6.005   0.561  10.403 -0.1900 -0.5657  0.1435
   41CHL1    H3 5442   6.066   0.651  10.381  1.3822 -1.3820  0.9742
   41CHL1    O3 5443   6.005   0.533  10.541 -0.5266 -0.5891 -0.2004
   41CHL1   H3' 5444   5.976   0.442  10.555 -0.4635 -0.5254  0.3924
   41CHL1    C4 5445   5.863   0.602  10.361 -0.1024 -0.0364 -0.6122
   41CHL1   H4A 5446   5.787   0.527  10.391 -0.7913 -0.3834 -3.0352
   41CHL1   H4B 5447   5.838   0.692  10.421  0.9374 -1.2289  1.7040
   41CHL1    C5 5448   5.846   0.615  10.210 -0.5002 -0.2358 -0.7315
   41CHL1    C6 5449   5.797   0.726  10.155 -0.3472 -1.1953  0.5974
   41CHL1    H6 5450   5.763   0.808  10.220  0.8060  0.5475 -0.9141
   41CHL1    C7 5451   5.771   0.745  10.010 -0.3605 -0.3993  0.0916
   41CHL1   H7A 5452   5.661   0.763  10.003 -0.7079 -1.2777  2.3945
   41CHL1   H7B 5453   5.833   0.827   9.969  1.5716 -1.5018  0.6977
   41CHL1    C8 5454   5.796   0.625   9.923  0.6740 -0.2111  0.1245
   41CHL1    H8 5455   5.707   0.563   9.947 -0.4752  1.9552  1.7997
   41CHL1   C14 5456   5.818   0.661   9.778  0.0151  0.1976 -0.2088
   41CHL1   H14 5457   5.920   0.699   9.759 -0.4277  0.3453 -2.5824
   41CHL1   C15 5458   5.724   0.769   9.726 -0.3313  0.3486  0.2813
   41CHL1  H15A 5459   5.622   0.757   9.768 -0.2802 -1.7201 -0.1189
   41CHL1  H15B 5460   5.771   0.868   9.746  1.4205 -0.6250  1.2413
   41CHL1   C16 5461   5.728   0.742   9.576 -0.0036 -0.0832  0.2397
   41CHL1  H16A 5462   5.623   0.715   9.552 -0.3107  1.0667  0.2441
   41CHL1  H16B 5463   5.766   0.834   9.526 -0.6241 -0.4926 -1.0396
   41CHL1   C17 5464   5.819   0.620   9.550  0.2075 -0.2931  0.7421
   41CHL1   H17 5465   5.921   0.664   9.548 -0.4170  1.2801  1.5115
   41CHL1   C13 5466   5.817   0.539   9.680  0.3315  0.3434 -0.2132
   41CHL1   C18 5467   5.686   0.458   9.699  0.6028 -0.2922  0.0159
   41CHL1  H18A 5468   5.673   0.405   9.795 -0.7685 -1.4208 -0.7562
   41CHL1  H18B 5469   5.598   0.524   9.686  0.8113 -0.0446 -0.1615
   41CHL1  H18C 5470   5.694   0.377   9.622  1.2440  0.3640 -0.6255
   41CHL1   C12 5471   5.935   0.449   9.722 -0.1737  0.0614  0.1625
   41CHL1  H12A 5472   5.911   0.349   9.678 -2.8878  1.1362 -0.9620
   41CHL1  H12B 5473   6.023   0.493   9.671 -0.1795  1.2726  1.1465
   41CHL1   C11 5474   5.953   0.422   9.872 -0.0945 -0.4220 -0.4483
   41CHL1  H11A 5475   5.887   0.335   9.892  0.1200 -0.2215  1.2529
   41CHL1  H11B 5476   6.055   0.381   9.888 -0.2604 -1.8503 -2.5588
   41CHL1    C9 5477   5.917   0.543   9.970 -0.0580 -0.4290  0.2515
   41CHL1    H9 5478   6.000   0.617   9.964 -0.2003 -0.2431  0.5831
   41CHL1   C10 5479   5.905   0.499  10.122 -0.3359  0.6059 -0.1108
   41CHL1   C19 5480   5.797   0.383  10.128 -0.5262  0.5885 -0.1613
   41CHL1  H19A 5481   5.762   0.378  10.233 -0.1416 -0.7004 -0.0837
   41CHL1  H19B 5482   5.706   0.407  10.069  0.7801  0.9977 -2.1169
   41CHL1  H19C 5483   5.837   0.284  10.097 -3.2129  0.1166 -2.5602
   41CHL1    C1 5484   6.040   0.447  10.177 -0.3427 -0.1468 -0.6224
   41CHL1   H1A 5485   6.050   0.346  10.131  0.8380 -0.6838  0.7317
   41CHL1   H1B 5486   6.121   0.514  10.140 -0.8180 -0.3276 -2.0633
   41CHL1    C2 5487   6.048   0.430  10.333  0.1261  0.2737 -0.5724
   41CHL1   H2A 5488   6.155   0.428  10.360  0.0389 -0.6395 -0.2767
   41CHL1   H2B 5489   6.006   0.334  10.369 -0.1747  0.3382 -0.7447
   41CHL1   C20 5490   5.790   0.552   9.416 -0.5287  0.1554  0.1142
   41CHL1   H20 5491   5.695   0.494   9.426  0.7095 -1.7532  1.5979
   41CHL1   C21 5492   5.909   0.458   9.393  0.1250  0.0566  0.2940
   41CHL1  H21A 5493   6.003   0.514   9.377 -1.1082  1.9021 -0.9709
   41CHL1  H21B 5494   5.887   0.392   9.306  3.1828 -1.4111  0.5183
   41CHL1  H21C 5495   5.923   0.382   9.473  1.0688 -2.0129 -1.7354
   41CHL1   C22 5496   5.778   0.644   9.293  0.2175 -0.5413 -0.5332
   41CHL1  H22A 5497   5.708   0.728   9.310 -0.2604 -1.0110 -0.1726
   41CHL1  H22B 5498   5.878   0.692   9.282  1.7453 -3.1334  1.1249
   41CHL1   C23 5499   5.725   0.576   9.163  0.6473  0.2809 -0.5710
   41CHL1  H23A 5500   5.768   0.473   9.159 -0.1692 -0.0559 -1.0116
   41CHL1  H23B 5501   5.615   0.579   9.180  0.4644 -0.6450 -1.4863
   41CHL1   C24 5502   5.756   0.661   9.035  0.3395 -0.2742  0.5476
   41CHL1  H24A 5503   5.703   0.759   9.044 -0.1038 -0.5646  1.2040
   41CHL1  H24B 5504   5.864   0.686   9.029  0.4976 -1.2212 -0.9257
   41CHL1   C25 5505   5.703   0.583   8.913  0.1186  0.2683  0.5847
   41CHL1   H25 5506   5.753   0.485   8.901 -1.8759 -0.6694 -0.5096
   41CHL1   C26 5507   5.552   0.546   8.912  0.0063  0.5073 -0.0314
   41CHL1  H26A 5508   5.505   0.646   8.920 -0.1362  0.3493  1.1952
   41CHL1  H26B 5509   5.516   0.487   8.824 -1.6659 -2.7538  2.6054
   41CHL1  H26C 5510   5.513   0.488   8.998  2.1048 -0.3949  0.3681
   41CHL1   C27 5511   5.741   0.646   8.781 -0.2671 -1.1255  0.2447
   41CHL1  H27A 5512   5.679   0.738   8.776 -1.6635 -1.9773  1.0115
   41CHL1  H27B 5513   5.850   0.666   8.780 -0.3217 -0.5344  2.0522
   41CHL1  H27C 5514   5.702   0.584   8.697 -0.2337 -1.3712  0.4067
   42CHL1    C3 5515   5.668   4.687  10.000  0.1998 -0.6010 -0.0816
   42CHL1    H3 5516   5.776   4.681   9.974  0.6464 -0.6104  1.6477
   42CHL1    O3 5517   5.658   4.679  10.147  0.2343  0.2527  0.2289
   42CHL1   H3' 5518   5.578   4.723  10.175 -1.5762 -2.7424  0.1301
   42CHL1    C4 5519   5.617   4.831   9.959 -0.1407 -0.1354 -0.5586
   42CHL1   H4A 5520   5.520   4.874   9.992 -0.0195  0.3268 -0.7943
   42CHL1   H4B 5521   5.695   4.900   9.998  2.0245 -1.3624 -2.4861
   42CHL1    C5 5522   5.622   4.839   9.807  1.0714  0.2779 -0.0678
   42CHL1    C6 5523   5.686   4.942   9.750  0.1809 -0.2866 -0.2799
   42CHL1    H6 5524   5.720   5.020   9.819 -2.2857 -0.6519  1.5161
   42CHL1    C7 5525   5.692   4.970   9.603 -0.3873 -0.5162 -0.0123
   42CHL1   H7A 5526   5.674   5.078   9.584  1.7850 -0.2602 -0.9811
   42CHL1   H7B 5527   5.796   4.942   9.576  0.5571 -0.7295  3.3930
   42CHL1    C8 5528   5.592   4.880   9.528  0.1266  0.1711  0.7301
   42CHL1    H8 5529   5.490   4.922   9.542 -0.1882  0.6211 -2.2704
   42CHL1   C14 5530   5.615   4.901   9.376  0.1409 -0.3271  0.0036
   42CHL1   H14 5531   5.718   4.865   9.354 -0.4148 -0.1967 -3.1508
   42CHL1   C15 5532   5.611   5.045   9.312 -0.4381  0.6246  0.2554
   42CHL1  H15A 5533   5.529   5.097   9.366 -0.0189 -0.3021  1.8573
   42CHL1  H15B 5534   5.701   5.109   9.322 -1.1213  2.0693 -2.0236
   42CHL1   C16 5535   5.576   5.018   9.167 -0.0484 -1.2065 -0.4890
   42CHL1  H16A 5536   5.478   5.066   9.145  0.0858 -1.2505 -1.2199
   42CHL1  H16B 5537   5.649   5.048   9.089 -0.5400 -0.7912 -0.8017
   42CHL1   C17 5538   5.552   4.868   9.149 -0.4012  0.4788  0.7821
   42CHL1   H17 5539   5.647   4.814   9.126 -0.5109  0.7007 -0.2314
   42CHL1   C13 5540   5.521   4.818   9.292  0.4845 -0.1112  1.0573
   42CHL1   C18 5541   5.372   4.846   9.318  0.6863  0.5601 -0.4864
   42CHL1  H18A 5542   5.355   4.955   9.316 -2.8451  0.3265  3.3518
   42CHL1  H18B 5543   5.311   4.778   9.254 -0.7346  1.2632  0.0913
   42CHL1  H18C 5544   5.349   4.820   9.424  0.4562 -0.9131 -0.8716
   42CHL1   C12 5545   5.548   4.670   9.325 -0.4727 -0.3197  0.0233
   42CHL1  H12A 5546   5.483   4.605   9.262  0.5847 -1.0104 -0.3869
   42CHL1  H12B 5547   5.651   4.637   9.298 -0.3386  1.0057 -1.1749
   42CHL1   C11 5548   5.521   4.637   9.477  0.2279  0.3730  1.1584
   42CHL1  H11A 5549   5.413   4.655   9.494  0.3277  1.3766  0.8216
   42CHL1  H11B 5550   5.530   4.529   9.500  1.2772  0.5468  1.6301
   42CHL1    C9 5551   5.598   4.731   9.573 -0.4217 -0.7206  0.2279
   42CHL1    H9 5552   5.706   4.706   9.572 -0.5678 -1.5659  1.9383
   42CHL1   C10 5553   5.557   4.728   9.724  0.2149  0.4044 -0.0954
   42CHL1   C19 5554   5.406   4.760   9.737  0.1696 -0.1050  1.2308
   42CHL1  H19A 5555   5.379   4.856   9.687  1.6301 -0.8709 -1.1635
   42CHL1  H19B 5556   5.349   4.680   9.685  0.3795  1.5249 -1.7591
   42CHL1  H19C 5557   5.383   4.750   9.845  0.9508  2.6849  1.7249
   42CHL1    C1 5558   5.592   4.584   9.769  0.1710 -0.1400 -0.0925
   42CHL1   H1A 5559   5.530   4.505   9.723 -0.1794 -0.6453  1.1970
   42CHL1   H1B 5560   5.699   4.575   9.738  0.0562  1.1841 -0.9727
   42CHL1    C2 5561   5.580   4.578   9.928 -0.2532 -0.1611 -0.0662
   42CHL1   H2A 5562   5.607   4.475   9.959 -1.4777 -1.5641 -3.2463
   42CHL1   H2B 5563   5.475   4.590   9.960 -0.6777  1.1502 -1.7913
   42CHL1   C20 5564   5.468   4.830   9.026  0.5957 -0.2701  0.2354
   42CHL1   H20 5565   5.438   4.723   9.035  0.9613 -0.5930 -1.7495
   42CHL1   C21 5566   5.552   4.836   8.900  0.5222 -0.2893 -0.4780
   42CHL1  H21A 5567   5.621   4.749   8.893  2.1814  0.9322 -0.0846
   42CHL1  H21B 5568   5.604   4.934   8.901 -0.4861  0.2902  1.5857
   42CHL1  H21C 5569   5.491   4.842   8.807 -0.3423  3.3031  0.1395
   42CHL1   C22 5570   5.342   4.915   9.006  0.2765 -0.3153  0.2830
   42CHL1  H22A 5571   5.288   4.913   9.103  1.1811 -0.2137  0.8041
   42CHL1  H22B 5572   5.362   5.021   8.981 -0.7625 -0.8029 -3.2074
   42CHL1   C23 5573   5.238   4.852   8.899 -0.1436 -0.0011 -0.0516
   42CHL1  H23A 5574   5.286   4.839   8.800  1.1852  0.4391  0.5211
   42CHL1  H23B 5575   5.220   4.749   8.938 -0.0228  0.2243  0.5961
   42CHL1   C24 5576   5.099   4.914   8.880 -0.4905 -0.5035 -0.2367
   42CHL1  H24A 5577   5.026   4.849   8.826 -2.1626 -0.6792  2.1053
   42CHL1  H24B 5578   5.057   4.916   8.983  1.1911 -1.7662  0.5097
   42CHL1   C25 5579   5.110   5.056   8.826  0.6754 -0.5410  0.1289
   42CHL1   H25 5580   5.183   5.107   8.891  0.2579 -0.3906  0.4844
   42CHL1   C26 5581   5.160   5.059   8.677  0.0702 -0.1395 -0.3679
   42CHL1  H26A 5582   5.086   5.020   8.604  2.0210 -0.6361 -2.1730
   42CHL1  H26B 5583   5.192   5.160   8.642 -0.4160 -0.6401 -2.4044
   42CHL1  H26C 5584   5.232   4.976   8.661 -0.6828 -0.6593 -1.1482
   42CHL1   C27 5585   4.977   5.117   8.842 -0.3350 -0.0697  0.3434
   42CHL1  H27A 5586   4.901   5.057   8.788  2.1317 -3.3689  0.2087
   42CHL1  H27B 5587   4.944   5.118   8.948 -1.1666 -0.1076  0.0922
   42CHL1  H27C 5588   4.982   5.217   8.793 -1.1100 -0.2671 -0.1402
   43CHL1    C3 5589   0.310   0.062  10.193  0.3957  0.3967 -0.2061
   43CHL1    H3 5590   0.334   0.168  10.175 -3.1252  1.7002  1.7140
   43CHL1    O3 5591   0.334   0.034  10.332  0.2090  0.1294  0.0887
   43CHL1   H3' 5592   0.297  -0.054  10.339  0.9415 -0.2914 -1.1844
   43CHL1    C4 5593   0.161   0.030  10.161  0.0100  0.2920  0.4383
   43CHL1   H4A 5594   0.139  -0.071  10.202 -0.4309  1.0482  2.1273
   43CHL1   H4B 5595   0.102   0.100  10.224 -0.4702  1.2279 -0.9927
   43CHL1    C5 5596   0.127   0.037  10.013 -0.3837  0.3069 -1.1687
   43CHL1    C6 5597   0.025   0.116   9.975  0.8057  0.1621  0.4021
   43CHL1    H6 5598  -0.030   0.176  10.049 -1.9315  0.0260 -1.4133
   43CHL1    C7 5599  -0.036   0.094   9.845  0.2137 -0.6349  0.3726
   43CHL1   H7A 5600  -0.143   0.071   9.861  0.2281  0.3735  2.1999
   43CHL1   H7B 5601  -0.040   0.192   9.791  0.7389 -0.7587  0.1031
   43CHL1    C8 5602   0.034  -0.006   9.749 -0.1105  0.5167  0.0021
   43CHL1    H8 5603  -0.022  -0.101   9.765  0.6161 -0.5711 -3.2509
   43CHL1   C14 5604   0.022   0.039   9.601 -0.2459 -0.2640 -0.1573
   43CHL1   H14 5605   0.080   0.132   9.580 -0.8307  0.9424  3.0772
   43CHL1   C15 5606  -0.109   0.088   9.547  0.5525 -0.4506  0.3044
   43CHL1  H15A 5607  -0.192   0.023   9.585 -1.1530  1.4790  0.0559
   43CHL1  H15B 5608  -0.143   0.191   9.569  0.8692 -0.4816  0.9661
   43CHL1   C16 5609  -0.097   0.079   9.397  0.6449  1.0214  0.2300
   43CHL1  H16A 5610  -0.179   0.007   9.377  0.7148  0.1910  2.6150
   43CHL1  H16B 5611  -0.092   0.171   9.335  4.7821  0.5188 -0.4427
   43CHL1   C17 5612   0.036   0.003   9.370  0.7364  0.2944  0.1179
   43CHL1   H17 5613   0.112   0.083   9.378 -0.0487  1.0015  0.7272
   43CHL1   C13 5614   0.063  -0.067   9.505 -0.2498  0.5520 -0.4996
   43CHL1   C18 5615  -0.029  -0.192   9.518 -0.0329  0.0324 -0.9183
   43CHL1  H18A 5616  -0.001  -0.271   9.445  0.6770  2.1630 -3.1100
   43CHL1  H18B 5617  -0.026  -0.238   9.619 -0.4600  0.0017 -0.9157
   43CHL1  H18C 5618  -0.135  -0.167   9.494 -0.3757 -0.7966 -0.3259
   43CHL1   C12 5619   0.213  -0.114   9.535  0.4050 -0.4682 -0.0336
   43CHL1  H12A 5620   0.241  -0.200   9.471  0.0634 -2.5084  2.3995
   43CHL1  H12B 5621   0.279  -0.030   9.504 -1.7724  0.3541 -2.9112
   43CHL1   C11 5622   0.233  -0.139   9.688 -0.1473  0.2842 -0.0922
   43CHL1  H11A 5623   0.182  -0.236   9.706  1.7100 -0.4369  1.8975
   43CHL1  H11B 5624   0.341  -0.151   9.713 -0.4052 -0.3008  0.8040
   43CHL1    C9 5625   0.181  -0.027   9.780  0.3662  0.7921  0.4512
   43CHL1    H9 5626   0.231   0.068   9.752  0.2334  0.8213  0.3125
   43CHL1   C10 5627   0.210  -0.053   9.929  0.3845  0.3795 -0.0564
   43CHL1   C19 5628   0.192  -0.209   9.956  0.0994 -0.3049 -0.2688
   43CHL1  H19A 5629   0.098  -0.236   9.904  0.7548  0.2980 -1.8325
   43CHL1  H19B 5630   0.270  -0.273   9.910  2.6416  1.7424  0.9358
   43CHL1  H19C 5631   0.162  -0.242  10.058  2.9578 -0.0509  0.7336
   43CHL1    C1 5632   0.357  -0.030   9.963 -0.0115  0.4399  0.3983
   43CHL1   H1A 5633   0.428  -0.099   9.912 -0.5156 -1.1984  1.8099
   43CHL1   H1B 5634   0.377   0.076   9.939  0.7845  0.7826  2.3716
   43CHL1    C2 5635   0.398  -0.033  10.113 -0.0027  0.5075  0.3825
   43CHL1   H2A 5636   0.505  -0.008  10.126 -0.4553  1.6545  2.2899
   43CHL1   H2B 5637   0.389  -0.134  10.158  1.1951  0.1568 -0.1286
   43CHL1   C20 5638   0.066  -0.063   9.235  0.0004 -0.4319  0.5199
   43CHL1   H20 5639   0.154  -0.132   9.236  0.2253 -0.1539  0.1534
   43CHL1   C21 5640   0.107   0.052   9.139 -0.1730 -0.2061  0.3397
   43CHL1  H21A 5641   0.013   0.092   9.096  1.1866  2.2766 -0.5116
   43CHL1  H21B 5642   0.165   0.012   9.053 -0.4032  1.0478 -0.4196
   43CHL1  H21C 5643   0.158   0.133   9.195 -0.5606  0.5279 -0.3481
   43CHL1   C22 5644  -0.049  -0.144   9.171 -0.3197 -0.0609  1.1118
   43CHL1  H22A 5645  -0.084  -0.219   9.244  1.2867 -0.6097  1.3422
   43CHL1  H22B 5646  -0.133  -0.076   9.143  0.2185  0.1649 -0.0148
   43CHL1   C23 5647  -0.020  -0.209   9.036  0.1408 -0.0265 -0.3357
   43CHL1  H23A 5648  -0.027  -0.123   8.966  1.2166  0.2970 -0.0600
   43CHL1  H23B 5649   0.079  -0.259   9.037 -0.0700 -0.5390 -1.9643
   43CHL1   C24 5650  -0.132  -0.308   8.999 -0.0764 -0.7621  0.1366
   43CHL1  H24A 5651  -0.122  -0.396   9.066  2.4860 -1.1238 -0.6058
   43CHL1  H24B 5652  -0.235  -0.267   9.012  0.5328  0.8984 -0.0242
   43CHL1   C25 5653  -0.106  -0.370   8.858 -0.9257 -0.0074  0.4853
   43CHL1   H25 5654   0.004  -0.389   8.858 -0.5426  1.9381  0.0393
   43CHL1   C26 5655  -0.176  -0.504   8.834 -0.1242 -0.1976 -0.3961
   43CHL1  H26A 5656  -0.169  -0.575   8.919  0.1164  0.4746  0.1606
   43CHL1  H26B 5657  -0.283  -0.486   8.807 -0.2161  1.3084  0.7896
   43CHL1  H26C 5658  -0.126  -0.547   8.745 -0.0696 -0.7648 -0.0921
   43CHL1   C27 5659  -0.136  -0.257   8.758  0.2070 -0.1345 -0.4189
   43CHL1  H27A 5660  -0.240  -0.223   8.775 -0.1644 -1.5405  0.3182
   43CHL1  H27B 5661  -0.077  -0.163   8.756 -0.9814  0.6534  0.2557
   43CHL1  H27C 5662  -0.128  -0.291   8.653  1.6955 -0.9001 -0.0833
   44CHL1    C3 5663   1.203   0.613  10.534 -0.3783  0.2588 -0.2033
   44CHL1    H3 5664   1.290   0.582  10.473 -0.0565 -1.5619  1.1145
   44CHL1    O3 5665   1.225   0.560  10.666 -0.0544  0.3350  0.0028
   44CHL1   H3' 5666   1.189   0.615  10.736  1.1206  1.0673  0.0490
   44CHL1    C4 5667   1.194   0.768  10.541  0.0590 -0.0233  0.1008
   44CHL1   H4A 5668   1.098   0.790  10.593 -0.1640  2.1125 -1.1087
   44CHL1   H4B 5669   1.277   0.816  10.597 -0.2347  1.0457 -0.3488
   44CHL1    C5 5670   1.172   0.821  10.404  0.4926 -0.0910  0.0581
   44CHL1    C6 5671   1.260   0.917  10.360  0.2299 -0.0605  0.1170
   44CHL1    H6 5672   1.345   0.946  10.424 -0.9703 -2.2026  2.8815
   44CHL1    C7 5673   1.255   0.969  10.222 -0.5402 -0.8370  0.3881
   44CHL1   H7A 5674   1.261   1.080  10.229 -0.4176 -0.6476 -2.0846
   44CHL1   H7B 5675   1.338   0.925  10.164 -1.3393 -1.4247 -0.3335
   44CHL1    C8 5676   1.126   0.941  10.142 -0.0658 -0.5043 -0.3642
   44CHL1    H8 5677   1.046   1.008  10.178  0.7461 -0.0555  0.6590
   44CHL1   C14 5678   1.150   0.955   9.994 -0.2589 -0.1859  0.2543
   44CHL1   H14 5679   1.226   0.878   9.967 -0.6735 -0.3667 -0.4139
   44CHL1   C15 5680   1.215   1.084   9.941  0.4927 -0.1000 -0.2476
   44CHL1  H15A 5681   1.165   1.175   9.980 -0.1272 -0.8791  0.8119
   44CHL1  H15B 5682   1.321   1.089   9.973 -0.0867 -1.1721  2.0131
   44CHL1   C16 5683   1.192   1.078   9.792 -1.1353  0.7940 -0.5191
   44CHL1  H16A 5684   1.148   1.170   9.747  0.7837  1.5105 -1.0673
   44CHL1  H16B 5685   1.288   1.063   9.737 -1.5536 -1.3495 -0.7375
   44CHL1   C17 5686   1.095   0.953   9.765  0.3389 -0.4323 -0.5056
   44CHL1   H17 5687   1.171   0.875   9.745 -0.6441 -1.7685  0.7528
   44CHL1   C13 5688   1.027   0.926   9.902  0.0693 -1.1923 -0.3069
   44CHL1   C18 5689   0.907   1.033   9.924  0.1516  0.0454 -0.0311
   44CHL1  H18A 5690   0.925   1.131   9.875 -1.5817 -0.2885 -1.4111
   44CHL1  H18B 5691   0.807   0.994   9.897 -0.1959  0.4322  0.6772
   44CHL1  H18C 5692   0.882   1.059  10.029  2.1745  0.4162  0.4066
   44CHL1   C12 5693   0.984   0.783   9.926 -0.2646 -0.5698 -0.7322
   44CHL1  H12A 5694   0.888   0.763   9.873 -0.8614 -0.0713  0.1480
   44CHL1  H12B 5695   1.063   0.724   9.874  1.0699 -0.9923  1.6391
   44CHL1   C11 5696   0.963   0.751  10.071 -0.2923 -0.3239  0.0391
   44CHL1  H11A 5697   0.868   0.806  10.092 -1.2362 -0.9611 -2.2314
   44CHL1  H11B 5698   0.955   0.640  10.072 -0.3870 -0.3156  0.6688
   44CHL1    C9 5699   1.084   0.796  10.162 -0.2366  0.3700 -0.9071
   44CHL1    H9 5700   1.168   0.733  10.126 -0.5226 -0.7572  0.3134
   44CHL1   C10 5701   1.068   0.757  10.309 -0.9727 -0.4105  0.3239
   44CHL1   C19 5702   0.933   0.819  10.361  0.4703 -1.1409  0.0949
   44CHL1  H19A 5703   0.907   0.807  10.468 -0.7775 -1.0091 -0.1738
   44CHL1  H19B 5704   0.939   0.927  10.338  0.3557 -0.6124  2.3501
   44CHL1  H19C 5705   0.847   0.793  10.295 -0.9623  0.0586  1.4335
   44CHL1    C1 5706   1.079   0.604  10.327 -0.7053  0.5486 -0.1162
   44CHL1   H1A 5707   0.984   0.561  10.288  0.9421 -2.1819 -1.4547
   44CHL1   H1B 5708   1.165   0.560  10.272  0.5346  0.2662  1.9455
   44CHL1    C2 5709   1.087   0.546  10.469 -0.0828 -0.0723  0.3717
   44CHL1   H2A 5710   1.103   0.437  10.456 -1.6840 -0.3382  0.4110
   44CHL1   H2B 5711   0.993   0.565  10.526  0.2700  0.1500  0.8950
   44CHL1   C20 5712   1.017   0.979   9.638  0.3413 -0.1096  0.1093
   44CHL1   H20 5713   0.962   1.076   9.649  1.4369  0.8693 -2.3877
   44CHL1   C21 5714   0.920   0.864   9.611  0.1851 -0.4028 -0.0393
   44CHL1  H21A 5715   0.863   0.882   9.517  1.5881  1.1665 -0.6431
   44CHL1  H21B 5716   0.840   0.865   9.689 -0.9745  0.2281 -1.1925
   44CHL1  H21C 5717   0.981   0.772   9.601  2.6515  1.3435 -2.6115
   44CHL1   C22 5718   1.118   0.981   9.525 -0.4494 -0.1586  0.2192
   44CHL1  H22A 5719   1.206   1.049   9.530 -0.0613 -0.6274 -0.1446
   44CHL1  H22B 5720   1.178   0.888   9.524 -0.7170 -0.3543  1.0566
   44CHL1   C23 5721   1.060   1.017   9.384 -0.0675  0.6189 -0.0851
   44CHL1  H23A 5722   1.000   0.925   9.369 -0.0818 -0.0843  3.3144
   44CHL1  H23B 5723   1.006   1.113   9.397  1.0434  0.9386  3.0999
   44CHL1   C24 5724   1.174   1.040   9.280 -0.2194 -0.3773 -0.1107
   44CHL1  H24A 5725   1.251   1.100   9.332  0.8097 -1.8343  0.1039
   44CHL1  H24B 5726   1.231   0.947   9.262  0.5224 -0.2903  1.6153
   44CHL1   C25 5727   1.121   1.118   9.156 -0.2510  0.2209  0.0056
   44CHL1   H25 5728   1.045   1.190   9.191  1.4651  2.0066  0.2431
   44CHL1   C26 5729   1.236   1.186   9.082  0.1683  0.3400 -0.0462
   44CHL1  H26A 5730   1.189   1.229   8.990 -0.5147  0.0536  0.1608
   44CHL1  H26B 5731   1.279   1.268   9.144  0.9192 -0.4847  0.5501
   44CHL1  H26C 5732   1.310   1.108   9.055  0.3080 -0.6242  2.8002
   44CHL1   C27 5733   1.037   1.034   9.057  0.2739  0.2893  0.5975
   44CHL1  H27A 5734   0.976   1.086   8.981 -2.0016 -2.3066  0.5011
   44CHL1  H27B 5735   1.104   0.963   9.003 -1.1046 -2.2652  2.0446
   44CHL1  H27C 5736   0.962   0.981   9.120 -1.4173  0.7583 -0.9685
   45CHL1    C3 5737   4.553   5.102  10.529 -0.3359 -0.1576  0.7878
   45CHL1    H3 5738   4.517   5.207  10.532  3.4681  1.3973 -1.2467
   45CHL1    O3 5739   4.612   5.068  10.649 -0.6707  0.2563  0.7243
   45CHL1   H3' 5740   4.638   4.975  10.641  3.7211  1.1874  1.4491
   45CHL1    C4 5741   4.441   5.001  10.492  0.0773 -0.6108  0.1525
   45CHL1   H4A 5742   4.476   4.896  10.495 -0.5922 -0.8855 -0.9803
   45CHL1   H4B 5743   4.371   5.009  10.578  1.4235 -2.5724  1.5230
   45CHL1    C5 5744   4.390   5.030  10.351  0.5703 -0.0275 -0.3124
   45CHL1    C6 5745   4.265   5.075  10.326  0.8573  0.2831  0.2373
   45CHL1    H6 5746   4.204   5.096  10.415  0.8483 -0.1902  0.3487
   45CHL1    C7 5747   4.220   5.134  10.192 -0.3614 -0.0262  0.2907
   45CHL1   H7A 5748   4.137   5.067  10.160 -1.3656  0.6128  1.4855
   45CHL1   H7B 5749   4.179   5.236  10.210  1.3764  0.6307  0.7622
   45CHL1    C8 5750   4.335   5.155  10.085  0.1876 -0.3563 -0.0340
   45CHL1    H8 5751   4.388   5.243  10.125  1.8468  0.0160 -2.7938
   45CHL1   C14 5752   4.278   5.190   9.949  0.2962  0.4222  0.1764
   45CHL1   H14 5753   4.180   5.236   9.975 -0.0439 -1.5853  2.8845
   45CHL1   C15 5754   4.351   5.300   9.866  0.0764 -0.0680  0.2642
   45CHL1  H15A 5755   4.319   5.399   9.906 -1.7628  0.5971 -2.5774
   45CHL1  H15B 5756   4.459   5.293   9.841  0.0494  0.0882  0.1034
   45CHL1   C16 5757   4.273   5.291   9.733 -0.2859 -0.9112  0.8754
   45CHL1  H16A 5758   4.175   5.341   9.724  0.6506  0.7779 -0.6813
   45CHL1  H16B 5759   4.335   5.342   9.656 -0.5790 -2.7106 -0.6272
   45CHL1   C17 5760   4.276   5.141   9.710 -0.0497  0.4413  0.5901
   45CHL1   H17 5761   4.376   5.105   9.678 -1.4020 -0.7721 -2.6414
   45CHL1   C13 5762   4.251   5.079   9.852  0.0018  0.1899 -0.8463
   45CHL1   C18 5763   4.097   5.050   9.875  0.2013 -0.9015  0.7630
   45CHL1  H18A 5764   4.032   5.139   9.880  0.3704 -0.5293 -2.0083
   45CHL1  H18B 5765   4.061   4.982   9.794 -2.9860  1.9913 -0.4968
   45CHL1  H18C 5766   4.086   5.002   9.974  1.3393 -0.0762  1.3076
   45CHL1   C12 5767   4.338   4.959   9.882 -0.3299  1.3197  0.6288
   45CHL1  H12A 5768   4.299   4.866   9.835 -1.1334  0.5635  2.6528
   45CHL1  H12B 5769   4.439   4.968   9.838  0.3311 -1.4795  1.3699
   45CHL1   C11 5770   4.369   4.918  10.025  0.5901  0.1373 -0.1027
   45CHL1  H11A 5771   4.273   4.880  10.066  0.5144  0.9395  0.4869
   45CHL1  H11B 5772   4.444   4.836  10.018  1.5416  0.7843  1.8720
   45CHL1    C9 5773   4.434   5.037  10.097 -0.1093 -0.0644  0.3156
   45CHL1    H9 5774   4.519   5.057  10.028 -0.5230 -1.3891 -0.6381
   45CHL1   C10 5775   4.490   5.017  10.235  0.1851 -0.4430  0.3581
   45CHL1   C19 5776   4.570   4.891  10.223 -0.3346  0.6332  0.6321
   45CHL1  H19A 5777   4.648   4.875  10.300  1.7423 -0.5098 -1.5817
   45CHL1  H19B 5778   4.499   4.806  10.236  0.0046  0.1318 -0.6633
   45CHL1  H19C 5779   4.611   4.881  10.121 -3.1911 -3.6822 -0.3568
   45CHL1    C1 5780   4.590   5.120  10.272 -0.7575 -0.0999 -0.4711
   45CHL1   H1A 5781   4.672   5.121  10.198  1.0539 -2.2587  1.3629
   45CHL1   H1B 5782   4.550   5.223  10.266  0.8581  0.7291  1.6464
   45CHL1    C2 5783   4.663   5.109  10.413  0.7877  0.8384 -0.3747
   45CHL1   H2A 5784   4.732   5.196  10.427 -1.1476  2.6727 -1.5544
   45CHL1   H2B 5785   4.734   5.024  10.410 -0.5750 -0.3236 -2.7784
   45CHL1   C20 5786   4.188   5.098   9.593  0.0910  0.3793 -0.4236
   45CHL1   H20 5787   4.085   5.121   9.626 -0.0428  0.7900 -1.1305
   45CHL1   C21 5788   4.202   4.947   9.571 -0.0878 -0.7293 -0.1672
   45CHL1  H21A 5789   4.309   4.928   9.549  0.3850  0.6969  0.7556
   45CHL1  H21B 5790   4.136   4.909   9.490 -0.9023 -0.9171  0.5681
   45CHL1  H21C 5791   4.190   4.887   9.664 -0.2540 -0.3914  0.0324
   45CHL1   C22 5792   4.213   5.173   9.465 -0.8126  0.6949  0.3781
   45CHL1  H22A 5793   4.212   5.282   9.484  0.1665  0.5053  1.6451
   45CHL1  H22B 5794   4.306   5.142   9.413 -1.9196  0.4928 -1.5735
   45CHL1   C23 5795   4.112   5.133   9.355  0.1227  0.5002  0.2832
   45CHL1  H23A 5796   4.106   5.023   9.338  1.0734  0.1445  2.0489
   45CHL1  H23B 5797   4.014   5.160   9.401  0.4580 -0.6896  1.7668
   45CHL1   C24 5798   4.149   5.189   9.214  0.6517 -0.2658 -0.1271
   45CHL1  H24A 5799   4.193   5.289   9.235  1.0133 -0.6523  1.0203
   45CHL1  H24B 5800   4.233   5.140   9.161  0.0324  0.2260 -1.6142
   45CHL1   C25 5801   4.036   5.198   9.107  0.6347  0.5090 -0.1064
   45CHL1   H25 5802   3.941   5.239   9.146 -2.0897 -2.5899 -2.8833
   45CHL1   C26 5803   4.086   5.289   8.994  0.4059 -0.4364  0.4181
   45CHL1  H26A 5804   4.097   5.394   9.029 -1.4156 -0.2802  0.5883
   45CHL1  H26B 5805   4.184   5.248   8.960  1.3751  1.0198  1.3620
   45CHL1  H26C 5806   4.010   5.279   8.914  0.3777  1.3010  0.2106
   45CHL1   C27 5807   3.988   5.064   9.044 -0.1357  0.6411  0.3934
   45CHL1  H27A 5808   3.993   4.972   9.106 -0.4910 -0.0638 -0.6025
   45CHL1  H27B 5809   3.888   5.079   8.997  0.0972 -0.3172 -0.4634
   45CHL1  H27C 5810   4.053   5.046   8.956 -1.7979 -1.0710 -0.5610
   46CHL1    C3 5811   6.486   2.416  10.483 -0.8504 -0.3368  0.1728
   46CHL1    H3 5812   6.596   2.429  10.481 -0.4242 -3.0553 -2.3585
   46CHL1    O3 5813   6.435   2.422  10.613 -0.7836  0.5387  0.1232
   46CHL1   H3' 5814   6.339   2.426  10.601 -0.8183  2.8505  0.7218
   46CHL1    C4 5815   6.420   2.526  10.411  0.4078 -0.3316 -0.7062
   46CHL1   H4A 5816   6.311   2.522  10.432  0.5210  2.0456  0.7216
   46CHL1   H4B 5817   6.451   2.621  10.460  0.2201 -1.5682  2.0097
   46CHL1    C5 5818   6.451   2.538  10.266 -0.0808 -0.6729  0.2262
   46CHL1    C6 5819   6.514   2.639  10.211 -0.4627 -0.6000 -0.1715
   46CHL1    H6 5820   6.526   2.731  10.270  0.4110 -1.7455  1.5365
   46CHL1    C7 5821   6.553   2.650  10.064  0.1644  0.3828 -0.3333
   46CHL1   H7A 5822   6.527   2.754  10.035  2.6704  1.1057 -0.2211
   46CHL1   H7B 5823   6.658   2.631  10.035 -0.3434 -1.9175 -0.8676
   46CHL1    C8 5824   6.479   2.549   9.975  0.3377  0.4661 -0.2243
   46CHL1    H8 5825   6.373   2.582   9.965  0.4340  0.5832 -0.9214
   46CHL1   C14 5826   6.550   2.547   9.842 -0.2800 -0.5143  0.0450
   46CHL1   H14 5827   6.654   2.523   9.873 -0.9955 -0.7826  2.4224
   46CHL1   C15 5828   6.564   2.676   9.760 -0.0631 -0.0599  0.0988
   46CHL1  H15A 5829   6.471   2.737   9.764 -1.9476 -2.3444 -3.6730
   46CHL1  H15B 5830   6.645   2.746   9.790  0.5117 -0.4984 -0.4027
   46CHL1   C16 5831   6.591   2.636   9.611  0.1511 -0.3803 -0.0476
   46CHL1  H16A 5832   6.513   2.670   9.540  0.5863 -2.5933 -1.6933
   46CHL1  H16B 5833   6.686   2.682   9.577 -0.5301 -0.3928 -2.0675
   46CHL1   C17 5834   6.586   2.474   9.610 -0.0399 -0.3990 -0.3557
   46CHL1   H17 5835   6.690   2.444   9.633  0.3191  1.2881  0.3226
   46CHL1   C13 5836   6.498   2.450   9.740 -0.0354  0.0242  0.4152
   46CHL1   C18 5837   6.352   2.489   9.709  0.1084 -1.0216  0.5967
   46CHL1  H18A 5838   6.280   2.473   9.792 -1.2378 -0.9488 -0.5242
   46CHL1  H18B 5839   6.337   2.595   9.680  2.0176 -0.8976 -0.0411
   46CHL1  H18C 5840   6.322   2.428   9.621  2.6247  1.7850 -2.4471
   46CHL1   C12 5841   6.499   2.299   9.806 -0.0770  0.3815 -0.2484
   46CHL1  H12A 5842   6.446   2.229   9.737 -1.1629 -0.4590  1.3523
   46CHL1  H12B 5843   6.607   2.275   9.816  0.0874  1.7238  1.7223
   46CHL1   C11 5844   6.426   2.299   9.942 -0.1890 -0.8270 -0.8141
   46CHL1  H11A 5845   6.319   2.314   9.921  0.0611  1.8812 -0.4063
   46CHL1  H11B 5846   6.446   2.204   9.997 -4.6566 -1.7571 -0.4314
   46CHL1    C9 5847   6.481   2.407  10.038 -0.4792  0.0925  0.8933
   46CHL1    H9 5848   6.591   2.389  10.040 -0.3824 -0.4088 -2.7231
   46CHL1   C10 5849   6.424   2.412  10.183  0.7916  0.1722 -0.3373
   46CHL1   C19 5850   6.272   2.388  10.172 -0.2947  0.2558 -0.2289
   46CHL1  H19A 5851   6.217   2.382  10.268 -0.4557 -0.1413 -0.3435
   46CHL1  H19B 5852   6.233   2.464  10.101 -0.1836 -1.1008 -1.8283
   46CHL1  H19C 5853   6.243   2.293  10.121  1.1038 -0.1018 -0.4262
   46CHL1    C1 5854   6.481   2.297  10.267 -0.0293  0.3713  0.2166
   46CHL1   H1A 5855   6.456   2.201  10.219 -1.1579  0.1183  1.2644
   46CHL1   H1B 5856   6.592   2.309  10.261  0.1603 -1.2729  0.0935
   46CHL1    C2 5857   6.452   2.283  10.413  0.1474  0.4343 -0.1804
   46CHL1   H2A 5858   6.505   2.195  10.454 -0.2693 -0.6107 -1.7869
   46CHL1   H2B 5859   6.346   2.256  10.433 -0.2025 -0.5407 -2.9205
   46CHL1   C20 5860   6.542   2.416   9.474 -0.7867 -0.2505  0.4864
   46CHL1   H20 5861   6.448   2.464   9.440  0.2262  1.4335 -0.0678
   46CHL1   C21 5862   6.529   2.266   9.472 -0.0398 -0.0739 -0.4094
   46CHL1  H21A 5863   6.448   2.227   9.537  0.7898  0.7628  1.1687
   46CHL1  H21B 5864   6.621   2.224   9.517 -0.2777 -0.6083 -0.4207
   46CHL1  H21C 5865   6.524   2.232   9.366  3.3136 -0.6956 -0.4592
   46CHL1   C22 5866   6.644   2.455   9.362 -0.2482  0.1604 -0.0115
   46CHL1  H22A 5867   6.684   2.554   9.394 -0.7907 -0.1529  1.7406
   46CHL1  H22B 5868   6.718   2.377   9.388 -0.1617  0.3713  0.3941
   46CHL1   C23 5869   6.589   2.451   9.219  0.5908 -0.0732 -0.6138
   46CHL1  H23A 5870   6.528   2.360   9.200  0.4169 -0.1515  0.2682
   46CHL1  H23B 5871   6.513   2.532   9.228 -1.9609 -2.4737  1.6007
   46CHL1   C24 5872   6.683   2.486   9.103 -0.5158  0.5112  0.1596
   46CHL1  H24A 5873   6.758   2.403   9.107 -0.3918  0.5101 -1.3476
   46CHL1  H24B 5874   6.629   2.482   9.006  0.3768  0.3131 -0.3399
   46CHL1   C25 5875   6.743   2.629   9.114  0.5122  0.5822 -0.5926
   46CHL1   H25 5876   6.794   2.645   9.212 -0.0991 -0.3074 -0.1118
   46CHL1   C26 5877   6.851   2.652   9.009  0.7145 -0.1621 -0.0028
   46CHL1  H26A 5878   6.933   2.577   9.003  1.4409  0.7163 -2.5456
   46CHL1  H26B 5879   6.822   2.681   8.905  0.6183 -1.0689 -0.2380
   46CHL1  H26C 5880   6.902   2.747   9.035  0.8778  0.0298 -0.9757
   46CHL1   C27 5881   6.634   2.741   9.096  0.0731 -0.1628  0.1663
   46CHL1  H27A 5882   6.587   2.723   8.997  2.9047  0.9409 -1.5047
   46CHL1  H27B 5883   6.571   2.747   9.188 -1.1576  0.8465 -0.7130
   46CHL1  H27C 5884   6.672   2.843   9.075 -0.4998 -0.5434 -3.2867
   47CHL1    C3 5885   0.221   0.699  10.162  0.0800 -0.4595 -0.5448
   47CHL1    H3 5886   0.216   0.807  10.136  0.1301 -0.4867 -0.6694
   47CHL1    O3 5887   0.260   0.681  10.294  0.2418  0.3057 -0.1180
   47CHL1   H3' 5888   0.302   0.594  10.295 -0.4539 -0.0521 -0.9501
   47CHL1    C4 5889   0.093   0.621  10.120  0.1544  0.3947 -0.3431
   47CHL1   H4A 5890   0.110   0.512  10.131 -1.3374 -0.1004 -2.2766
   47CHL1   H4B 5891   0.016   0.650  10.195 -0.3094 -0.7824 -0.3558
   47CHL1    C5 5892   0.058   0.636   9.966 -0.6202  0.0526  0.0524
   47CHL1    C6 5893  -0.065   0.688   9.930  0.5206 -0.3429 -0.1407
   47CHL1    H6 5894  -0.144   0.710  10.004  0.5657  1.3435 -0.5568
   47CHL1    C7 5895  -0.098   0.696   9.781 -0.5509 -0.1943 -0.4830
   47CHL1   H7A 5896  -0.203   0.662   9.767 -0.4506 -0.4515 -0.6318
   47CHL1   H7B 5897  -0.100   0.802   9.749 -2.2423 -0.1985 -0.5294
   47CHL1    C8 5898   0.002   0.617   9.679  0.3083  0.1814 -0.0466
   47CHL1    H8 5899  -0.024   0.510   9.693  0.9091  0.3525  3.0150
   47CHL1   C14 5900  -0.012   0.666   9.541  0.5099 -0.0481  0.4646
   47CHL1   H14 5901   0.027   0.769   9.531  0.7234 -0.1766 -0.0983
   47CHL1   C15 5902  -0.154   0.694   9.484 -0.2594 -0.0780  0.6664
   47CHL1  H15A 5903  -0.223   0.620   9.528  1.7353 -1.7883  1.0414
   47CHL1  H15B 5904  -0.185   0.799   9.504 -1.6557  0.3509 -2.9283
   47CHL1   C16 5905  -0.132   0.682   9.335 -0.7426  0.2567  0.7909
   47CHL1  H16A 5906  -0.190   0.595   9.298  0.9710 -0.6813  0.1665
   47CHL1  H16B 5907  -0.151   0.778   9.281 -0.3009 -1.0255 -1.8352
   47CHL1   C17 5908   0.028   0.656   9.304  1.1281 -0.4059  0.0921
   47CHL1   H17 5909   0.082   0.753   9.302  2.3602 -1.0836 -0.4991
   47CHL1   C13 5910   0.078   0.591   9.436  1.0683 -0.2923  0.2559
   47CHL1   C18 5911   0.041   0.442   9.435 -0.2030 -0.5569  0.5496
   47CHL1  H18A 5912  -0.068   0.427   9.417 -0.3561  1.1010 -0.0266
   47CHL1  H18B 5913   0.093   0.378   9.361 -0.5134 -2.9086  2.2264
   47CHL1  H18C 5914   0.060   0.394   9.534 -0.0539 -1.2314  0.1994
   47CHL1   C12 5915   0.228   0.604   9.478 -0.4286  0.4014 -0.6097
   47CHL1  H12A 5916   0.284   0.528   9.420 -0.6975  0.0747 -0.4479
   47CHL1  H12B 5917   0.267   0.707   9.467  1.6444 -0.3466 -0.6408
   47CHL1   C11 5918   0.248   0.564   9.625 -0.1825 -0.1033  0.2460
   47CHL1  H11A 5919   0.262   0.454   9.634  3.5704  0.3573  2.2424
   47CHL1  H11B 5920   0.350   0.600   9.649 -0.6395  0.5285  1.3204
   47CHL1    C9 5921   0.149   0.629   9.724 -0.4038 -0.3762 -0.1879
   47CHL1    H9 5922   0.175   0.737   9.712 -1.6057 -0.2381 -1.9113
   47CHL1   C10 5923   0.179   0.597   9.876 -0.0500  0.2936  0.4473
   47CHL1   C19 5924   0.201   0.441   9.874 -0.0029 -0.5454 -0.0080
   47CHL1  H19A 5925   0.115   0.389   9.827 -0.8010  0.4480  0.3066
   47CHL1  H19B 5926   0.297   0.417   9.824 -0.1257 -0.5440 -0.2493
   47CHL1  H19C 5927   0.203   0.392   9.973 -1.9572  0.7699  0.7344
   47CHL1    C1 5928   0.308   0.660   9.923 -0.6316  0.0428 -0.0856
   47CHL1   H1A 5929   0.396   0.617   9.871 -1.0367  1.7006 -2.2736
   47CHL1   H1B 5930   0.301   0.767   9.894  0.0175 -0.1845 -1.1145
   47CHL1    C2 5931   0.337   0.651  10.072 -0.2879 -0.5092  0.6668
   47CHL1   H2A 5932   0.426   0.716  10.083 -1.0075  0.2960  2.0498
   47CHL1   H2B 5933   0.366   0.546  10.093 -2.3595 -1.0869  0.8821
   47CHL1   C20 5934   0.053   0.592   9.170  0.4562 -0.3358 -0.2887
   47CHL1   H20 5935   0.020   0.487   9.157 -1.5484  0.1044  0.8801
   47CHL1   C21 5936   0.198   0.605   9.139 -0.1360 -0.8565 -0.5501
   47CHL1  H21A 5937   0.216   0.596   9.030 -1.7604 -1.2202 -0.8151
   47CHL1  H21B 5938   0.252   0.524   9.193 -0.2920 -0.7280 -0.1952
   47CHL1  H21C 5939   0.233   0.706   9.172 -2.6518 -0.3602  0.8360
   47CHL1   C22 5940  -0.027   0.670   9.057 -0.4678 -0.1637 -0.1583
   47CHL1  H22A 5941  -0.021   0.612   8.962 -3.2472  0.5459 -0.8701
   47CHL1  H22B 5942  -0.137   0.668   9.068 -0.8326  0.3421 -2.9671
   47CHL1   C23 5943  -0.001   0.819   9.028 -0.0734  0.3234  0.0386
   47CHL1  H23A 5944  -0.016   0.869   9.126  3.4550  3.0835 -0.6142
   47CHL1  H23B 5945   0.101   0.827   8.985  0.4958 -3.3152  0.4023
   47CHL1   C24 5946  -0.100   0.874   8.923 -0.2085  0.2725  0.1916
   47CHL1  H24A 5947  -0.204   0.841   8.948  0.1372 -0.9373  0.1000
   47CHL1  H24B 5948  -0.088   0.983   8.910  2.4375 -0.3152 -4.7167
   47CHL1   C25 5949  -0.078   0.824   8.780  0.2246  0.3099 -0.3548
   47CHL1   H25 5950  -0.084   0.714   8.786 -0.8127  0.3576 -0.3235
   47CHL1   C26 5951  -0.189   0.860   8.686 -0.4538 -0.5862  0.5157
   47CHL1  H26A 5952  -0.214   0.968   8.674 -1.7461 -0.9228 -0.0212
   47CHL1  H26B 5953  -0.287   0.813   8.709 -1.5591  1.3705  0.0537
   47CHL1  H26C 5954  -0.168   0.833   8.580  0.4395  2.6548 -0.2529
   47CHL1   C27 5955   0.057   0.857   8.719 -0.3511  1.0199  0.6863
   47CHL1  H27A 5956   0.137   0.810   8.779 -0.0018  1.0975  0.2838
   47CHL1  H27B 5957   0.062   0.824   8.613  1.2857  2.2214  0.3534
   47CHL1  H27C 5958   0.054   0.968   8.726 -2.0853  1.0008  0.8338
   48CHL1    C3 5959   2.180   0.606  10.300 -0.9754  0.4237  0.3654
   48CHL1    H3 5960   2.132   0.506  10.297  0.7900 -0.4476 -0.2296
   48CHL1    O3 5961   2.222   0.624  10.431 -0.7061 -0.2953  0.2039
   48CHL1   H3' 5962   2.224   0.718  10.454  0.5666 -0.7286  2.1339
   48CHL1    C4 5963   2.308   0.609  10.217  0.3645 -0.9123 -0.4616
   48CHL1   H4A 5964   2.357   0.704  10.246 -1.7483  0.2268 -0.4554
   48CHL1   H4B 5965   2.373   0.522  10.243  0.5881 -0.7901 -0.6071
   48CHL1    C5 5966   2.288   0.625  10.065  0.3230 -0.4036  0.1017
   48CHL1    C6 5967   2.345   0.545   9.972  0.1735  0.2814 -0.9902
   48CHL1    H6 5968   2.424   0.476  10.006 -0.1196  0.0639 -0.7428
   48CHL1    C7 5969   2.317   0.548   9.828 -0.4507  0.0992 -0.5867
   48CHL1   H7A 5970   2.417   0.526   9.785  0.1038 -0.1833  0.7957
   48CHL1   H7B 5971   2.242   0.470   9.802  0.0602 -0.5939 -0.0010
   48CHL1    C8 5972   2.261   0.688   9.780 -0.3627  0.0802  0.0681
   48CHL1    H8 5973   2.347   0.758   9.789  0.1539 -0.6593  1.0772
   48CHL1   C14 5974   2.216   0.679   9.636  0.7162 -0.5409 -0.1794
   48CHL1   H14 5975   2.146   0.593   9.626  0.1044  0.1486 -2.9147
   48CHL1   C15 5976   2.332   0.663   9.529 -0.4597 -0.4916  0.3045
   48CHL1  H15A 5977   2.420   0.724   9.557  1.3721 -2.9118  0.1464
   48CHL1  H15B 5978   2.363   0.557   9.527  0.2565 -0.2844 -0.5809
   48CHL1   C16 5979   2.272   0.711   9.396 -0.1038  0.1286  0.3074
   48CHL1  H16A 5980   2.332   0.789   9.345 -1.3094  0.3902 -0.7641
   48CHL1  H16B 5981   2.260   0.627   9.323 -0.9661  0.0122  0.5677
   48CHL1   C17 5982   2.137   0.771   9.434 -0.0460 -0.6481  0.0632
   48CHL1   H17 5983   2.059   0.692   9.434 -1.6925  0.9325  0.4252
   48CHL1   C13 5984   2.140   0.805   9.588 -0.1120  0.2734  0.3536
   48CHL1   C18 5985   2.232   0.925   9.609  0.1687 -0.6987 -0.0524
   48CHL1  H18A 5986   2.188   1.022   9.577  3.8703  1.5551  1.0975
   48CHL1  H18B 5987   2.246   0.942   9.718  0.7676 -0.4043 -0.1712
   48CHL1  H18C 5988   2.330   0.920   9.557 -0.4314  1.2306 -1.4717
   48CHL1   C12 5989   2.007   0.802   9.671 -0.5700  0.3541  0.0352
   48CHL1  H12A 5990   1.937   0.877   9.628  0.5183  0.1653 -2.1788
   48CHL1  H12B 5991   1.965   0.701   9.650 -2.4149  0.8000  1.2595
   48CHL1   C11 5992   2.038   0.826   9.825  0.2794  0.1385 -0.1016
   48CHL1  H11A 5993   2.059   0.933   9.847  0.3842 -0.0007  0.5003
   48CHL1  H11B 5994   1.943   0.793   9.874  1.1070 -1.2779  0.6047
   48CHL1    C9 5995   2.140   0.721   9.876 -0.1201 -0.8249  0.1924
   48CHL1    H9 5996   2.088   0.623   9.881  0.6988 -1.2662  0.3033
   48CHL1   C10 5997   2.185   0.727  10.027  0.2433  0.4294  0.7105
   48CHL1   C19 5998   2.245   0.866  10.051 -0.2771 -0.3454  0.0832
   48CHL1  H19A 5999   2.163   0.941  10.042 -0.4574 -0.3681  1.3409
   48CHL1  H19B 6000   2.297   0.876  10.149  2.0765 -2.9277 -0.7818
   48CHL1  H19C 6001   2.321   0.887   9.974  1.3110 -2.2439  1.0438
   48CHL1    C1 6002   2.058   0.716  10.121  0.1431  0.0064  0.2938
   48CHL1   H1A 6003   1.995   0.805  10.098  1.4648  0.4378 -1.9644
   48CHL1   H1B 6004   1.991   0.633  10.089 -1.0943  0.9593  0.3289
   48CHL1    C2 6005   2.083   0.720  10.267  0.3148  0.5096  0.1292
   48CHL1   H2A 6006   1.994   0.711  10.333  0.1606 -2.6058 -0.3823
   48CHL1   H2B 6007   2.120   0.820  10.297 -1.5131  0.8067  1.5889
   48CHL1   C20 6008   2.098   0.890   9.338 -0.5350  0.1439  0.3811
   48CHL1   H20 6009   2.176   0.967   9.354 -0.5245 -0.2999  2.9155
   48CHL1   C21 6010   1.968   0.961   9.387 -0.7526  0.2308 -0.3347
   48CHL1  H21A 6011   1.885   0.888   9.401 -0.3469 -0.0969  0.4210
   48CHL1  H21B 6012   1.941   1.046   9.321 -1.3657  0.6748  0.4685
   48CHL1  H21C 6013   1.986   1.008   9.486  0.5656 -1.2388  0.1659
   48CHL1   C22 6014   2.083   0.845   9.194  1.1009  0.6442  0.9565
   48CHL1  H22A 6015   2.175   0.798   9.153 -0.8264 -0.6122 -2.3369
   48CHL1  H22B 6016   2.000   0.770   9.196  0.1202  1.6615  0.0719
   48CHL1   C23 6017   2.041   0.955   9.093 -0.2311 -0.4375 -0.9003
   48CHL1  H23A 6018   1.940   0.991   9.122  0.0751 -1.3202  1.5055
   48CHL1  H23B 6019   2.105   1.045   9.107  0.4403 -0.7986 -1.5451
   48CHL1   C24 6020   2.033   0.915   8.943 -0.4420 -0.5016 -0.6212
   48CHL1  H24A 6021   2.138   0.905   8.907  0.3591 -3.9424  2.0444
   48CHL1  H24B 6022   1.973   0.821   8.936  0.2411 -1.3246  2.8658
   48CHL1   C25 6023   1.965   1.022   8.849  0.0213  0.0238 -0.7659
   48CHL1   H25 6024   1.855   1.031   8.866 -0.4487  2.1180 -3.9925
   48CHL1   C26 6025   2.044   1.151   8.855  0.8563 -0.3866  0.4757
   48CHL1  H26A 6026   2.150   1.124   8.834  0.8417 -1.6086  1.8319
   48CHL1  H26B 6027   2.001   1.227   8.787 -2.4196  0.3826  3.1423
   48CHL1  H26C 6028   2.047   1.196   8.957  0.1676  0.7134  0.0212
   48CHL1   C27 6029   1.976   0.975   8.703  0.3449 -0.0186  0.0942
   48CHL1  H27A 6030   2.076   1.004   8.663 -1.2885  2.8241 -2.3029
   48CHL1  H27B 6031   1.957   0.867   8.686 -0.8016  0.3699 -1.2162
   48CHL1  H27C 6032   1.908   1.031   8.636  2.2399  2.4071  0.0733
   49CHL1    C3 6033   4.997   2.770  10.414 -0.3413 -0.6585  0.0334
   49CHL1    H3 6034   4.902   2.720  10.387  0.7940 -1.2795 -3.3011
   49CHL1    O3 6035   5.012   2.747  10.557 -0.0260  0.2132  0.3890
   49CHL1   H3' 6036   5.088   2.798  10.587 -0.2414 -0.6706  2.5731
   49CHL1    C4 6037   5.122   2.705  10.339  0.2668  0.7598 -0.3110
   49CHL1   H4A 6038   5.212   2.761  10.374  0.2095  0.6768 -0.0244
   49CHL1   H4B 6039   5.134   2.600  10.373  1.8389  0.6713 -1.0385
   49CHL1    C5 6040   5.105   2.728  10.189  0.4789  0.1788  0.2089
   49CHL1    C6 6041   5.120   2.620  10.108  0.4748  0.2728  1.0019
   49CHL1    H6 6042   5.155   2.524  10.149  3.7978  1.2218  0.6848
   49CHL1    C7 6043   5.094   2.625   9.956 -0.2198  0.9480 -0.2005
   49CHL1   H7A 6044   5.169   2.569   9.896 -3.5936 -2.6555 -1.4548
   49CHL1   H7B 6045   4.993   2.584   9.936 -0.0098  0.1743  0.2504
   49CHL1    C8 6046   5.102   2.769   9.899 -0.0032  0.1970 -0.7380
   49CHL1    H8 6047   5.209   2.801   9.900 -0.4959  2.3871  3.7672
   49CHL1   C14 6048   5.043   2.757   9.758  0.3757 -0.5738  0.1276
   49CHL1   H14 6049   4.937   2.733   9.782 -0.3125  0.1556 -1.9409
   49CHL1   C15 6050   5.097   2.657   9.659 -0.0894 -0.1059  0.1055
   49CHL1  H15A 6051   5.208   2.662   9.664 -0.1688  1.3029  1.1009
   49CHL1  H15B 6052   5.074   2.553   9.690  1.9796  0.0495  2.4676
   49CHL1   C16 6053   5.029   2.703   9.522 -0.6812 -0.1805 -0.1363
   49CHL1  H16A 6054   5.119   2.702   9.456 -1.3885 -0.9233 -1.1144
   49CHL1  H16B 6055   4.950   2.633   9.487  0.4207 -0.9225 -1.2167
   49CHL1   C17 6056   4.958   2.838   9.549 -0.0183  0.3411 -0.0655
   49CHL1   H17 6057   4.851   2.838   9.577 -0.0225  2.1222  0.0468
   49CHL1   C13 6058   5.027   2.890   9.684  0.1143  0.0475  0.2434
   49CHL1   C18 6059   5.167   2.952   9.647  0.6695 -0.0673  0.1396
   49CHL1  H18A 6060   5.223   2.969   9.741  0.7627  1.0937 -0.1001
   49CHL1  H18B 6061   5.216   2.886   9.573  1.3062  1.0806 -0.4991
   49CHL1  H18C 6062   5.168   3.053   9.600  3.6741  0.3963  1.0067
   49CHL1   C12 6063   4.950   2.990   9.769 -0.2685 -0.4750 -0.3677
   49CHL1  H12A 6064   4.951   3.090   9.721  1.1826 -0.1417  0.3074
   49CHL1  H12B 6065   4.843   2.959   9.769 -0.1704 -0.8095 -0.0177
   49CHL1   C11 6066   5.006   2.999   9.921  0.3734  1.0611 -0.3407
   49CHL1  H11A 6067   5.103   3.053   9.911  1.3594 -0.7221 -0.9278
   49CHL1  H11B 6068   4.937   3.059   9.984 -3.0970 -0.9570 -1.9715
   49CHL1    C9 6069   5.018   2.862   9.986 -1.0769  0.0843  0.2938
   49CHL1    H9 6070   4.917   2.816   9.989 -0.6241 -0.9556  0.0991
   49CHL1   C10 6071   5.065   2.867  10.134  0.1075 -0.3266 -0.3828
   49CHL1   C19 6072   5.198   2.944  10.141 -0.2406 -1.2566 -0.0059
   49CHL1  H19A 6073   5.281   2.911  10.075  0.6087  1.9854 -0.7414
   49CHL1  H19B 6074   5.177   3.048  10.108  1.1262 -1.2505 -0.9453
   49CHL1  H19C 6075   5.248   2.957  10.239  1.2471  0.8660 -0.9839
   49CHL1    C1 6076   4.952   2.934  10.221 -0.8222  0.8024  0.6400
   49CHL1   H1A 6077   4.939   3.041  10.196 -0.7631  1.4699  3.2173
   49CHL1   H1B 6078   4.859   2.885  10.187 -0.2297 -0.4048  0.7137
   49CHL1    C2 6079   4.985   2.921  10.368  0.4360  0.2534 -0.8298
   49CHL1   H2A 6080   4.911   2.961  10.440  0.0858 -0.6748 -0.6611
   49CHL1   H2B 6081   5.088   2.956  10.392  0.2128  0.4153 -0.0948
   49CHL1   C20 6082   4.956   2.917   9.420 -0.0925  0.2961 -0.5854
   49CHL1   H20 6083   5.062   2.935   9.394  0.2222  2.7653  1.8813
   49CHL1   C21 6084   4.905   3.067   9.444  0.3018  0.0325  0.6121
   49CHL1  H21A 6085   4.971   3.109   9.523  0.4133  0.7132  0.1667
   49CHL1  H21B 6086   4.803   3.070   9.486 -0.0330 -0.4612 -0.1397
   49CHL1  H21C 6087   4.917   3.128   9.352 -1.8405 -1.3538 -0.6709
   49CHL1   C22 6088   4.884   2.856   9.297 -0.0577 -0.0641 -0.2034
   49CHL1  H22A 6089   4.928   2.756   9.277 -1.6099 -0.5006 -1.6656
   49CHL1  H22B 6090   4.779   2.837   9.326 -0.0149 -1.7332 -0.9963
   49CHL1   C23 6091   4.896   2.940   9.178  0.1353  0.5361  0.2487
   49CHL1  H23A 6092   4.830   3.027   9.160 -1.0818 -0.4708 -0.2447
   49CHL1  H23B 6093   4.998   2.985   9.177 -0.6315  2.5904  2.9498
   49CHL1   C24 6094   4.883   2.845   9.056  0.0479 -1.0568  0.1404
   49CHL1  H24A 6095   4.960   2.766   9.065  2.0678  1.0100  2.3323
   49CHL1  H24B 6096   4.783   2.796   9.049 -0.0290 -0.9618  0.5894
   49CHL1   C25 6097   4.890   2.926   8.927  0.4062 -0.2861 -0.3689
   49CHL1   H25 6098   4.813   3.006   8.941  0.6478 -0.1522  0.2543
   49CHL1   C26 6099   5.025   2.990   8.892  0.0782 -0.0134 -0.7541
   49CHL1  H26A 6100   5.041   3.058   8.978 -1.6101 -1.2506  0.6141
   49CHL1  H26B 6101   5.113   2.922   8.893  1.0049  1.1427 -0.3289
   49CHL1  H26C 6102   5.026   3.040   8.792  1.3402 -1.4898 -1.5305
   49CHL1   C27 6103   4.852   2.839   8.806 -0.2348 -0.4066  0.3622
   49CHL1  H27A 6104   4.846   2.908   8.719  0.2565  0.7826  1.2446
   49CHL1  H27B 6105   4.935   2.771   8.779 -0.5335 -0.4336 -0.5095
   49CHL1  H27C 6106   4.756   2.786   8.818  1.0011 -3.0052 -0.6107
   50CHL1    C3 6107   3.287   5.004  10.516 -0.1254  0.1058 -1.0853
   50CHL1    H3 6108   3.204   4.932  10.535  0.8517 -0.6082  0.7052
   50CHL1    O3 6109   3.362   5.025  10.629  0.1126 -0.6462  0.1423
   50CHL1   H3' 6110   3.348   5.113  10.666  0.7309 -0.3887 -0.2243
   50CHL1    C4 6111   3.384   4.953  10.407 -0.3255 -0.8591 -0.4405
   50CHL1   H4A 6112   3.481   5.006  10.397 -1.2931  0.7874 -1.6231
   50CHL1   H4B 6113   3.418   4.852  10.439 -1.5384 -1.2403 -0.2901
   50CHL1    C5 6114   3.312   4.949  10.276  0.1134  0.0553 -0.5461
   50CHL1    C6 6115   3.320   4.834  10.209  0.0278  0.7551 -0.3781
   50CHL1    H6 6116   3.372   4.748  10.254  0.9151  0.2966 -2.1809
   50CHL1    C7 6117   3.280   4.824  10.068  0.6695  0.0500  0.0512
   50CHL1   H7A 6118   3.371   4.798  10.011 -0.1934 -2.1214 -0.4331
   50CHL1   H7B 6119   3.216   4.733  10.069  0.5444  0.1374  0.0245
   50CHL1    C8 6120   3.222   4.947  10.001  0.5230 -0.3792 -0.4596
   50CHL1    H8 6121   3.309   5.001   9.958  0.9792 -1.4537 -0.9010
   50CHL1   C14 6122   3.129   4.915   9.885  0.4737 -0.2530  0.3584
   50CHL1   H14 6123   3.031   4.878   9.922 -0.0105 -1.9456 -2.2959
   50CHL1   C15 6124   3.196   4.831   9.770 -0.5055  0.1079  0.6425
   50CHL1  H15A 6125   3.304   4.854   9.766 -0.3653 -0.6749 -0.3303
   50CHL1  H15B 6126   3.177   4.722   9.786 -1.8589  0.0395 -1.1438
   50CHL1   C16 6127   3.113   4.878   9.643 -0.2286  0.6549  0.1099
   50CHL1  H16A 6128   3.194   4.912   9.574 -0.6128  1.6548  0.1277
   50CHL1  H16B 6129   3.072   4.783   9.604  0.6511 -0.4433  1.7408
   50CHL1   C17 6130   3.007   4.978   9.691 -0.0780 -0.5178  0.3829
   50CHL1   H17 6131   2.926   4.913   9.731 -1.1200  0.8901  0.6503
   50CHL1   C13 6132   3.075   5.042   9.813  0.0176  0.2140  0.0586
   50CHL1   C18 6133   3.183   5.134   9.769 -0.4863  0.3800  1.1864
   50CHL1  H18A 6134   3.260   5.078   9.712 -0.0165  1.1105  1.0933
   50CHL1  H18B 6135   3.142   5.210   9.700  3.2538  1.1956 -0.3994
   50CHL1  H18C 6136   3.244   5.181   9.849 -0.0822  0.3740  0.8867
   50CHL1   C12 6137   2.989   5.125   9.917 -0.1224 -0.9114 -0.2431
   50CHL1  H12A 6138   2.957   5.217   9.864 -1.6334  0.0512  2.1612
   50CHL1  H12B 6139   2.904   5.065   9.954  1.1227 -1.7270  1.4807
   50CHL1   C11 6140   3.073   5.163  10.041  0.1566 -0.5383  0.6702
   50CHL1  H11A 6141   3.143   5.245  10.015 -0.9567  0.5131  0.9259
   50CHL1  H11B 6142   3.009   5.213  10.117 -0.8679  2.1254 -1.7706
   50CHL1    C9 6143   3.148   5.041  10.103 -0.3306 -0.5310  0.0826
   50CHL1    H9 6144   3.061   4.985  10.142 -0.7597 -1.3058 -1.8753
   50CHL1   C10 6145   3.239   5.074  10.224 -0.4721 -0.5003 -0.0370
   50CHL1   C19 6146   3.360   5.167  10.177  0.2131  0.5742  0.1956
   50CHL1  H19A 6147   3.425   5.109  10.109 -0.1232  0.9230 -0.4284
   50CHL1  H19B 6148   3.315   5.256  10.129 -2.0108 -1.4094 -1.6802
   50CHL1  H19C 6149   3.415   5.194  10.270  0.2397  1.4473 -0.0680
   50CHL1    C1 6150   3.153   5.121  10.348  0.1071 -0.9298  0.0892
   50CHL1   H1A 6151   3.120   5.227  10.345  2.9484  0.0294 -0.0944
   50CHL1   H1B 6152   3.068   5.050  10.353 -0.0564 -0.6891  0.7154
   50CHL1    C2 6153   3.231   5.136  10.478  0.2193 -0.3214  0.1423
   50CHL1   H2A 6154   3.173   5.176  10.564 -1.7260  0.1760 -1.3274
   50CHL1   H2B 6155   3.311   5.213  10.471  0.9229 -0.9475  1.0732
   50CHL1   C20 6156   2.954   5.058   9.572  0.0941  0.3524  0.3626
   50CHL1   H20 6157   3.027   5.134   9.539  0.2166 -0.1544 -0.5772
   50CHL1   C21 6158   2.830   5.141   9.614 -0.2838  0.1824  0.1046
   50CHL1  H21A 6159   2.852   5.209   9.699  0.8898  0.3423 -0.3018
   50CHL1  H21B 6160   2.741   5.078   9.636  0.0670 -0.6521 -0.7742
   50CHL1  H21C 6161   2.801   5.214   9.535 -0.5424  0.5184  0.5046
   50CHL1   C22 6162   2.928   4.976   9.442  0.0622 -0.5931  0.0075
   50CHL1  H22A 6163   3.027   4.953   9.396  0.5067  2.8445 -1.0190
   50CHL1  H22B 6164   2.879   4.878   9.459 -0.0853 -0.4711  0.2939
   50CHL1   C23 6165   2.857   5.063   9.332 -0.6643 -0.5290 -0.4156
   50CHL1  H23A 6166   2.753   5.081   9.367  0.0530  0.0397  1.5748
   50CHL1  H23B 6167   2.898   5.164   9.312  0.2895 -0.2742  2.3819
   50CHL1   C24 6168   2.858   4.985   9.195  0.5024  0.3136  0.1103
   50CHL1  H24A 6169   2.963   4.962   9.167  1.8753  2.7845  2.7077
   50CHL1  H24B 6170   2.809   4.892   9.230  1.4099  0.7877  2.9000
   50CHL1   C25 6171   2.780   5.056   9.076 -0.2634 -0.0321  0.1789
   50CHL1   H25 6172   2.831   5.150   9.045  0.7100 -0.5739  0.1080
   50CHL1   C26 6173   2.781   4.969   8.950  0.3398 -0.0482 -0.9428
   50CHL1  H26A 6174   2.711   4.884   8.970 -0.1948  0.2525 -1.5035
   50CHL1  H26B 6175   2.745   5.017   8.857  1.2284 -0.2855 -1.4090
   50CHL1  H26C 6176   2.884   4.933   8.930  0.4950  0.1752 -0.5624
   50CHL1   C27 6177   2.638   5.086   9.118  0.1332 -0.2531  1.1831
   50CHL1  H27A 6178   2.569   5.059   9.035 -0.5299  0.2941  1.5427
   50CHL1  H27B 6179   2.620   5.018   9.204  1.4040  0.2569  1.8846
   50CHL1  H27C 6180   2.635   5.192   9.152 -0.8677  0.3045 -0.4947
   51CHL1    C3 6181   3.226   0.458  10.559  0.0271 -0.9338  0.4030
   51CHL1    H3 6182   3.310   0.526  10.535 -2.1953  1.3244 -1.4980
   51CHL1    O3 6183   3.199   0.483  10.698 -0.3718 -0.6341 -0.2896
   51CHL1   H3' 6184   3.148   0.564  10.698 -2.4462 -1.8174  2.0234
   51CHL1    C4 6185   3.104   0.489  10.471 -0.1592 -0.3727 -0.0552
   51CHL1   H4A 6186   3.011   0.450  10.519 -1.0585  0.4512 -1.0774
   51CHL1   H4B 6187   3.107   0.600  10.476 -0.6860 -0.2773 -1.5543
   51CHL1    C5 6188   3.110   0.441  10.325 -0.0562 -0.0406 -0.1062
   51CHL1    C6 6189   3.113   0.524  10.221  0.1955  0.1373  0.9847
   51CHL1    H6 6190   3.104   0.630  10.247  3.1639  0.8792 -0.5402
   51CHL1    C7 6191   3.121   0.481  10.072 -0.3604  0.0381 -0.9546
   51CHL1   H7A 6192   3.043   0.531  10.010 -0.5558  0.3682 -0.4534
   51CHL1   H7B 6193   3.217   0.527  10.042 -0.9704  2.3723  0.3419
   51CHL1    C8 6194   3.108   0.332  10.052  0.5469 -0.6866  0.7416
   51CHL1    H8 6195   3.000   0.307  10.055  0.3669  0.0221  0.2800
   51CHL1   C14 6196   3.176   0.303   9.923  0.0727  0.1972 -0.0703
   51CHL1   H14 6197   3.285   0.314   9.942  0.3734 -1.0318 -0.9207
   51CHL1   C15 6198   3.130   0.380   9.792  0.0067 -0.0139 -0.0052
   51CHL1  H15A 6199   3.020   0.369   9.803  0.1913  0.2049  2.9597
   51CHL1  H15B 6200   3.169   0.484   9.783 -0.1467 -0.1373 -3.5531
   51CHL1   C16 6201   3.182   0.295   9.672  0.2373  0.0555  0.5772
   51CHL1  H16A 6202   3.101   0.296   9.596  0.3239  0.8781  0.4878
   51CHL1  H16B 6203   3.277   0.340   9.639  1.6482 -1.3356  2.5122
   51CHL1   C17 6204   3.219   0.154   9.734 -0.2383 -0.5180 -0.1198
   51CHL1   H17 6205   3.328   0.165   9.754  0.3072 -2.4256 -1.7604
   51CHL1   C13 6206   3.170   0.153   9.883 -0.0237 -0.7196 -0.1435
   51CHL1   C18 6207   3.022   0.107   9.881  0.7263 -0.6027 -0.2047
   51CHL1  H18A 6208   2.964   0.145   9.968  1.6680  0.0018  0.1685
   51CHL1  H18B 6209   2.968   0.143   9.791  2.5142  1.7355 -0.4382
   51CHL1  H18C 6210   3.016  -0.004   9.877 -1.1368 -0.5525 -0.0118
   51CHL1   C12 6211   3.251   0.074   9.983  0.4137 -0.1746 -0.9802
   51CHL1  H12A 6212   3.249  -0.036   9.968 -0.1600 -0.2278 -0.5512
   51CHL1  H12B 6213   3.356   0.107  10.001 -0.1025  0.5995  0.8747
   51CHL1   C11 6214   3.195   0.103  10.125  0.3834 -1.1447  0.5369
   51CHL1  H11A 6215   3.091   0.064  10.126  0.0960 -0.4363 -0.2493
   51CHL1  H11B 6216   3.256   0.046  10.198  2.1111 -0.7708 -0.5538
   51CHL1    C9 6217   3.194   0.256  10.152 -0.4114 -0.5038 -1.2922
   51CHL1    H9 6218   3.301   0.287  10.146  0.0033 -1.3309  0.8652
   51CHL1   C10 6219   3.149   0.294  10.302 -0.4507 -1.0980 -0.2226
   51CHL1   C19 6220   3.029   0.202  10.342 -0.4251 -0.6179  0.5536
   51CHL1  H19A 6221   2.984   0.229  10.440  2.6219 -0.3392  1.9918
   51CHL1  H19B 6222   2.948   0.201  10.266  0.8683 -1.6787 -0.8648
   51CHL1  H19C 6223   3.070   0.099  10.345 -1.3768 -1.0175  0.2274
   51CHL1    C1 6224   3.271   0.268  10.389  0.0183 -0.9556 -0.3988
   51CHL1   H1A 6225   3.300   0.161  10.394 -0.3744 -1.0177  0.7687
   51CHL1   H1B 6226   3.361   0.321  10.352  0.5380 -0.9775  0.7910
   51CHL1    C2 6227   3.266   0.312  10.537  0.5058  0.2908  0.6637
   51CHL1   H2A 6228   3.366   0.289  10.578  0.3530  0.2488  1.0167
   51CHL1   H2B 6229   3.203   0.243  10.597  2.1767 -0.8149  1.1806
   51CHL1   C20 6230   3.193   0.029   9.650  0.4780 -0.3362  0.9505
   51CHL1   H20 6231   3.082   0.027   9.650  0.3410  1.8803 -1.4351
   51CHL1   C21 6232   3.268  -0.096   9.695 -0.0542 -0.7459 -0.2844
   51CHL1  H21A 6233   3.238  -0.136   9.794 -0.1458 -0.8748 -0.3650
   51CHL1  H21B 6234   3.376  -0.069   9.697 -0.2963  0.2138  0.3464
   51CHL1  H21C 6235   3.265  -0.183   9.625  2.3886 -0.1777 -1.1990
   51CHL1   C22 6236   3.243   0.067   9.501  0.6016  0.6337 -0.0002
   51CHL1  H22A 6237   3.201   0.164   9.467 -0.4941 -0.8041 -3.1088
   51CHL1  H22B 6238   3.354   0.068   9.499  0.6060 -0.4197 -1.6231
   51CHL1   C23 6239   3.197  -0.040   9.398 -0.3623 -0.0692  0.1190
   51CHL1  H23A 6240   3.290  -0.102   9.394  0.3989  1.0736 -0.2327
   51CHL1  H23B 6241   3.104  -0.095   9.424 -0.6207 -0.1842 -0.9853
   51CHL1   C24 6242   3.180   0.015   9.255  0.2935 -0.3479 -0.1926
   51CHL1  H24A 6243   3.090   0.079   9.263 -0.2136 -0.7250 -2.3537
   51CHL1  H24B 6244   3.274   0.073   9.242  1.3193 -1.7931  0.4660
   51CHL1   C25 6245   3.163  -0.099   9.145  0.0691 -0.0998  0.1766
   51CHL1   H25 6246   3.092  -0.175   9.184 -0.6722  0.8370  0.6943
   51CHL1   C26 6247   3.100  -0.037   9.018  0.0964  0.8426 -0.2782
   51CHL1  H26A 6248   3.160   0.050   8.983  0.5234  0.5687 -0.2389
   51CHL1  H26B 6249   3.102  -0.106   8.930  1.4463  0.8015 -0.2297
   51CHL1  H26C 6250   3.000   0.010   9.030 -0.3309 -0.1279  0.1460
   51CHL1   C27 6251   3.299  -0.153   9.110  0.0849 -0.1770  0.1979
   51CHL1  H27A 6252   3.302  -0.237   9.038  3.3864  0.6352 -0.7893
   51CHL1  H27B 6253   3.364  -0.075   9.064  1.0119 -1.2204 -0.3122
   51CHL1  H27C 6254   3.345  -0.186   9.205 -1.8431  0.8859  1.5596
   52CHL1    C3 6255   6.497   0.044  10.238 -0.0782  0.0591 -0.4775
   52CHL1    H3 6256   6.574   0.102  10.183  3.8528 -2.2583  2.0368
   52CHL1    O3 6257   6.478   0.101  10.364  0.0423  0.5011 -0.1110
   52CHL1   H3' 6258   6.384   0.085  10.376  0.1887 -0.9243 -0.6307
   52CHL1    C4 6259   6.365   0.036  10.159 -0.0973 -0.0690 -0.4155
   52CHL1   H4A 6260   6.303  -0.023  10.230 -0.2584  0.5905 -0.0014
   52CHL1   H4B 6261   6.302   0.127  10.156  0.0705  0.0181 -1.4967
   52CHL1    C5 6262   6.362  -0.042  10.034 -0.0652  0.3264  0.4434
   52CHL1    C6 6263   6.319   0.007   9.918 -0.0978  0.3348 -0.3963
   52CHL1    H6 6264   6.285   0.112   9.919  0.6539  0.5821 -0.4189
   52CHL1    C7 6265   6.308  -0.064   9.788  0.0718  0.2007  0.0099
   52CHL1   H7A 6266   6.208  -0.056   9.740 -1.5507 -1.2169  2.8889
   52CHL1   H7B 6267   6.384  -0.017   9.723 -1.9974  1.6945 -1.4398
   52CHL1    C8 6268   6.328  -0.215   9.810 -0.1644  0.0819  0.2213
   52CHL1    H8 6269   6.232  -0.258   9.845 -0.7171  1.5888  0.6804
   52CHL1   C14 6270   6.354  -0.284   9.679  1.0970 -0.0263  0.3528
   52CHL1   H14 6271   6.452  -0.243   9.645  1.1474  0.1704  0.7283
   52CHL1   C15 6272   6.269  -0.249   9.550  0.4471  0.0114  0.1381
   52CHL1  H15A 6273   6.166  -0.280   9.580  0.1389  1.0615  0.2110
   52CHL1  H15B 6274   6.275  -0.140   9.531  0.7103 -0.1939 -0.9972
   52CHL1   C16 6275   6.314  -0.357   9.448 -0.5467 -0.0738 -0.0466
   52CHL1  H16A 6276   6.219  -0.406   9.418 -0.0876 -0.7163 -0.4661
   52CHL1  H16B 6277   6.362  -0.314   9.357  2.3323 -0.8348  1.0067
   52CHL1   C17 6278   6.407  -0.451   9.521  0.1920  0.1486  0.2950
   52CHL1   H17 6279   6.513  -0.422   9.505  0.1901 -1.0992 -2.3920
   52CHL1   C13 6280   6.380  -0.436   9.673  0.0242  0.3348 -0.2476
   52CHL1   C18 6281   6.249  -0.508   9.716  0.2159 -0.1190  0.1917
   52CHL1  H18A 6282   6.154  -0.481   9.664  0.9281  1.3966 -0.4039
   52CHL1  H18B 6283   6.259  -0.618   9.722  0.7112 -0.1170 -0.5588
   52CHL1  H18C 6284   6.232  -0.479   9.822 -1.0487  0.7128 -0.2119
   52CHL1   C12 6285   6.499  -0.466   9.765 -1.0074  0.3769  0.4871
   52CHL1  H12A 6286   6.508  -0.576   9.775 -0.1769  0.4914  1.0918
   52CHL1  H12B 6287   6.596  -0.429   9.726 -0.6615 -1.0499 -0.0795
   52CHL1   C11 6288   6.479  -0.399   9.904  0.3734  0.3936  0.6393
   52CHL1  H11A 6289   6.397  -0.457   9.952 -0.4172 -1.3317 -2.4726
   52CHL1  H11B 6290   6.575  -0.409   9.958  1.1501  2.5271 -0.2465
   52CHL1    C9 6291   6.440  -0.248   9.905  0.1282 -0.2454 -0.5407
   52CHL1    H9 6292   6.533  -0.198   9.870  0.8966  1.6840  3.6080
   52CHL1   C10 6293   6.425  -0.179  10.053 -0.2138 -0.4993  0.3922
   52CHL1   C19 6294   6.333  -0.266  10.136  0.1401  0.1487 -0.1119
   52CHL1  H19A 6295   6.372  -0.368  10.156 -0.5582 -0.0415  0.3144
   52CHL1  H19B 6296   6.320  -0.223  10.237  1.2501 -1.7883  0.9069
   52CHL1  H19C 6297   6.239  -0.275  10.077  0.5404  1.2920 -0.9617
   52CHL1    C1 6298   6.566  -0.170  10.123  0.0655 -0.0507 -0.1975
   52CHL1   H1A 6299   6.610  -0.272  10.131  0.1740 -0.0446 -0.6732
   52CHL1   H1B 6300   6.638  -0.116  10.057 -0.6843 -1.9381 -2.7391
   52CHL1    C2 6301   6.556  -0.096  10.257  0.0922  0.1272  0.4413
   52CHL1   H2A 6302   6.663  -0.085  10.288  0.5063 -2.9774  0.4211
   52CHL1   H2B 6303   6.502  -0.146  10.340 -1.5349 -1.4710 -1.4764
   52CHL1   C20 6304   6.393  -0.590   9.458 -0.0965  0.2118 -0.9586
   52CHL1   H20 6305   6.286  -0.614   9.473 -0.5706  2.6986  0.2653
   52CHL1   C21 6306   6.468  -0.702   9.538  0.2421  0.4145  0.9774
   52CHL1  H21A 6307   6.459  -0.801   9.488 -1.8108  1.6435 -1.3354
   52CHL1  H21B 6308   6.430  -0.713   9.642  0.1566  1.7997  1.1167
   52CHL1  H21C 6309   6.570  -0.664   9.557  0.4888  1.1649 -1.4376
   52CHL1   C22 6310   6.420  -0.581   9.306  0.6589  0.4788 -0.4697
   52CHL1  H22A 6311   6.429  -0.475   9.273 -0.6388  0.2963 -1.4900
   52CHL1  H22B 6312   6.519  -0.626   9.288  0.5764  1.2849 -3.5104
   52CHL1   C23 6313   6.325  -0.664   9.213 -0.1453  0.2240 -0.2000
   52CHL1  H23A 6314   6.377  -0.671   9.115  0.3117  0.6208  0.0132
   52CHL1  H23B 6315   6.316  -0.762   9.264  3.1021  2.4748  5.6279
   52CHL1   C24 6316   6.185  -0.608   9.200  0.1273  0.0204  0.3285
   52CHL1  H24A 6317   6.135  -0.595   9.298 -2.0717  1.5962 -0.9054
   52CHL1  H24B 6318   6.180  -0.516   9.138 -0.9981 -1.1907 -1.4806
   52CHL1   C25 6319   6.092  -0.711   9.139  0.3827 -0.3359  0.4706
   52CHL1   H25 6320   6.123  -0.810   9.177 -0.5532 -1.2317 -0.9932
   52CHL1   C26 6321   5.948  -0.698   9.200 -0.0428 -0.7244 -0.2997
   52CHL1  H26A 6322   5.901  -0.791   9.162 -2.8818 -0.5795  2.5195
   52CHL1  H26B 6323   5.953  -0.711   9.310  1.9070 -1.5546 -0.4353
   52CHL1  H26C 6324   5.905  -0.602   9.166 -1.7650 -1.6413 -0.8155
   52CHL1   C27 6325   6.089  -0.706   8.990 -0.5176  0.0405  0.2277
   52CHL1  H27A 6326   6.189  -0.735   8.950  0.9294  1.4383  2.5547
   52CHL1  H27B 6327   6.000  -0.762   8.956 -1.7652  1.0386  1.6817
   52CHL1  H27C 6328   6.071  -0.603   8.954  0.7400  0.8703  1.8207
   53CHL1    C3 6329   0.416   4.728  10.322  0.1435  0.7268  0.1580
   53CHL1    H3 6330   0.329   4.784  10.282 -1.2329 -0.7938  0.9047
   53CHL1    O3 6331   0.395   4.701  10.461  0.2376  0.1578  0.4647
   53CHL1   H3' 6332   0.484   4.680  10.493 -0.4965 -1.4849  1.5680
   53CHL1    C4 6333   0.448   4.593  10.252  0.4555  0.6660  0.4033
   53CHL1   H4A 6334   0.534   4.544  10.303  0.9026  0.0301 -0.9130
   53CHL1   H4B 6335   0.356   4.532  10.265 -0.3984  0.6630 -3.8983
   53CHL1    C5 6336   0.490   4.605  10.106  0.4488  0.6425 -0.0059
   53CHL1    C6 6337   0.413   4.548  10.008 -0.6658  0.0611  0.0678
   53CHL1    H6 6338   0.322   4.494  10.036 -0.5263  0.2900  0.9821
   53CHL1    C7 6339   0.442   4.563   9.862 -0.7087 -0.4619  0.6935
   53CHL1   H7A 6340   0.428   4.464   9.815 -0.0252  0.6662 -2.1020
   53CHL1   H7B 6341   0.373   4.635   9.814 -0.1689 -0.1301  0.4004
   53CHL1    C8 6342   0.591   4.609   9.841 -0.1041  0.2952  0.1658
   53CHL1    H8 6343   0.657   4.525   9.870  2.2045  2.8620  3.1104
   53CHL1   C14 6344   0.609   4.652   9.697  1.3947  0.1329  0.3511
   53CHL1   H14 6345   0.536   4.735   9.688 -0.4042 -1.5475 -1.4678
   53CHL1   C15 6346   0.559   4.552   9.593 -0.4859 -0.4540 -0.7227
   53CHL1  H15A 6347   0.597   4.449   9.612  0.5745  0.3372  1.9109
   53CHL1  H15B 6348   0.449   4.533   9.592 -0.4787 -0.6175  0.2780
   53CHL1   C16 6349   0.622   4.607   9.461  0.2211  0.6892  0.0205
   53CHL1  H16A 6350   0.662   4.521   9.403  0.2882  0.6191  0.1697
   53CHL1  H16B 6351   0.537   4.656   9.410 -0.6958  0.2270  1.0723
   53CHL1   C17 6352   0.731   4.707   9.497 -0.2787 -0.0326 -0.8792
   53CHL1   H17 6353   0.691   4.809   9.476  1.7429  0.8049 -0.9020
   53CHL1   C13 6354   0.748   4.695   9.649 -0.5031 -0.2635  0.2879
   53CHL1   C18 6355   0.845   4.575   9.683 -0.1062 -0.1482  0.5241
   53CHL1  H18A 6356   0.843   4.541   9.789 -0.0339 -0.2754  0.4843
   53CHL1  H18B 6357   0.826   4.486   9.619  1.3768 -2.6243  3.2518
   53CHL1  H18C 6358   0.943   4.619   9.656 -1.1853  1.1687 -1.4828
   53CHL1   C12 6359   0.773   4.827   9.735  0.0299 -0.2147 -0.7214
   53CHL1  H12A 6360   0.874   4.873   9.726 -0.3905  1.3180  1.5178
   53CHL1  H12B 6361   0.690   4.895   9.706 -0.6529 -0.8580 -0.2896
   53CHL1   C11 6362   0.764   4.797   9.888 -0.2658 -0.7718  0.1394
   53CHL1  H11A 6363   0.851   4.735   9.915  0.9762  0.3706 -1.0733
   53CHL1  H11B 6364   0.776   4.891   9.945  1.8125  0.3755 -2.0074
   53CHL1    C9 6365   0.624   4.732   9.928 -0.0438 -0.3982  0.0641
   53CHL1    H9 6366   0.543   4.804   9.901  0.0353  0.0416  0.9557
   53CHL1   C10 6367   0.606   4.704  10.080  0.4175  0.1842 -0.3013
   53CHL1   C19 6368   0.737   4.641  10.134 -0.0419 -0.2904 -0.5587
   53CHL1  H19A 6369   0.815   4.719  10.145 -1.4531  1.0064  1.0004
   53CHL1  H19B 6370   0.727   4.602  10.238 -2.1984  2.7893  0.5638
   53CHL1  H19C 6371   0.761   4.554  10.071  1.0969  1.0854 -2.1200
   53CHL1    C1 6372   0.580   4.839  10.158  0.9234  0.4903 -0.2538
   53CHL1   H1A 6373   0.677   4.893  10.162  1.6212 -0.6792 -0.9061
   53CHL1   H1B 6374   0.501   4.895  10.103 -1.1824 -0.2272  1.8423
   53CHL1    C2 6375   0.539   4.814  10.305  0.1372  0.6234 -0.6036
   53CHL1   H2A 6376   0.537   4.910  10.361  2.2571 -1.2959  3.1841
   53CHL1   H2B 6377   0.623   4.758  10.353  0.4676 -1.7060 -3.5616
   53CHL1   C20 6378   0.861   4.697   9.412  0.4101 -0.2298  0.5385
   53CHL1   H20 6379   0.915   4.602   9.434  1.4562  0.1442 -0.3418
   53CHL1   C21 6380   0.960   4.813   9.440  0.7284  0.8696  0.0936
   53CHL1  H21A 6381   1.006   4.794   9.540  0.2250 -3.8995 -0.3601
   53CHL1  H21B 6382   0.910   4.912   9.444  0.4802  0.7310  0.4946
   53CHL1  H21C 6383   1.030   4.808   9.354 -0.4276  0.9318 -0.8681
   53CHL1   C22 6384   0.839   4.675   9.263  0.5523 -0.3878 -0.4090
   53CHL1  H22A 6385   0.928   4.627   9.217  0.6766 -1.5299  0.9537
   53CHL1  H22B 6386   0.756   4.605   9.238 -0.1969  0.1575  0.5149
   53CHL1   C23 6387   0.807   4.808   9.178 -0.0216 -1.0638 -0.9699
   53CHL1  H23A 6388   0.721   4.859   9.227  0.8128  0.9813 -1.5628
   53CHL1  H23B 6389   0.895   4.874   9.185  1.8334 -3.5496  2.0699
   53CHL1   C24 6390   0.770   4.773   9.035 -0.5181  0.0480  0.3510
   53CHL1  H24A 6391   0.862   4.724   8.996 -0.3949  0.6816 -0.1665
   53CHL1  H24B 6392   0.692   4.695   9.032 -0.1265 -0.4465  1.9329
   53CHL1   C25 6393   0.730   4.895   8.945  0.0057  0.7912  0.6632
   53CHL1   H25 6394   0.627   4.924   8.973 -0.2916  1.0364 -0.6320
   53CHL1   C26 6395   0.802   5.029   8.961  0.3867 -0.1277  0.1111
   53CHL1  H26A 6396   0.908   5.005   8.941  1.0694 -0.2538  3.3465
   53CHL1  H26B 6397   0.768   5.113   8.897  1.6486  2.2743  2.3811
   53CHL1  H26C 6398   0.797   5.060   9.068 -0.2776 -0.8068  0.2921
   53CHL1   C27 6399   0.723   4.850   8.799 -0.3673  0.3414 -0.5925
   53CHL1  H27A 6400   0.828   4.837   8.763  0.1185 -1.6821  1.2859
   53CHL1  H27B 6401   0.666   4.755   8.798 -0.2510  0.2238  1.1018
   53CHL1  H27C 6402   0.669   4.929   8.744 -0.4841 -0.1876 -1.2403
   54CHL1    C3 6403   1.740   0.378  10.436  0.0471 -0.1885 -0.4626
   54CHL1    H3 6404   1.768   0.484  10.452  0.9204 -0.4691 -0.0558
   54CHL1    O3 6405   1.749   0.316  10.561 -0.1995 -0.3937  0.0907
   54CHL1   H3' 6406   1.715   0.228  10.545 -0.1402  0.0114 -3.0011
   54CHL1    C4 6407   1.603   0.349  10.377 -0.5450 -0.0707 -0.1895
   54CHL1   H4A 6408   1.588   0.239  10.366 -0.7671 -0.0970  0.3474
   54CHL1   H4B 6409   1.532   0.389  10.452 -0.2572 -1.3829  0.8359
   54CHL1    C5 6410   1.577   0.410  10.241  0.0348  0.3837  0.0526
   54CHL1    C6 6411   1.468   0.487  10.218 -0.5732 -0.1586 -0.4251
   54CHL1    H6 6412   1.390   0.500  10.294 -1.0876  0.4662 -1.0494
   54CHL1    C7 6413   1.437   0.543  10.080 -0.2880  0.0380 -0.3566
   54CHL1   H7A 6414   1.329   0.520  10.071 -0.6735  1.1889  1.0453
   54CHL1   H7B 6415   1.456   0.652  10.083 -1.1836  0.1840  0.2092
   54CHL1    C8 6416   1.523   0.488   9.965 -0.2065  0.5078 -0.1448
   54CHL1    H8 6417   1.484   0.388   9.937  0.5760 -0.0924  0.8433
   54CHL1   C14 6418   1.518   0.586   9.849  0.0891  0.4402 -0.3392
   54CHL1   H14 6419   1.571   0.676   9.886  0.6099 -0.3945  0.9930
   54CHL1   C15 6420   1.381   0.635   9.789  1.2355  0.5284  0.1976
   54CHL1  H15A 6421   1.305   0.556   9.772  3.1331 -1.1189 -1.1436
   54CHL1  H15B 6422   1.338   0.715   9.854 -1.8334 -1.6914  1.1326
   54CHL1   C16 6423   1.419   0.698   9.655  0.4522  0.6436 -0.5311
   54CHL1  H16A 6424   1.346   0.664   9.578 -1.3527  2.5358  0.2389
   54CHL1  H16B 6425   1.398   0.806   9.672 -0.4469  0.3649  0.2150
   54CHL1   C17 6426   1.566   0.649   9.620 -0.6797 -0.6750  0.4245
   54CHL1   H17 6427   1.626   0.740   9.644 -1.2428 -1.2476  4.9112
   54CHL1   C13 6428   1.598   0.542   9.730  0.5556  1.1744 -0.4524
   54CHL1   C18 6429   1.552   0.406   9.675  0.7123  0.1634 -0.0323
   54CHL1  H18A 6430   1.612   0.392   9.583 -0.2426 -0.1013 -0.6348
   54CHL1  H18B 6431   1.570   0.329   9.754 -0.8464  1.5799  1.8152
   54CHL1  H18C 6432   1.445   0.414   9.647 -0.0445 -3.2714  1.3922
   54CHL1   C12 6433   1.745   0.539   9.768  0.3852 -0.3185 -0.0759
   54CHL1  H12A 6434   1.815   0.510   9.687  0.0882  0.4911 -0.6304
   54CHL1  H12B 6435   1.776   0.638   9.809  2.7161 -1.6539  1.6316
   54CHL1   C11 6436   1.767   0.448   9.894  0.4846 -0.3229  0.6416
   54CHL1  H11A 6437   1.749   0.346   9.853  2.5729 -0.1157 -0.9960
   54CHL1  H11B 6438   1.877   0.445   9.911  0.6581 -3.5364 -0.3020
   54CHL1    C9 6439   1.671   0.483  10.014 -0.7287 -0.1302  1.0442
   54CHL1    H9 6440   1.703   0.584  10.048  0.1037  0.8211 -2.1756
   54CHL1   C10 6441   1.690   0.391  10.136  0.7139  0.4038 -0.2786
   54CHL1   C19 6442   1.677   0.241  10.092 -0.0100  0.1681 -0.1567
   54CHL1  H19A 6443   1.577   0.230  10.045  0.2211 -0.6909 -0.4569
   54CHL1  H19B 6444   1.752   0.214  10.015  1.6768 -0.3384  1.5973
   54CHL1  H19C 6445   1.701   0.168  10.172  1.6569  1.3964  0.5083
   54CHL1    C1 6446   1.834   0.404  10.202  0.3880 -0.3418 -0.1368
   54CHL1   H1A 6447   1.916   0.375  10.133  1.1992 -1.1593  1.1331
   54CHL1   H1B 6448   1.851   0.511  10.227  0.7102 -1.0389  3.0641
   54CHL1    C2 6449   1.853   0.342  10.338  0.1221  0.0447 -0.2688
   54CHL1   H2A 6450   1.950   0.379  10.375 -0.4734  2.9563 -1.3448
   54CHL1   H2B 6451   1.848   0.231  10.335 -0.7133  0.0696 -0.2589
   54CHL1   C20 6452   1.584   0.623   9.464 -0.3206 -0.7103 -0.3860
   54CHL1   H20 6453   1.514   0.543   9.433 -0.1621 -0.7684 -0.5967
   54CHL1   C21 6454   1.733   0.586   9.433  0.5117 -0.1817 -0.2776
   54CHL1  H21A 6455   1.747   0.574   9.324  2.5135 -3.7270  0.1894
   54CHL1  H21B 6456   1.768   0.487   9.470  0.3847  0.2411  1.0220
   54CHL1  H21C 6457   1.808   0.658   9.472 -0.8886  1.4779 -0.5720
   54CHL1   C22 6458   1.545   0.748   9.382 -0.1089 -0.6143 -0.2486
   54CHL1  H22A 6459   1.448   0.786   9.420  0.4582 -0.5928  1.2562
   54CHL1  H22B 6460   1.629   0.820   9.394 -1.2429  0.5441  1.2533
   54CHL1   C23 6461   1.520   0.740   9.231  0.3927  0.0778  0.3587
   54CHL1  H23A 6462   1.612   0.691   9.191  0.1285 -1.8795  1.9726
   54CHL1  H23B 6463   1.426   0.691   9.200  1.0032 -1.7666  1.2427
   54CHL1   C24 6464   1.518   0.880   9.153 -0.4477  0.1665 -0.2105
   54CHL1  H24A 6465   1.421   0.924   9.184 -1.1322 -1.5406  0.1910
   54CHL1  H24B 6466   1.600   0.951   9.178 -0.0935  0.5461 -2.2972
   54CHL1   C25 6467   1.516   0.862   8.995  0.0350 -0.0375 -0.5744
   54CHL1   H25 6468   1.484   0.959   8.951  3.4937  0.3195 -2.6678
   54CHL1   C26 6469   1.658   0.822   8.941  0.0236  0.7080  0.0661
   54CHL1  H26A 6470   1.734   0.862   9.011 -0.6197  0.7321  0.7590
   54CHL1  H26B 6471   1.662   0.711   8.937 -0.3360  0.7246 -1.7702
   54CHL1  H26C 6472   1.673   0.858   8.836  0.0009  1.1126  0.2009
   54CHL1   C27 6473   1.414   0.750   8.940 -0.5741  0.1794  0.3426
   54CHL1  H27A 6474   1.416   0.747   8.829  4.5920 -2.8203  0.2028
   54CHL1  H27B 6475   1.443   0.653   8.985 -0.1713 -0.4826 -1.2950
   54CHL1  H27C 6476   1.314   0.783   8.975 -1.5000 -1.3770 -0.7131
   55CHL1    C3 6477   2.287   5.483  10.414  0.6558 -0.4601 -0.4503
   55CHL1    H3 6478   2.356   5.396  10.424  2.2403  0.7793 -0.3186
   55CHL1    O3 6479   2.262   5.530  10.545  0.4890  0.3893 -0.1090
   55CHL1   H3' 6480   2.348   5.546  10.584  1.3841 -4.3907  0.5185
   55CHL1    C4 6481   2.341   5.597  10.329 -0.4830  0.7520  0.5280
   55CHL1   H4A 6482   2.281   5.690  10.327  0.7827  1.6048  1.0010
   55CHL1   H4B 6483   2.438   5.636  10.369  0.1147  0.5057 -0.6264
   55CHL1    C5 6484   2.354   5.549  10.187  0.6881  0.1607 -0.5365
   55CHL1    C6 6485   2.478   5.540  10.130 -0.5833  0.3228  0.3000
   55CHL1    H6 6486   2.568   5.571  10.185  0.2916 -0.6440 -0.5236
   55CHL1    C7 6487   2.512   5.498   9.991  0.1286 -0.6808  0.2462
   55CHL1   H7A 6488   2.573   5.574   9.938 -0.7020 -0.0565  0.1602
   55CHL1   H7B 6489   2.571   5.404   9.989 -0.0204 -0.7882 -1.6658
   55CHL1    C8 6490   2.387   5.488   9.905  0.2038  1.0037 -0.4212
   55CHL1    H8 6491   2.359   5.592   9.878 -2.0440 -0.0240 -2.4949
   55CHL1   C14 6492   2.415   5.402   9.782  0.4214 -0.4183  0.4325
   55CHL1   H14 6493   2.431   5.298   9.819 -0.1011 -0.8158 -0.4515
   55CHL1   C15 6494   2.544   5.440   9.701 -0.0926  0.1896  0.0464
   55CHL1  H15A 6495   2.567   5.548   9.693  0.2197  0.1545  0.4417
   55CHL1  H15B 6496   2.633   5.397   9.752 -0.4587  0.0089  0.5383
   55CHL1   C16 6497   2.526   5.368   9.568  0.3959  0.0239  0.3576
   55CHL1  H16A 6498   2.552   5.438   9.485  0.7781  0.3257  0.7300
   55CHL1  H16B 6499   2.585   5.276   9.550  0.3715 -0.0424  0.6094
   55CHL1   C17 6500   2.381   5.315   9.576 -0.5922 -0.1743  0.3118
   55CHL1   H17 6501   2.392   5.218   9.630  1.6643  2.8095  6.0990
   55CHL1   C13 6502   2.304   5.392   9.679  0.7594 -0.4895 -0.4519
   55CHL1   C18 6503   2.273   5.542   9.628  0.7407 -0.3381 -0.0216
   55CHL1  H18A 6504   2.227   5.597   9.713 -1.5287 -1.0795 -0.7027
   55CHL1  H18B 6505   2.362   5.599   9.593  0.7351  0.8913  1.8015
   55CHL1  H18C 6506   2.194   5.530   9.551 -0.3434 -0.8776  1.1514
   55CHL1   C12 6507   2.188   5.321   9.757 -0.5472 -0.0052  0.2036
   55CHL1  H12A 6508   2.109   5.322   9.679 -1.6478  1.3428  1.2841
   55CHL1  H12B 6509   2.219   5.218   9.786  1.5075  0.0061 -1.6645
   55CHL1   C11 6510   2.146   5.397   9.886 -0.7324  0.5290  0.8462
   55CHL1  H11A 6511   2.099   5.491   9.851 -2.3339 -0.8653 -0.9980
   55CHL1  H11B 6512   2.068   5.342   9.943 -0.5512 -1.3715 -0.6380
   55CHL1    C9 6513   2.270   5.427   9.982 -0.0704 -0.0624  0.4828
   55CHL1    H9 6514   2.306   5.325  10.010 -0.0610 -0.0257  0.6035
   55CHL1   C10 6515   2.225   5.499  10.110  0.1054  1.1432 -0.1688
   55CHL1   C19 6516   2.124   5.610  10.091 -0.2142 -0.5182  0.5440
   55CHL1  H19A 6517   2.023   5.573  10.063  0.2038 -4.1014  3.0702
   55CHL1  H19B 6518   2.105   5.662  10.187 -1.8725 -0.2126  0.0750
   55CHL1  H19C 6519   2.150   5.678  10.007 -3.9403  0.4129 -0.0084
   55CHL1    C1 6520   2.159   5.391  10.208 -1.0141  0.4946  0.2878
   55CHL1   H1A 6521   2.063   5.352  10.167  0.2620 -0.8577 -1.6055
   55CHL1   H1B 6522   2.217   5.296  10.199 -0.6416  0.8162 -0.8724
   55CHL1    C2 6523   2.153   5.440  10.350  0.4449 -0.4766 -1.1001
   55CHL1   H2A 6524   2.110   5.366  10.421 -0.0389  0.8323  0.0310
   55CHL1   H2B 6525   2.086   5.528  10.358  1.9051  0.7147 -1.5217
   55CHL1   C20 6526   2.311   5.292   9.438  0.4746 -0.2504  0.4714
   55CHL1   H20 6527   2.201   5.286   9.452  0.1221 -1.0720 -2.1370
   55CHL1   C21 6528   2.356   5.152   9.387  0.6121 -0.6126  0.8534
   55CHL1  H21A 6529   2.310   5.140   9.286  0.7818  0.6713  0.6058
   55CHL1  H21B 6530   2.324   5.072   9.457 -0.4536  1.8099  3.3227
   55CHL1  H21C 6531   2.464   5.136   9.364  0.3311 -0.1533 -0.9831
   55CHL1   C22 6532   2.343   5.388   9.331  0.5355 -0.5860 -0.0397
   55CHL1  H22A 6533   2.338   5.493   9.365  1.5113 -1.1130  1.8784
   55CHL1  H22B 6534   2.447   5.366   9.300  0.3219 -0.0528 -1.1668
   55CHL1   C23 6535   2.254   5.387   9.206  0.0291  0.4365  0.2901
   55CHL1  H23A 6536   2.227   5.286   9.169  2.0392 -0.5276  1.2538
   55CHL1  H23B 6537   2.159   5.434   9.239 -0.4478 -1.3801  1.6590
   55CHL1   C24 6538   2.317   5.469   9.093 -0.2933 -0.4251 -0.1095
   55CHL1  H24A 6539   2.384   5.551   9.127 -0.9055  0.6476 -1.3887
   55CHL1  H24B 6540   2.380   5.396   9.037 -0.4035 -1.8754  1.5597
   55CHL1   C25 6541   2.219   5.547   8.999 -0.0679 -0.6383 -0.1106
   55CHL1   H25 6542   2.167   5.623   9.062 -0.9670 -0.8996 -0.5221
   55CHL1   C26 6543   2.290   5.615   8.883 -0.0330  0.4123 -0.4249
   55CHL1  H26A 6544   2.348   5.704   8.916  1.4394  1.0956 -4.2938
   55CHL1  H26B 6545   2.357   5.545   8.829 -0.9824 -1.1116  0.3134
   55CHL1  H26C 6546   2.217   5.648   8.806  0.2313 -0.1043 -0.9004
   55CHL1   C27 6547   2.110   5.464   8.939 -0.6270  0.0676  0.3292
   55CHL1  H27A 6548   2.059   5.519   8.857  1.1186  0.5381 -0.4930
   55CHL1  H27B 6549   2.146   5.369   8.894  0.2437  1.1998 -1.4945
   55CHL1  H27C 6550   2.036   5.429   9.014 -3.1815 -0.2605 -2.2046
   56CHL1    C3 6551   0.130   1.662  10.296 -0.2443 -0.2025 -0.2842
   56CHL1    H3 6552   0.099   1.761  10.256  0.7463  0.3686  0.3151
   56CHL1    O3 6553   0.124   1.670  10.437  0.3878 -0.5429  0.7835
   56CHL1   H3' 6554   0.125   1.584  10.480  0.9533 -0.6279  0.5977
   56CHL1    C4 6555   0.041   1.550  10.224 -0.3050 -1.3822  0.0478
   56CHL1   H4A 6556   0.069   1.451  10.265  0.9297 -0.9389  0.3337
   56CHL1   H4B 6557  -0.065   1.556  10.255 -0.3661 -0.6310 -0.2862
   56CHL1    C5 6558   0.053   1.557  10.078 -0.3921  0.0126  0.1425
   56CHL1    C6 6559  -0.054   1.580  10.001 -0.2521 -0.1296  0.5064
   56CHL1    H6 6560  -0.152   1.603  10.045 -1.2858 -0.7210 -1.4004
   56CHL1    C7 6561  -0.050   1.590   9.850  0.5577  0.3960  0.3278
   56CHL1   H7A 6562  -0.127   1.530   9.797  2.0888 -2.1342  0.8044
   56CHL1   H7B 6563  -0.065   1.696   9.822 -1.9246 -0.1959 -0.9352
   56CHL1    C8 6564   0.090   1.549   9.796  0.4930  0.9571  0.6449
   56CHL1    H8 6565   0.094   1.438   9.802  1.7187  1.0188  1.1918
   56CHL1   C14 6566   0.106   1.574   9.649 -0.5899 -0.0215  0.1350
   56CHL1   H14 6567   0.099   1.685   9.643  1.6721  0.1167 -0.5664
   56CHL1   C15 6568  -0.007   1.516   9.551  0.4714  0.9588  0.3294
   56CHL1  H15A 6569  -0.031   1.410   9.574 -1.1199  1.1423 -0.3939
   56CHL1  H15B 6570  -0.096   1.582   9.556 -0.8465 -0.7231 -0.0027
   56CHL1   C16 6571   0.062   1.530   9.412 -0.3257 -0.4900 -0.1881
   56CHL1  H16A 6572   0.044   1.445   9.343 -0.5624 -0.7427  0.1837
   56CHL1  H16B 6573   0.015   1.603   9.343 -0.9137  0.7709  1.4883
   56CHL1   C17 6574   0.207   1.570   9.447  0.8789  0.7588  0.0554
   56CHL1   H17 6575   0.214   1.680   9.439  2.0663  0.6262 -0.9584
   56CHL1   C13 6576   0.236   1.544   9.593 -0.2394 -0.2684 -0.5331
   56CHL1   C18 6577   0.291   1.400   9.603 -0.2048 -0.3239  0.7134
   56CHL1  H18A 6578   0.392   1.387   9.558 -1.2416  0.0950 -1.9051
   56CHL1  H18B 6579   0.286   1.366   9.709 -1.0177  0.1626  0.8418
   56CHL1  H18C 6580   0.223   1.334   9.545  1.8860  0.5911 -3.0622
   56CHL1   C12 6581   0.341   1.635   9.661  0.8499  0.2610  0.4517
   56CHL1  H12A 6582   0.446   1.622   9.626  1.2137 -0.4601  1.7346
   56CHL1  H12B 6583   0.315   1.742   9.646  0.8609  0.2529  0.3726
   56CHL1   C11 6584   0.344   1.610   9.813  0.3172 -0.8604  0.2770
   56CHL1  H11A 6585   0.374   1.504   9.824 -0.8242 -1.2535 -0.2890
   56CHL1  H11B 6586   0.422   1.672   9.863  2.8764  1.0283 -5.2775
   56CHL1    C9 6587   0.197   1.613   9.880  0.5929  0.3006 -0.2496
   56CHL1    H9 6588   0.167   1.719   9.888 -1.7549 -0.3146 -0.1692
   56CHL1   C10 6589   0.199   1.560  10.026  0.3737 -0.1123  0.3317
   56CHL1   C19 6590   0.255   1.418  10.032 -0.7018 -0.1264  0.1250
   56CHL1  H19A 6591   0.363   1.414  10.010 -0.9845  0.9369 -1.5948
   56CHL1  H19B 6592   0.241   1.370  10.131  0.6214  1.8454  1.3435
   56CHL1  H19C 6593   0.207   1.359   9.951  0.0078  0.3743 -0.6735
   56CHL1    C1 6594   0.299   1.658  10.106  0.9020  0.0504 -0.5709
   56CHL1   H1A 6595   0.408   1.643  10.086  0.6311 -0.9371 -1.4179
   56CHL1   H1B 6596   0.269   1.764  10.090  0.9547  0.1768  0.1587
   56CHL1    C2 6597   0.279   1.642  10.260  0.8989 -0.6405 -0.2677
   56CHL1   H2A 6598   0.337   1.724  10.308  0.2955 -0.2398 -0.2181
   56CHL1   H2B 6599   0.330   1.548  10.294  3.3961 -0.0987 -2.1930
   56CHL1   C20 6600   0.307   1.527   9.334  0.0593 -0.4485  0.5481
   56CHL1   H20 6601   0.298   1.416   9.342 -5.3587 -0.4080 -0.8926
   56CHL1   C21 6602   0.437   1.603   9.352  0.4945  0.3550 -0.4889
   56CHL1  H21A 6603   0.414   1.704   9.392 -0.4763 -0.1257  0.1890
   56CHL1  H21B 6604   0.485   1.614   9.252 -0.4595  0.8911 -0.9050
   56CHL1  H21C 6605   0.499   1.545   9.424 -0.3288 -0.1017 -0.1458
   56CHL1   C22 6606   0.247   1.576   9.194  0.1260 -0.7326  0.5831
   56CHL1  H22A 6607   0.149   1.529   9.170 -0.5478  0.9202 -0.0531
   56CHL1  H22B 6608   0.235   1.685   9.214 -0.4170 -1.0388  2.0707
   56CHL1   C23 6609   0.335   1.550   9.069  0.1447  0.3235  0.3712
   56CHL1  H23A 6610   0.409   1.633   9.069 -0.5282  0.9431  0.3105
   56CHL1  H23B 6611   0.385   1.452   9.080 -0.1628  0.1138 -0.0691
   56CHL1   C24 6612   0.257   1.567   8.940  0.3276 -0.0789  0.3474
   56CHL1  H24A 6613   0.164   1.506   8.932  1.5800 -1.7630 -3.0712
   56CHL1  H24B 6614   0.239   1.677   8.930  0.9082 -0.0514 -0.4042
   56CHL1   C25 6615   0.331   1.526   8.815 -0.9436 -0.4319 -0.1232
   56CHL1   H25 6616   0.362   1.419   8.810  0.3517 -0.0516 -0.3322
   56CHL1   C26 6617   0.248   1.571   8.696  0.3161  0.7352  0.9532
   56CHL1  H26A 6618   0.300   1.549   8.601  0.0848 -3.3557  1.6039
   56CHL1  H26B 6619   0.150   1.519   8.705  0.6231 -0.3940 -1.5173
   56CHL1  H26C 6620   0.229   1.680   8.706  0.0586  0.7199  0.6182
   56CHL1   C27 6621   0.470   1.582   8.793 -0.4690  0.0415 -0.3653
   56CHL1  H27A 6622   0.540   1.537   8.867  0.3095  1.7643 -0.0037
   56CHL1  H27B 6623   0.507   1.556   8.691 -3.2589 -1.7957 -1.0307
   56CHL1  H27C 6624   0.481   1.688   8.821  0.1970 -0.3731  1.0525
   57CHL1    C3 6625   1.632   5.038  10.559  0.7853 -0.4410  0.0056
   57CHL1    H3 6626   1.690   4.978  10.486 -0.6812 -1.2050 -0.5809
   57CHL1    O3 6627   1.653   4.994  10.691 -0.6602 -0.7144 -0.5420
   57CHL1   H3' 6628   1.629   5.066  10.750 -0.5172 -0.2897 -0.9956
   57CHL1    C4 6629   1.681   5.186  10.542 -0.0389  0.3477  0.6306
   57CHL1   H4A 6630   1.627   5.258  10.606 -0.0246 -0.7257  1.8886
   57CHL1   H4B 6631   1.786   5.185  10.578 -0.0512 -1.8610  0.7454
   57CHL1    C5 6632   1.669   5.236  10.399  0.1202  0.5359 -0.2880
   57CHL1    C6 6633   1.775   5.281  10.330 -0.0214 -0.0589  0.3359
   57CHL1    H6 6634   1.878   5.287  10.370  0.6188  0.4387 -1.3173
   57CHL1    C7 6635   1.762   5.328  10.192 -0.1901 -0.1533 -0.5264
   57CHL1   H7A 6636   1.828   5.415  10.169  1.6404 -1.5814 -0.8412
   57CHL1   H7B 6637   1.812   5.250  10.131  1.5699  0.4965  0.0248
   57CHL1    C8 6638   1.615   5.355  10.152 -0.3340  0.1707 -0.7231
   57CHL1    H8 6639   1.581   5.451  10.196  3.0454  1.6290 -0.9951
   57CHL1   C14 6640   1.608   5.357  10.002 -0.7921  0.5169  0.1101
   57CHL1   H14 6641   1.615   5.249   9.978 -0.7359  0.4966  0.2183
   57CHL1   C15 6642   1.709   5.426   9.918  0.4061 -0.2586 -0.5166
   57CHL1  H15A 6643   1.710   5.526   9.967  1.1710 -0.7026  0.3944
   57CHL1  H15B 6644   1.815   5.392   9.925  0.6914  0.4552 -1.1673
   57CHL1   C16 6645   1.651   5.458   9.783 -0.0768  0.3841  0.2318
   57CHL1  H16A 6646   1.667   5.564   9.755  0.4628  0.2359 -0.0379
   57CHL1  H16B 6647   1.707   5.412   9.698 -2.1401  0.1598 -1.0577
   57CHL1   C17 6648   1.510   5.412   9.799 -0.8992  0.0482 -0.0507
   57CHL1   H17 6649   1.520   5.304   9.778  1.9353  0.3258 -0.4418
   57CHL1   C13 6650   1.475   5.405   9.949 -0.1401 -0.3188 -0.0738
   57CHL1   C18 6651   1.431   5.544   9.996  0.1220  0.4337  0.2921
   57CHL1  H18A 6652   1.404   5.554  10.103  0.9992  0.5522  0.5111
   57CHL1  H18B 6653   1.513   5.616   9.978 -0.0840  0.5597 -0.1442
   57CHL1  H18C 6654   1.344   5.581   9.939 -1.0163 -0.7585  1.1861
   57CHL1   C12 6655   1.367   5.294   9.983 -0.3911  0.1070  0.1528
   57CHL1  H12A 6656   1.263   5.320   9.955 -0.3902  0.1865  0.2219
   57CHL1  H12B 6657   1.377   5.201   9.924 -2.7355  0.9419 -1.7065
   57CHL1   C11 6658   1.371   5.261  10.131 -0.3900 -0.3541 -0.6171
   57CHL1  H11A 6659   1.317   5.349  10.173 -1.1244 -1.7708  1.6381
   57CHL1  H11B 6660   1.314   5.167  10.150 -2.8433  1.3423  1.0296
   57CHL1    C9 6661   1.515   5.244  10.195 -0.0906  0.0516  0.3517
   57CHL1    H9 6662   1.550   5.148  10.151  0.4141  0.3436  0.1093
   57CHL1   C10 6663   1.525   5.220  10.345 -0.4219  0.2152  0.1814
   57CHL1   C19 6664   1.434   5.323  10.419  0.4673 -0.0895 -0.2026
   57CHL1  H19A 6665   1.419   5.295  10.525  2.9210  0.4757  0.3660
   57CHL1  H19B 6666   1.486   5.421  10.415 -0.8689  0.6570  0.2687
   57CHL1  H19C 6667   1.334   5.332  10.372  0.4898 -0.9291 -0.4350
   57CHL1    C1 6668   1.465   5.073  10.377 -0.2973  0.4381  0.7525
   57CHL1   H1A 6669   1.357   5.075  10.352  0.1787  1.3143 -1.4784
   57CHL1   H1B 6670   1.515   5.006  10.305 -0.8533  0.2859  0.5047
   57CHL1    C2 6671   1.483   5.026  10.524 -0.8549 -0.6701 -0.4215
   57CHL1   H2A 6672   1.451   4.920  10.528 -3.1436 -0.0169  2.6153
   57CHL1   H2B 6673   1.411   5.074  10.594 -1.9461 -2.6506 -0.1249
   57CHL1   C20 6674   1.420   5.484   9.691 -0.1126 -0.5022 -0.5696
   57CHL1   H20 6675   1.418   5.593   9.716  1.2915 -0.2733 -1.3776
   57CHL1   C21 6676   1.280   5.434   9.708  0.2398  0.4159  0.2696
   57CHL1  H21A 6677   1.218   5.483   9.630  2.1111 -0.7851 -2.0878
   57CHL1  H21B 6678   1.246   5.450   9.813 -3.7803 -0.9178 -0.6413
   57CHL1  H21C 6679   1.282   5.327   9.677  1.0823  0.7634 -0.9554
   57CHL1   C22 6680   1.480   5.475   9.547 -0.1203 -0.6264 -0.6814
   57CHL1  H22A 6681   1.567   5.543   9.542 -0.5770  0.0247  0.1067
   57CHL1  H22B 6682   1.496   5.366   9.530 -1.1487 -0.6577 -1.6341
   57CHL1   C23 6683   1.386   5.500   9.432  0.0396 -0.4393  0.1158
   57CHL1  H23A 6684   1.439   5.472   9.339  0.7068 -1.5822  0.8294
   57CHL1  H23B 6685   1.298   5.433   9.449  0.2497 -0.0986  3.0529
   57CHL1   C24 6686   1.333   5.642   9.415 -0.5178 -0.3290  0.2297
   57CHL1  H24A 6687   1.229   5.640   9.375 -0.6737  1.9834  0.3915
   57CHL1  H24B 6688   1.335   5.697   9.512  2.3643 -1.8866  1.1597
   57CHL1   C25 6689   1.410   5.723   9.312 -0.1089 -0.6897  0.7942
   57CHL1   H25 6690   1.386   5.687   9.209 -0.9900  1.5305  0.1664
   57CHL1   C26 6691   1.350   5.864   9.294 -0.3613 -0.5763  0.1297
   57CHL1  H26A 6692   1.327   5.908   9.394  0.2301  0.0759 -0.0136
   57CHL1  H26B 6693   1.429   5.923   9.244  1.6934 -2.1487  1.3304
   57CHL1  H26C 6694   1.258   5.859   9.231 -1.2592  0.1642  1.3183
   57CHL1   C27 6695   1.559   5.735   9.341  0.1696 -0.6061 -1.0343
   57CHL1  H27A 6696   1.597   5.799   9.259 -0.2094  1.3899  0.2762
   57CHL1  H27B 6697   1.577   5.789   9.436  0.3161 -2.5838  0.1225
   57CHL1  H27C 6698   1.593   5.629   9.346 -0.0008 -0.6176  2.8949
   58CHL1    C3 6699   5.089   3.294  10.357 -0.2030 -0.8139 -0.5638
   58CHL1    H3 6700   5.073   3.185  10.339 -1.3340 -0.4983 -1.6494
   58CHL1    O3 6701   5.082   3.322  10.497  0.2154  0.2176 -1.0538
   58CHL1   H3' 6702   5.130   3.405  10.503 -0.1601  0.4411 -1.1555
   58CHL1    C4 6703   5.219   3.344  10.296  0.4072  0.0939 -0.5514
   58CHL1   H4A 6704   5.246   3.440  10.345 -2.3468  1.2425 -1.1000
   58CHL1   H4B 6705   5.300   3.272  10.320 -2.0123 -2.1994  1.3542
   58CHL1    C5 6706   5.210   3.348  10.145 -0.2448 -0.5860 -0.9642
   58CHL1    C6 6707   5.295   3.282  10.068 -0.4658  0.1240  0.0384
   58CHL1    H6 6708   5.384   3.240  10.118  0.0822  0.9248 -0.2392
   58CHL1    C7 6709   5.295   3.293   9.918 -0.8205 -0.0175  0.3959
   58CHL1   H7A 6710   5.397   3.304   9.877 -1.5443 -1.9141 -2.1685
   58CHL1   H7B 6711   5.250   3.198   9.880 -0.0566 -1.6850  3.3028
   58CHL1    C8 6712   5.210   3.412   9.856  0.2094 -0.2012  0.1538
   58CHL1    H8 6713   5.261   3.510   9.864 -0.3660  0.3639 -2.3848
   58CHL1   C14 6714   5.170   3.385   9.708  0.5346  0.2796  0.0617
   58CHL1   H14 6715   5.098   3.302   9.716 -2.3216  2.5908 -0.1698
   58CHL1   C15 6716   5.272   3.329   9.609 -0.2985  0.0296 -1.2747
   58CHL1  H15A 6717   5.365   3.391   9.607 -1.5100  2.0527  0.2838
   58CHL1  H15B 6718   5.288   3.224   9.641 -0.4187  0.1639 -0.7623
   58CHL1   C16 6719   5.203   3.348   9.472  0.7404 -0.0061 -0.3882
   58CHL1  H16A 6720   5.273   3.393   9.399  1.9670 -0.3396  0.5501
   58CHL1  H16B 6721   5.180   3.247   9.431 -1.3619 -0.1282  0.9263
   58CHL1   C17 6722   5.071   3.424   9.496  0.2613  0.2914  0.3545
   58CHL1   H17 6723   4.989   3.349   9.506 -1.0497  1.8131  1.7322
   58CHL1   C13 6724   5.093   3.490   9.632  0.1704 -0.3058  0.4068
   58CHL1   C18 6725   5.186   3.616   9.613 -0.2703  0.9141 -0.4323
   58CHL1  H18A 6726   5.270   3.584   9.549  0.7000  2.7425 -0.1565
   58CHL1  H18B 6727   5.144   3.694   9.545  0.0047  0.2958 -1.3219
   58CHL1  H18C 6728   5.229   3.645   9.712  0.3236 -3.0781  0.6591
   58CHL1   C12 6729   4.965   3.532   9.719  0.0606 -0.6124 -0.2437
   58CHL1  H12A 6730   4.933   3.633   9.685  2.4017  0.7618  1.4227
   58CHL1  H12B 6731   4.879   3.461   9.712 -0.0245 -0.4651 -0.7549
   58CHL1   C11 6732   4.994   3.535   9.869 -0.8043  0.3245  0.3340
   58CHL1  H11A 6733   5.057   3.627   9.875 -0.9800  0.3780  1.8748
   58CHL1  H11B 6734   4.904   3.560   9.929  0.3470  0.6756  1.9962
   58CHL1    C9 6735   5.079   3.417   9.935  0.3036 -0.5686  0.0837
   58CHL1    H9 6736   5.027   3.321   9.913 -0.6360  0.0373 -0.4129
   58CHL1   C10 6737   5.087   3.427  10.087 -0.1310 -0.2831 -0.1906
   58CHL1   C19 6738   5.091   3.580  10.117 -0.2651 -0.0587 -0.3829
   58CHL1  H19A 6739   5.128   3.598  10.220  1.4085  0.4935 -1.0552
   58CHL1  H19B 6740   5.171   3.631  10.059  0.6106  2.6158  2.8458
   58CHL1  H19C 6741   4.993   3.629  10.101 -0.8128 -0.1030  2.3462
   58CHL1    C1 6742   4.963   3.362  10.147 -0.1348  0.2195  0.0224
   58CHL1   H1A 6743   4.878   3.424  10.112  0.2448  1.4614  1.1988
   58CHL1   H1B 6744   4.950   3.259  10.108 -0.9276  0.0477  0.7059
   58CHL1    C2 6745   4.966   3.365  10.302 -0.6145 -0.7284  0.2007
   58CHL1   H2A 6746   4.877   3.321  10.353 -1.7751  0.2956 -0.8797
   58CHL1   H2B 6747   4.960   3.469  10.341  3.0475  0.4131 -1.8303
   58CHL1   C20 6748   5.033   3.511   9.374 -0.3097  0.5670 -0.3517
   58CHL1   H20 6749   5.114   3.586   9.361 -0.4858  0.4740 -2.1556
   58CHL1   C21 6750   4.907   3.589   9.389 -0.5709 -0.5136 -0.2688
   58CHL1  H21A 6751   4.824   3.515   9.393 -1.5958  0.3922 -2.6882
   58CHL1  H21B 6752   4.882   3.659   9.306 -1.3746 -0.7874 -0.2693
   58CHL1  H21C 6753   4.906   3.651   9.481  2.5703 -1.4596  0.5309
   58CHL1   C22 6754   5.019   3.421   9.249  0.1101 -0.3520  0.3031
   58CHL1  H22A 6755   5.118   3.374   9.235  1.1625  1.2864  1.8744
   58CHL1  H22B 6756   4.947   3.336   9.260  0.5759 -1.0450 -1.6409
   58CHL1   C23 6757   4.985   3.504   9.124  0.1274 -0.9293 -0.0036
   58CHL1  H23A 6758   4.882   3.546   9.131 -0.0556 -1.4920  0.9130
   58CHL1  H23B 6759   5.054   3.591   9.116 -1.6422  0.4162 -1.6477
   58CHL1   C24 6760   4.988   3.425   8.991  0.3306 -0.4769  0.5300
   58CHL1  H24A 6761   5.084   3.373   8.969  1.5207  2.2930 -1.3216
   58CHL1  H24B 6762   4.907   3.349   8.987 -0.6629  0.5705  0.2383
   58CHL1   C25 6763   4.977   3.517   8.862 -0.4094 -0.0222  0.4079
   58CHL1   H25 6764   4.893   3.587   8.877  0.6215  1.0537  1.2885
   58CHL1   C26 6765   5.108   3.592   8.835 -0.8679  0.1212  0.4003
   58CHL1  H26A 6766   5.116   3.672   8.912  0.3458  0.4248 -0.0132
   58CHL1  H26B 6767   5.188   3.515   8.823 -1.2222 -0.2926  0.6495
   58CHL1  H26C 6768   5.109   3.646   8.738  0.1600 -1.2349 -0.4009
   58CHL1   C27 6769   4.949   3.431   8.736  0.3201  0.1242  0.2825
   58CHL1  H27A 6770   5.036   3.364   8.719  0.4322  0.8596 -2.6190
   58CHL1  H27B 6771   4.856   3.371   8.725  0.3331  0.2737 -0.8179
   58CHL1  H27C 6772   4.968   3.500   8.651 -0.0073  0.8125  0.7589
   59CHL1    C3 6773   4.385   2.587  10.525 -0.1489  0.5369  0.1750
   59CHL1    H3 6774   4.428   2.487  10.502  2.2329  1.4163  0.4317
   59CHL1    O3 6775   4.374   2.593  10.667  0.2758 -0.3176 -0.5517
   59CHL1   H3' 6776   4.298   2.538  10.686  0.9059 -0.5685  1.5163
   59CHL1    C4 6777   4.488   2.687  10.478 -0.0145 -0.5031 -0.2025
   59CHL1   H4A 6778   4.475   2.785  10.527  1.2257 -0.2624 -0.3263
   59CHL1   H4B 6779   4.583   2.643  10.516 -0.7964 -0.9317  1.3342
   59CHL1    C5 6780   4.495   2.707  10.325 -0.2573  0.1366 -0.7320
   59CHL1    C6 6781   4.615   2.702  10.261 -0.2334  0.3915 -0.5043
   59CHL1    H6 6782   4.708   2.702  10.321 -0.1928  0.2266 -0.5672
   59CHL1    C7 6783   4.620   2.714  10.112  0.3691 -1.0781 -0.2148
   59CHL1   H7A 6784   4.694   2.792  10.085 -0.2454  0.4682  2.2668
   59CHL1   H7B 6785   4.662   2.627  10.056  1.8656 -2.4936  2.8783
   59CHL1    C8 6786   4.488   2.762  10.041 -0.2310 -0.1170  0.0902
   59CHL1    H8 6787   4.471   2.870  10.056 -0.0910 -0.2540  1.2829
   59CHL1   C14 6788   4.492   2.726   9.892  0.5015  0.8543  0.4207
   59CHL1   H14 6789   4.482   2.616   9.884  0.7449  0.7246  1.6580
   59CHL1   C15 6790   4.623   2.774   9.815 -0.3862  0.4748 -0.3335
   59CHL1  H15A 6791   4.647   2.879   9.841 -0.0274  0.2701  0.1799
   59CHL1  H15B 6792   4.712   2.711   9.839 -0.0991  1.3796  1.0824
   59CHL1   C16 6793   4.584   2.767   9.663  0.1140  0.2800 -0.6154
   59CHL1  H16A 6794   4.615   2.858   9.608  2.3741 -1.6362 -2.7020
   59CHL1  H16B 6795   4.638   2.684   9.612 -0.9490 -1.5428  1.0535
   59CHL1   C17 6796   4.430   2.740   9.666 -0.5090 -0.2904  0.0805
   59CHL1   H17 6797   4.433   2.629   9.661  0.8564 -0.3447  1.4597
   59CHL1   C13 6798   4.376   2.768   9.809  0.6312 -0.6683 -0.0584
   59CHL1   C18 6799   4.355   2.923   9.821  0.2437 -0.1493  0.3361
   59CHL1  H18A 6800   4.438   2.973   9.767  0.2855 -0.0728  0.4720
   59CHL1  H18B 6801   4.255   2.950   9.780 -0.9672 -2.7860  1.2864
   59CHL1  H18C 6802   4.349   2.971   9.921 -1.0010  1.6904 -0.5626
   59CHL1   C12 6803   4.252   2.691   9.853  0.5441  0.6921 -0.3094
   59CHL1  H12A 6804   4.158   2.718   9.799 -0.1790 -1.8392 -0.4500
   59CHL1  H12B 6805   4.274   2.584   9.832 -2.5471  0.1357 -1.2083
   59CHL1   C11 6806   4.244   2.712  10.008  0.0763  0.3925  0.6593
   59CHL1  H11A 6807   4.194   2.811  10.015 -1.5978 -0.3778  0.1725
   59CHL1  H11B 6808   4.172   2.643  10.057  0.2675  0.9143  1.6921
   59CHL1    C9 6809   4.372   2.690  10.097  0.3531  0.5490 -0.1726
   59CHL1    H9 6810   4.385   2.580  10.092  1.0021  0.5968  0.3815
   59CHL1   C10 6811   4.360   2.712  10.248  0.0548 -0.4276 -0.2985
   59CHL1   C19 6812   4.304   2.859  10.274  0.2558  0.6557 -0.0624
   59CHL1  H19A 6813   4.211   2.870  10.215 -1.5568 -0.9011  2.3428
   59CHL1  H19B 6814   4.283   2.874  10.382  1.3887 -0.9793  0.4213
   59CHL1  H19C 6815   4.380   2.938  10.252  1.4545  0.1458  2.0214
   59CHL1    C1 6816   4.261   2.603  10.308 -0.7162  0.5193  0.5536
   59CHL1   H1A 6817   4.161   2.604  10.260 -0.8294 -0.8846  0.6929
   59CHL1   H1B 6818   4.315   2.508  10.288  1.9578  2.4074 -1.9480
   59CHL1    C2 6819   4.242   2.603  10.463  0.7173 -0.5200 -0.7350
   59CHL1   H2A 6820   4.176   2.516  10.483  2.9854 -1.6951  2.6938
   59CHL1   H2B 6821   4.193   2.698  10.491  0.6417 -0.2437 -1.7627
   59CHL1   C20 6822   4.350   2.808   9.550 -0.4102 -0.1606  0.3247
   59CHL1   H20 6823   4.369   2.918   9.550 -0.8735 -0.0563 -1.4824
   59CHL1   C21 6824   4.204   2.759   9.542 -0.6958  0.2491 -0.2486
   59CHL1  H21A 6825   4.150   2.796   9.632 -1.6509 -1.6142  0.0049
   59CHL1  H21B 6826   4.191   2.649   9.533  0.2144  0.2024 -1.1942
   59CHL1  H21C 6827   4.156   2.810   9.456  1.3527 -0.0243 -1.6214
   59CHL1   C22 6828   4.414   2.776   9.405 -0.2249 -0.2213 -0.2447
   59CHL1  H22A 6829   4.524   2.778   9.420 -0.3464  0.7731  0.6230
   59CHL1  H22B 6830   4.393   2.671   9.375  0.9032 -0.9048  1.2411
   59CHL1   C23 6831   4.377   2.865   9.287 -0.0749  0.3234  0.1920
   59CHL1  H23A 6832   4.267   2.856   9.274  0.1461 -0.8392 -1.1705
   59CHL1  H23B 6833   4.401   2.972   9.303 -4.0890  1.0925  2.3087
   59CHL1   C24 6834   4.449   2.804   9.156  0.7377  0.1754 -0.5529
   59CHL1  H24A 6835   4.556   2.774   9.164  0.9254  0.0523 -2.9394
   59CHL1  H24B 6836   4.398   2.706   9.143  0.2045  0.1674  1.2412
   59CHL1   C25 6837   4.433   2.890   9.029  0.3695 -0.2010  0.1717
   59CHL1   H25 6838   4.478   2.835   8.943 -1.0062 -2.7859  1.0142
   59CHL1   C26 6839   4.289   2.911   8.991 -0.0192  0.0721 -0.2949
   59CHL1  H26A 6840   4.223   2.822   8.982 -0.4570  0.2689  0.8008
   59CHL1  H26B 6841   4.231   2.981   9.055 -0.6684 -0.6119 -0.1080
   59CHL1  H26C 6842   4.286   2.966   8.894  0.7858  2.7457  1.1176
   59CHL1   C27 6843   4.517   3.024   9.041  0.4514  0.0791 -0.7440
   59CHL1  H27A 6844   4.552   3.063   8.943  1.1202  0.7350 -0.2551
   59CHL1  H27B 6845   4.470   3.106   9.099  2.5275  0.5727  0.3460
   59CHL1  H27C 6846   4.600   2.995   9.110 -0.2168 -0.3277 -0.1042
   60CHL1    C3 6847   5.362   0.332  10.467  0.8412 -0.8623 -0.3921
   60CHL1    H3 6848   5.292   0.248  10.448  1.2381 -1.0259 -1.1674
   60CHL1    O3 6849   5.415   0.327  10.598  0.1333 -0.0216  0.0361
   60CHL1   H3' 6850   5.481   0.397  10.603 -0.8278  0.9109  0.0443
   60CHL1    C4 6851   5.482   0.312  10.365 -0.7975  0.1434 -0.6499
   60CHL1   H4A 6852   5.557   0.393  10.380  1.5816 -1.7006 -1.8875
   60CHL1   H4B 6853   5.539   0.223  10.397  0.9975  2.0462  1.8394
   60CHL1    C5 6854   5.443   0.319  10.221  0.3906 -0.5305  0.7900
   60CHL1    C6 6855   5.483   0.224  10.140 -0.8003  0.2392 -0.9105
   60CHL1    H6 6856   5.544   0.140  10.175 -2.8702 -0.8553  0.2706
   60CHL1    C7 6857   5.446   0.212   9.997  0.2175  0.6986 -0.1290
   60CHL1   H7A 6858   5.538   0.187   9.939  0.8953 -0.0119  1.2081
   60CHL1   H7B 6859   5.369   0.132   9.989  3.0827 -2.2495 -0.5421
   60CHL1    C8 6860   5.380   0.346   9.951 -0.5021 -0.0456  0.2085
   60CHL1    H8 6861   5.463   0.415   9.924  0.2059 -0.6426  0.8100
   60CHL1   C14 6862   5.298   0.320   9.828  0.2169  0.2262  0.7368
   60CHL1   H14 6863   5.214   0.252   9.854 -1.7103  1.0769 -2.5870
   60CHL1   C15 6864   5.366   0.256   9.710 -0.3102  0.3297 -0.4592
   60CHL1  H15A 6865   5.467   0.295   9.684  0.3029 -0.5771  0.4454
   60CHL1  H15B 6866   5.359   0.147   9.731 -0.7208  0.7308  1.7074
   60CHL1   C16 6867   5.280   0.288   9.592  0.2209 -1.0680 -0.2035
   60CHL1  H16A 6868   5.341   0.330   9.510 -1.1183  0.2739 -0.5481
   60CHL1  H16B 6869   5.230   0.194   9.559 -0.9656 -0.6623  0.3539
   60CHL1   C17 6870   5.169   0.388   9.638 -0.0170  0.1020  0.0941
   60CHL1   H17 6871   5.086   0.319   9.663  1.1713 -1.4580 -0.0504
   60CHL1   C13 6872   5.222   0.441   9.771  0.4578 -0.5719  0.3291
   60CHL1   C18 6873   5.324   0.552   9.736  0.3638  0.2994 -0.2366
   60CHL1  H18A 6874   5.388   0.520   9.651 -0.0548  1.7450 -1.1454
   60CHL1  H18B 6875   5.263   0.636   9.695  0.1337  0.6405  0.7834
   60CHL1  H18C 6876   5.380   0.586   9.825  2.0294  1.4980 -1.6696
   60CHL1   C12 6877   5.125   0.489   9.879 -0.4306 -0.6798  0.7020
   60CHL1  H12A 6878   5.069   0.578   9.843  0.7669 -0.5104 -0.8566
   60CHL1  H12B 6879   5.058   0.401   9.890 -0.9357 -0.4143 -0.1179
   60CHL1   C11 6880   5.204   0.529  10.004  0.0223 -0.0371  0.5724
   60CHL1  H11A 6881   5.259   0.623   9.980  0.8691  0.4880  4.0299
   60CHL1  H11B 6882   5.133   0.557  10.085 -2.5826  0.2821 -1.6634
   60CHL1    C9 6883   5.288   0.410  10.059 -0.3460 -0.4962  0.3083
   60CHL1    H9 6884   5.212   0.332  10.080 -0.1833 -0.8576 -0.4175
   60CHL1   C10 6885   5.353   0.447  10.198 -0.4951  0.8612 -0.3488
   60CHL1   C19 6886   5.448   0.562  10.183 -0.8897 -0.9112  0.7520
   60CHL1  H19A 6887   5.388   0.655  10.195 -0.0649 -0.4056  1.0277
   60CHL1  H19B 6888   5.523   0.570  10.265 -0.1312  0.7083 -0.0538
   60CHL1  H19C 6889   5.513   0.551  10.094 -1.1927 -1.0543  0.5482
   60CHL1    C1 6890   5.243   0.475  10.302  0.1450  0.1729  0.1111
   60CHL1   H1A 6891   5.187   0.570  10.287  1.1498  0.4085 -2.7302
   60CHL1   H1B 6892   5.160   0.401  10.293  1.3093 -1.1091 -0.4878
   60CHL1    C2 6893   5.294   0.467  10.448 -0.1244 -0.7135 -0.4574
   60CHL1   H2A 6894   5.208   0.477  10.517  1.2112 -0.8286  1.2899
   60CHL1   H2B 6895   5.358   0.557  10.462 -1.5641  0.3263 -0.3912
   60CHL1   C20 6896   5.106   0.481   9.532  0.1687  1.1067  0.6388
   60CHL1   H20 6897   5.185   0.558   9.517  2.0540 -1.0417 -1.2760
   60CHL1   C21 6898   4.972   0.544   9.579  0.3446  0.5598  0.1749
   60CHL1  H21A 6899   4.921   0.471   9.645  1.1875  1.5038  1.9295
   60CHL1  H21B 6900   4.907   0.565   9.491  0.2099  1.1508  0.4039
   60CHL1  H21C 6901   4.998   0.633   9.640  0.5120 -0.2777  1.3502
   60CHL1   C22 6902   5.091   0.401   9.398 -0.5130  0.0353 -0.4727
   60CHL1  H22A 6903   5.191   0.380   9.356  0.2816  0.5604  1.0986
   60CHL1  H22B 6904   5.036   0.306   9.415 -1.5999  0.8328  0.6527
   60CHL1   C23 6905   5.014   0.475   9.286  0.0242 -0.6806  0.1022
   60CHL1  H23A 6906   4.905   0.480   9.305  0.2516  0.3846  1.3087
   60CHL1  H23B 6907   5.053   0.579   9.289 -1.4447  0.0949 -2.9616
   60CHL1   C24 6908   5.055   0.410   9.155  0.1371 -0.7664  0.7225
   60CHL1  H24A 6909   5.159   0.435   9.126 -0.5163 -0.2234 -1.3326
   60CHL1  H24B 6910   5.048   0.299   9.163  1.6942 -0.7886  2.4627
   60CHL1   C25 6911   4.975   0.455   9.029 -0.2054  0.3838 -0.2227
   60CHL1   H25 6912   4.970   0.566   9.027 -0.7211  0.5658  3.6174
   60CHL1   C26 6913   5.038   0.405   8.905 -0.1423 -0.0403 -0.2231
   60CHL1  H26A 6914   4.977   0.427   8.815 -0.4133  1.1092  0.2257
   60CHL1  H26B 6915   5.133   0.459   8.883 -0.3655  1.0502  1.2825
   60CHL1  H26C 6916   5.063   0.297   8.901  1.2933  0.2805 -0.3876
   60CHL1   C27 6917   4.835   0.402   9.035 -0.0161  0.5490 -0.4063
   60CHL1  H27A 6918   4.778   0.441   9.122  0.0406 -0.3952  0.0717
   60CHL1  H27B 6919   4.788   0.425   8.938 -1.0258  1.6885  0.3338
   60CHL1  H27C 6920   4.834   0.291   9.043  0.5068  0.6629  2.0964
   61CHL1    C3 6921   3.006   1.076  10.501  0.4033  0.1498 -0.8414
   61CHL1    H3 6922   2.923   1.007  10.475 -0.7256  1.3010 -0.4355
   61CHL1    O3 6923   3.021   1.090  10.645  0.1946  0.0010  0.2913
   61CHL1   H3' 6924   3.094   1.152  10.650  0.8247 -0.2060 -3.6332
   61CHL1    C4 6925   3.140   1.038  10.444  0.4647 -0.3001  0.0584
   61CHL1   H4A 6926   3.200   1.127  10.471 -0.4626  0.5116 -0.4736
   61CHL1   H4B 6927   3.184   0.953  10.499  1.7540  1.5078  1.9571
   61CHL1    C5 6928   3.143   1.029  10.285  0.8212  0.7295 -0.2406
   61CHL1    C6 6929   3.199   0.924  10.223 -0.4364 -0.0671  0.1759
   61CHL1    H6 6930   3.257   0.848  10.279 -1.0242  0.2267  1.2023
   61CHL1    C7 6931   3.215   0.917  10.072  0.2738  0.4570  0.6451
   61CHL1   H7A 6932   3.317   0.884  10.042  0.7196  0.5577  1.9912
   61CHL1   H7B 6933   3.132   0.845  10.052 -2.7120  3.0640  2.7944
   61CHL1    C8 6934   3.182   1.049   9.996 -0.1183 -0.2043  0.0096
   61CHL1    H8 6935   3.272   1.115  10.001 -0.1987 -0.0061 -1.1126
   61CHL1   C14 6936   3.148   1.020   9.847 -0.3848  0.3015 -0.3993
   61CHL1   H14 6937   3.054   0.961   9.854  0.5291 -1.2637 -0.7858
   61CHL1   C15 6938   3.249   0.934   9.759  0.5491 -0.2683 -0.7876
   61CHL1  H15A 6939   3.354   0.968   9.773  0.4319 -0.2517  0.1041
   61CHL1  H15B 6940   3.242   0.827   9.785  0.3148 -0.6116 -2.1597
   61CHL1   C16 6941   3.191   0.953   9.618 -0.0278 -0.0716  0.4476
   61CHL1  H16A 6942   3.271   0.978   9.545  1.1560  0.0759  1.7567
   61CHL1  H16B 6943   3.134   0.865   9.582 -0.5548  0.9325 -1.3169
   61CHL1   C17 6944   3.091   1.070   9.626  0.4339 -0.1395 -0.2001
   61CHL1   H17 6945   2.992   1.024   9.650 -0.1131  0.2683 -1.5749
   61CHL1   C13 6946   3.116   1.142   9.758 -0.2358 -0.5642  0.0198
   61CHL1   C18 6947   3.242   1.235   9.749 -0.2328  0.4995  0.2023
   61CHL1  H18A 6948   3.325   1.193   9.688 -0.1839  1.9713 -0.8053
   61CHL1  H18B 6949   3.221   1.337   9.710  1.0661  0.3281 -1.0298
   61CHL1  H18C 6950   3.294   1.237   9.847  2.3646 -1.5913 -1.0267
   61CHL1   C12 6951   2.995   1.218   9.827 -0.1773 -1.2603 -0.4115
   61CHL1  H12A 6952   2.996   1.313   9.770 -0.1045  0.0610  1.6910
   61CHL1  H12B 6953   2.912   1.153   9.790  0.8110 -0.5092 -4.4640
   61CHL1   C11 6954   3.009   1.246   9.977 -0.1930  0.4731  0.3800
   61CHL1  H11A 6955   3.079   1.332   9.970  1.4266 -0.7886  0.3170
   61CHL1  H11B 6956   2.911   1.281  10.015 -1.2064 -0.7646 -0.9664
   61CHL1    C9 6957   3.060   1.120  10.056 -0.0722 -0.5112 -0.1654
   61CHL1    H9 6958   2.975   1.048  10.050 -0.2612 -0.2572 -0.5975
   61CHL1   C10 6959   3.080   1.147  10.208 -0.2627  0.3942 -0.2707
   61CHL1   C19 6960   3.168   1.277  10.217  0.5982  0.2473  0.3835
   61CHL1  H19A 6961   3.190   1.303  10.323  0.1360 -0.1310  0.5749
   61CHL1  H19B 6962   3.265   1.246  10.171  0.6726 -0.6744  1.1179
   61CHL1  H19C 6963   3.127   1.371  10.175  1.7534  0.8633  0.5963
   61CHL1    C1 6964   2.944   1.188  10.278  0.6754  0.0496  0.1626
   61CHL1   H1A 6965   2.902   1.285  10.243  1.2518  0.2290 -0.0465
   61CHL1   H1B 6966   2.872   1.104  10.266  0.3347 -0.5919  4.8022
   61CHL1    C2 6967   2.960   1.206  10.433  0.6021  0.4991  0.2099
   61CHL1   H2A 6968   2.869   1.247  10.481  1.6360  0.3436  2.4078
   61CHL1   H2B 6969   3.037   1.277  10.471  0.0340 -0.2973  3.0872
   61CHL1   C20 6970   3.078   1.145   9.493  0.2903  0.2227  0.7991
   61CHL1   H20 6971   3.181   1.185   9.476  0.1862  0.2078  0.1011
   61CHL1   C21 6972   2.986   1.263   9.496  0.1053 -0.0354  0.3101
   61CHL1  H21A 6973   3.008   1.343   9.570  0.1137 -0.0371  0.3097
   61CHL1  H21B 6974   2.877   1.241   9.492 -0.1924  1.5626 -1.7220
   61CHL1  H21C 6975   3.002   1.311   9.397 -0.0797 -0.8118 -0.1049
   61CHL1   C22 6976   3.034   1.057   9.376 -0.6647 -0.7296 -0.4462
   61CHL1  H22A 6977   3.099   0.967   9.373  0.1421 -0.2113  0.7098
   61CHL1  H22B 6978   2.928   1.031   9.397 -0.8760 -0.1030 -0.7181
   61CHL1   C23 6979   3.044   1.120   9.236  0.3432 -0.2620 -0.2672
   61CHL1  H23A 6980   2.948   1.158   9.195  0.5233  1.6583  0.9914
   61CHL1  H23B 6981   3.120   1.200   9.239 -1.3550  1.4339 -0.8366
   61CHL1   C24 6982   3.086   1.012   9.134  0.2187  0.1899 -0.8343
   61CHL1  H24A 6983   3.185   0.970   9.165  1.4263  2.9572 -0.6366
   61CHL1  H24B 6984   3.006   0.935   9.144 -0.0817  0.7001  1.3223
   61CHL1   C25 6985   3.090   1.046   8.987  0.6555  0.3969 -0.4880
   61CHL1   H25 6986   2.993   1.091   8.957  0.7474  1.4252  0.6733
   61CHL1   C26 6987   3.200   1.151   8.957  0.4717 -0.2991 -0.1579
   61CHL1  H26A 6988   3.192   1.239   9.025  0.0364 -0.5181  0.0743
   61CHL1  H26B 6989   3.302   1.109   8.976 -0.6794 -1.8731  3.4661
   61CHL1  H26C 6990   3.183   1.192   8.855 -1.9509 -2.5696 -0.7446
   61CHL1   C27 6991   3.104   0.916   8.901 -0.2279 -0.7738 -0.4385
   61CHL1  H27A 6992   3.028   0.840   8.928  0.6362 -2.2490 -1.9301
   61CHL1  H27B 6993   3.078   0.942   8.795  0.6612 -0.2594 -0.5412
   61CHL1  H27C 6994   3.207   0.881   8.920 -0.0346  0.3056  0.6654
   62CHL1    C3 6995   0.234   5.195  10.217 -0.5116 -0.2274  0.0722
   62CHL1    H3 6996   0.126   5.188  10.194  0.1576 -0.5810 -3.5063
   62CHL1    O3 6997   0.258   5.229  10.351 -0.5690  0.3007  0.6800
   62CHL1   H3' 6998   0.348   5.201  10.371 -0.5978 -1.7901 -1.5879
   62CHL1    C4 6999   0.303   5.066  10.183 -0.2940  0.3978  0.5806
   62CHL1   H4A 7000   0.412   5.084  10.194 -0.5060  1.3802  1.2042
   62CHL1   H4B 7001   0.283   4.981  10.252  0.8678 -1.0492 -0.7799
   62CHL1    C5 7002   0.279   5.039  10.034 -0.3526  0.8723  0.1872
   62CHL1    C6 7003   0.231   4.921   9.992  0.6096 -0.8305  0.3770
   62CHL1    H6 7004   0.213   4.841  10.066  0.2474 -1.8654 -0.8077
   62CHL1    C7 7005   0.217   4.888   9.847  0.6565  0.2681  0.1565
   62CHL1   H7A 7006   0.244   4.780   9.848 -1.2116 -0.2220  0.8924
   62CHL1   H7B 7007   0.111   4.888   9.813  1.4199  1.5112 -2.5524
   62CHL1    C8 7008   0.297   4.979   9.745  0.6772  0.7965  0.4573
   62CHL1    H8 7009   0.397   4.933   9.755 -0.1881 -1.0331  1.2477
   62CHL1   C14 7010   0.251   4.963   9.602  0.1459 -0.4234  0.6208
   62CHL1   H14 7011   0.144   4.989   9.587  0.2637 -0.4324 -0.2861
   62CHL1   C15 7012   0.248   4.820   9.539 -0.6034 -0.3639  0.0442
   62CHL1  H15A 7013   0.344   4.768   9.552 -0.7365 -0.5715  0.2029
   62CHL1  H15B 7014   0.170   4.747   9.570  1.3105 -1.8055  1.7050
   62CHL1   C16 7015   0.221   4.853   9.391  0.0894 -0.3248 -0.1361
   62CHL1  H16A 7016   0.302   4.799   9.338  1.1750  0.1846  0.9581
   62CHL1  H16B 7017   0.117   4.820   9.368  0.3345 -3.0889  2.2415
   62CHL1   C17 7018   0.228   5.007   9.366 -0.4407 -0.7231  0.5329
   62CHL1   H17 7019   0.125   5.048   9.371 -0.6734 -0.9586 -1.3594
   62CHL1   C13 7020   0.307   5.055   9.484 -0.9243 -0.3788 -0.4499
   62CHL1   C18 7021   0.453   5.023   9.451  0.0143  0.7199 -0.1779
   62CHL1  H18A 7022   0.484   5.102   9.379 -2.3329  0.5482 -1.4942
   62CHL1  H18B 7023   0.506   5.047   9.545 -2.0897  0.9066  1.0116
   62CHL1  H18C 7024   0.477   4.917   9.428 -1.3391  0.3990 -0.2296
   62CHL1   C12 7025   0.286   5.200   9.538  0.3094 -0.1768  0.2259
   62CHL1  H12A 7026   0.349   5.262   9.471  1.5236 -0.1842  1.3250
   62CHL1  H12B 7027   0.179   5.229   9.533  0.6789  1.7094  1.9742
   62CHL1   C11 7028   0.346   5.213   9.685 -0.3667  0.6511  0.1616
   62CHL1  H11A 7029   0.456   5.200   9.671 -0.5756  0.2859 -1.2776
   62CHL1  H11B 7030   0.321   5.315   9.719 -0.6910  0.3352  0.8910
   62CHL1    C9 7031   0.283   5.119   9.790  0.0188 -0.5457  0.6470
   62CHL1    H9 7032   0.173   5.138   9.789  0.2992  1.6782 -2.3754
   62CHL1   C10 7033   0.324   5.148   9.943  0.2000  0.3627  0.3177
   62CHL1   C19 7034   0.479   5.162   9.936  0.4211  0.9469  0.1468
   62CHL1  H19A 7035   0.528   5.073   9.892  1.8158  0.7316  2.0444
   62CHL1  H19B 7036   0.498   5.258   9.882 -0.2640  2.5052  2.4903
   62CHL1  H19C 7037   0.529   5.178  10.034  1.1029  1.1167 -0.2220
   62CHL1    C1 7038   0.265   5.286   9.984  0.5400  0.0029  0.1080
   62CHL1   H1A 7039   0.304   5.355   9.905  1.0171 -2.1028 -1.5943
   62CHL1   H1B 7040   0.154   5.283   9.978  0.4711  0.2441  1.0631
   62CHL1    C2 7041   0.288   5.315  10.133  0.5707  0.3792  0.6049
   62CHL1   H2A 7042   0.230   5.407  10.154  0.0256  0.5083 -1.3044
   62CHL1   H2B 7043   0.396   5.329  10.157  0.9758 -0.0128 -0.9220
   62CHL1   C20 7044   0.271   5.046   9.220 -0.6504 -0.6376  1.0119
   62CHL1   H20 7045   0.376   5.011   9.209 -0.3598  0.5426 -0.2344
   62CHL1   C21 7046   0.269   5.199   9.205 -0.2738 -0.1283  0.9258
   62CHL1  H21A 7047   0.167   5.236   9.229  0.8783  1.8752  3.0940
   62CHL1  H21B 7048   0.287   5.233   9.100 -1.6858  0.2677  0.7948
   62CHL1  H21C 7049   0.329   5.257   9.278 -0.1018 -1.0448  1.5275
   62CHL1   C22 7050   0.179   4.978   9.113  0.0159  0.5599  0.2449
   62CHL1  H22A 7051   0.174   4.867   9.120  1.1782  0.4472 -0.5450
   62CHL1  H22B 7052   0.073   5.006   9.131  0.4271 -0.3882  5.8560
   62CHL1   C23 7053   0.215   5.020   8.970  0.9430 -0.0582  0.1459
   62CHL1  H23A 7054   0.203   5.129   8.955 -1.3029 -0.1648  0.7537
   62CHL1  H23B 7055   0.322   4.995   8.951  0.9115 -0.7849  0.8622
   62CHL1   C24 7056   0.125   4.960   8.854 -0.2374 -0.3292 -0.7200
   62CHL1  H24A 7057   0.128   4.849   8.854  2.0645 -0.3141 -0.4601
   62CHL1  H24B 7058   0.027   4.995   8.892  0.9535 -0.6247  3.0891
   62CHL1   C25 7059   0.171   5.016   8.724  0.2766  0.0253  0.6215
   62CHL1   H25 7060   0.183   5.127   8.724 -0.0148  0.1165  3.0719
   62CHL1   C26 7061   0.302   4.960   8.671 -0.3694 -0.1500 -0.6327
   62CHL1  H26A 7062   0.386   5.021   8.711 -0.8455 -0.1382  0.3769
   62CHL1  H26B 7063   0.316   4.852   8.692 -0.4158 -0.2322 -1.0255
   62CHL1  H26C 7064   0.301   4.965   8.560  1.0255  2.9241 -0.6090
   62CHL1   C27 7065   0.065   4.993   8.616  0.2949 -0.4166  0.1469
   62CHL1  H27A 7066  -0.041   5.008   8.646  0.0446  0.3734 -1.0471
   62CHL1  H27B 7067   0.094   5.055   8.528 -2.4800 -0.3958 -0.8478
   62CHL1  H27C 7068   0.075   4.887   8.587  2.1962 -1.1149  2.9053
   63CHL1    C3 7069   3.703   1.220  10.624  0.1640  0.2989 -0.1158
   63CHL1    H3 7070   3.632   1.300  10.593  1.0769  0.9741 -0.4798
   63CHL1    O3 7071   3.707   1.201  10.765 -0.1214 -0.8023 -0.6453
   63CHL1   H3' 7072   3.705   1.106  10.772 -2.7366 -0.7852  0.2751
   63CHL1    C4 7073   3.649   1.091  10.551  0.2844  0.1396 -0.2659
   63CHL1   H4A 7074   3.695   0.995  10.583  0.3840  0.3791  0.3300
   63CHL1   H4B 7075   3.547   1.075  10.593 -0.5431  0.0288 -2.2245
   63CHL1    C5 7076   3.652   1.091  10.405 -0.2725 -0.1375  0.7880
   63CHL1    C6 7077   3.546   1.067  10.333  0.1664 -0.2001 -0.3329
   63CHL1    H6 7078   3.449   1.048  10.382  0.6420 -1.0151  0.3003
   63CHL1    C7 7079   3.541   1.068  10.180  0.1474 -0.2016 -0.1412
   63CHL1   H7A 7080   3.477   0.985  10.142 -0.1022  0.6936 -1.7424
   63CHL1   H7B 7081   3.490   1.162  10.153  1.3112  0.6675  0.6076
   63CHL1    C8 7082   3.685   1.078  10.123  0.0665  0.1689 -0.3204
   63CHL1    H8 7083   3.715   0.972  10.136 -0.6205 -0.4662 -3.2524
   63CHL1   C14 7084   3.682   1.107   9.969 -0.2956 -0.4233  0.4514
   63CHL1   H14 7085   3.640   1.209   9.965  1.6853  0.4622  1.1077
   63CHL1   C15 7086   3.587   1.019   9.884 -1.1997  0.0385 -0.3124
   63CHL1  H15A 7087   3.596   0.912   9.913  1.8547 -0.1092 -1.3978
   63CHL1  H15B 7088   3.486   1.058   9.907 -1.9813 -1.8317 -0.4023
   63CHL1   C16 7089   3.642   1.031   9.743 -0.6211 -0.3533 -0.2364
   63CHL1  H16A 7090   3.660   0.926   9.710  0.1200 -0.6078  0.8865
   63CHL1  H16B 7091   3.565   1.073   9.675  1.1161  0.0456 -2.0588
   63CHL1   C17 7092   3.769   1.119   9.750  0.1487  0.0127  0.5433
   63CHL1   H17 7093   3.724   1.220   9.738  0.2240 -0.1163 -0.9037
   63CHL1   C13 7094   3.818   1.104   9.899 -0.1629 -0.2688  0.1380
   63CHL1   C18 7095   3.885   0.968   9.932 -0.3364  0.5243  0.0965
   63CHL1  H18A 7096   3.988   0.949   9.893 -0.9610 -0.9564 -0.9097
   63CHL1  H18B 7097   3.889   0.956  10.042  1.1750 -1.0693 -0.0807
   63CHL1  H18C 7098   3.816   0.886   9.903 -0.9464  0.4034  1.8123
   63CHL1   C12 7099   3.899   1.217   9.973 -0.0148 -0.2996  0.3253
   63CHL1  H12A 7100   4.006   1.216   9.942  0.8924  0.7133  3.0782
   63CHL1  H12B 7101   3.856   1.312   9.934  0.2837  0.4142  1.6471
   63CHL1   C11 7102   3.903   1.221  10.124  0.7584  0.2325 -0.2146
   63CHL1  H11A 7103   3.981   1.150  10.158 -2.8369 -2.1384  4.1050
   63CHL1  H11B 7104   3.920   1.325  10.159  0.1256 -0.0518  0.9706
   63CHL1    C9 7105   3.771   1.176  10.198  0.3999 -0.0897  0.1371
   63CHL1    H9 7106   3.710   1.269  10.200  2.4898  1.3514  1.1787
   63CHL1   C10 7107   3.788   1.137  10.346  0.0309  0.2571  0.2323
   63CHL1   C19 7108   3.891   1.024  10.360  0.3150  0.4094  0.0172
   63CHL1  H19A 7109   3.913   0.993  10.464  1.3993  0.3642 -0.2169
   63CHL1  H19B 7110   3.866   0.936  10.296 -0.6030  1.7879 -1.5944
   63CHL1  H19C 7111   3.987   1.066  10.322  0.0052 -0.0556 -1.3612
   63CHL1    C1 7112   3.837   1.264  10.418  0.5753  0.1518  0.2296
   63CHL1   H1A 7113   3.933   1.293  10.369  0.7579  0.2498  0.6400
   63CHL1   H1B 7114   3.763   1.340  10.387  1.5111  0.6660 -0.8580
   63CHL1    C2 7115   3.843   1.257  10.571  1.0037  0.6565 -0.7446
   63CHL1   H2A 7116   3.866   1.359  10.609  1.2954 -0.0871  1.1593
   63CHL1   H2B 7117   3.921   1.187  10.608  0.6243  0.3236 -0.5626
   63CHL1   C20 7118   3.871   1.100   9.631  0.3128 -0.1640  0.8545
   63CHL1   H20 7119   3.918   1.000   9.644 -0.6130 -1.2140 -2.7435
   63CHL1   C21 7120   3.980   1.208   9.637  0.3350  0.3907  0.3817
   63CHL1  H21A 7121   4.038   1.194   9.544 -0.8229 -2.3976 -0.0331
   63CHL1  H21B 7122   4.041   1.185   9.727 -0.2453  1.7008  1.1448
   63CHL1  H21C 7123   3.933   1.309   9.640  1.0479  0.8606 -2.0231
   63CHL1   C22 7124   3.810   1.075   9.493  0.7877 -0.5556  0.1089
   63CHL1  H22A 7125   3.905   1.057   9.439  1.5899 -1.2002  1.6646
   63CHL1  H22B 7126   3.743   0.988   9.507 -1.1838  1.2499  3.1000
   63CHL1   C23 7127   3.735   1.199   9.440  0.5948 -0.3870 -0.2474
   63CHL1  H23A 7128   3.654   1.224   9.512  0.4326 -1.7993  0.0982
   63CHL1  H23B 7129   3.808   1.281   9.424  2.2061 -2.0893 -2.2765
   63CHL1   C24 7130   3.653   1.176   9.303 -0.1168  0.5079  0.4016
   63CHL1  H24A 7131   3.727   1.151   9.223  0.0328 -0.6788  0.8838
   63CHL1  H24B 7132   3.589   1.088   9.324  2.3319 -1.2129  1.1940
   63CHL1   C25 7133   3.552   1.286   9.257 -0.4736 -0.7614  0.5438
   63CHL1   H25 7134   3.609   1.379   9.240 -1.0093 -0.9551 -3.1632
   63CHL1   C26 7135   3.493   1.235   9.119 -0.3583 -0.5237 -0.4698
   63CHL1  H26A 7136   3.427   1.152   9.152  1.2487 -0.9482  2.0166
   63CHL1  H26B 7137   3.428   1.317   9.084 -0.4024  0.8751  2.5695
   63CHL1  H26C 7138   3.565   1.200   9.042  1.2240 -2.8751  1.8962
   63CHL1   C27 7139   3.441   1.305   9.373  0.6024 -0.5131  0.7045
   63CHL1  H27A 7140   3.366   1.369   9.321  0.8923 -1.5651 -1.0916
   63CHL1  H27B 7141   3.403   1.204   9.396  1.1699 -0.7875  0.4427
   63CHL1  H27C 7142   3.496   1.339   9.464  1.3473  0.4249 -0.0777
   64CHL1    C3 7143   2.013   6.303  10.237 -0.7870 -0.3702 -0.2051
   64CHL1    H3 7144   2.062   6.204  10.224 -0.5757 -0.5991  1.9110
   64CHL1    O3 7145   1.985   6.311  10.379  0.0706 -0.4024  0.1484
   64CHL1   H3' 7146   1.907   6.257  10.396  0.9766 -1.9091 -0.2813
   64CHL1    C4 7147   2.116   6.413  10.209 -0.5180 -0.3100 -0.6475
   64CHL1   H4A 7148   2.071   6.509  10.242 -0.0821 -0.4448  0.3846
   64CHL1   H4B 7149   2.205   6.392  10.271  0.5750  0.0216 -2.0483
   64CHL1    C5 7150   2.153   6.426  10.063  0.1313  0.5311  0.3536
   64CHL1    C6 7151   2.282   6.408  10.025 -0.2360  0.1604  0.4143
   64CHL1    H6 7152   2.356   6.397  10.106 -2.3308 -2.1786  2.1716
   64CHL1    C7 7153   2.325   6.400   9.883  0.3091  0.4915  0.3760
   64CHL1   H7A 7154   2.417   6.461   9.867 -0.3686  1.2828 -0.6637
   64CHL1   H7B 7155   2.366   6.300   9.858  1.0879  0.5482  1.3792
   64CHL1    C8 7156   2.219   6.446   9.780 -0.2040 -0.1033  0.2967
   64CHL1    H8 7157   2.212   6.556   9.780 -0.2924 -0.1086  0.1742
   64CHL1   C14 7158   2.257   6.394   9.636 -0.4364  0.3774 -0.2111
   64CHL1   H14 7159   2.272   6.286   9.651  0.0386  0.6589  1.4544
   64CHL1   C15 7160   2.389   6.453   9.571 -0.3422  0.0644 -0.3213
   64CHL1  H15A 7161   2.408   6.562   9.584 -0.3179 -0.0090  0.3000
   64CHL1  H15B 7162   2.471   6.392   9.615  1.4213  2.3956 -0.1524
   64CHL1   C16 7163   2.382   6.415   9.418  0.2574 -0.4534  0.1256
   64CHL1  H16A 7164   2.406   6.498   9.349 -1.4883  0.1127  0.1619
   64CHL1  H16B 7165   2.455   6.336   9.390  2.3338  1.8797 -1.4165
   64CHL1   C17 7166   2.231   6.373   9.405  0.0525 -0.8381  0.6455
   64CHL1   H17 7167   2.230   6.263   9.421 -4.3031 -0.9140  0.9650
   64CHL1   C13 7168   2.154   6.413   9.528  0.0275  0.2235  0.3321
   64CHL1   C18 7169   2.104   6.561   9.512 -0.3849  0.6963 -0.2013
   64CHL1  H18A 7170   2.180   6.635   9.481 -1.4199  1.9683  0.2097
   64CHL1  H18B 7171   2.027   6.566   9.431 -0.8787 -3.4069 -0.1879
   64CHL1  H18C 7172   2.054   6.606   9.600  1.0269 -1.6074  1.8941
   64CHL1   C12 7173   2.027   6.329   9.566  0.1514 -0.1692 -0.5807
   64CHL1  H12A 7174   1.947   6.363   9.498 -1.4795 -0.0657  1.3121
   64CHL1  H12B 7175   2.049   6.222   9.547 -0.9779 -0.9063  1.9534
   64CHL1   C11 7176   1.977   6.374   9.705  0.0958  0.2224  0.3213
   64CHL1  H11A 7177   1.944   6.479   9.690  2.7645  1.2828  1.1959
   64CHL1  H11B 7178   1.896   6.304   9.737 -1.8568  1.7608 -1.0265
   64CHL1    C9 7179   2.088   6.373   9.825 -0.0585  0.2443  0.5950
   64CHL1    H9 7180   2.124   6.269   9.835  1.7598  0.9783  2.4924
   64CHL1   C10 7181   2.043   6.419   9.962  0.1589  0.0795  0.1286
   64CHL1   C19 7182   1.970   6.552   9.947  0.1034 -0.0821  0.0821
   64CHL1  H19A 7183   1.870   6.533   9.902 -0.5152 -2.8787  2.3600
   64CHL1  H19B 7184   1.957   6.599  10.047  2.0477 -1.4471  1.0117
   64CHL1  H19C 7185   2.023   6.632   9.890  1.4838 -1.0638 -0.0516
   64CHL1    C1 7186   1.928   6.318  10.004  0.5773 -0.5622 -1.3013
   64CHL1   H1A 7187   1.841   6.335   9.938 -0.1831 -3.0451 -1.0151
   64CHL1   H1B 7188   1.963   6.217   9.976  1.8261 -0.8924  1.1313
   64CHL1    C2 7189   1.887   6.317  10.150  0.4753  0.1261 -0.1956
   64CHL1   H2A 7190   1.823   6.230  10.178  0.1734  0.4379  0.0949
   64CHL1   H2B 7191   1.828   6.406  10.181 -1.6602 -1.4848  0.6605
   64CHL1   C20 7192   2.175   6.386   9.261 -0.2328  0.4401  0.2439
   64CHL1   H20 7193   2.064   6.388   9.262 -0.2355  0.9314 -0.3625
   64CHL1   C21 7194   2.224   6.256   9.196 -0.4165 -0.7348 -0.1926
   64CHL1  H21A 7195   2.187   6.166   9.249  1.0158 -2.8003 -2.4600
   64CHL1  H21B 7196   2.335   6.257   9.197 -0.3824  1.6613 -0.4987
   64CHL1  H21C 7197   2.185   6.248   9.092  0.3513 -0.4148 -0.5143
   64CHL1   C22 7198   2.216   6.511   9.182  1.1289  0.3374  0.4292
   64CHL1  H22A 7199   2.233   6.591   9.258  1.3998 -0.6588  1.4561
   64CHL1  H22B 7200   2.320   6.500   9.143  1.6351  1.6217  1.3356
   64CHL1   C23 7201   2.109   6.534   9.066  0.4053 -0.0348 -0.2471
   64CHL1  H23A 7202   2.096   6.446   9.000 -0.2600 -0.8179  0.9005
   64CHL1  H23B 7203   2.012   6.557   9.114  0.3059 -0.9156 -0.0039
   64CHL1   C24 7204   2.176   6.642   8.976  0.0601 -0.6455  0.1549
   64CHL1  H24A 7205   2.205   6.736   9.028  2.3822 -0.0502 -2.0061
   64CHL1  H24B 7206   2.272   6.605   8.934  0.2232 -0.4270  0.3335
   64CHL1   C25 7207   2.091   6.696   8.857 -0.2538 -0.6057 -0.6502
   64CHL1   H25 7208   2.150   6.780   8.815 -1.2977  1.2068  1.2904
   64CHL1   C26 7209   2.059   6.597   8.745  1.0402  1.0805  0.0858
   64CHL1  H26A 7210   1.966   6.544   8.777  1.1483  1.1439  0.5153
   64CHL1  H26B 7211   2.041   6.660   8.655  0.4312  0.6550 -0.0969
   64CHL1  H26C 7212   2.133   6.516   8.728 -1.0635 -0.6446 -1.4548
   64CHL1   C27 7213   1.964   6.765   8.919  0.0990 -0.3429 -0.0173
   64CHL1  H27A 7214   1.935   6.853   8.859 -0.9855 -0.9659 -0.4406
   64CHL1  H27B 7215   1.876   6.698   8.928 -0.0450 -0.5374 -2.2599
   64CHL1  H27C 7216   1.982   6.798   9.023  0.1501 -1.1192  0.2259
   65CHL1    C3 7217   4.803   2.379  10.530  0.3763 -0.0204  0.5379
   65CHL1    H3 7218   4.747   2.472  10.511 -1.1251 -1.0015 -0.0255
   65CHL1    O3 7219   4.823   2.374  10.671  0.1837  0.2106  0.0944
   65CHL1   H3' 7220   4.815   2.280  10.688 -1.3636  0.4458  0.8110
   65CHL1    C4 7221   4.714   2.261  10.472 -0.0857  0.8384  0.0383
   65CHL1   H4A 7222   4.765   2.166  10.497 -1.7125  0.0192  0.3592
   65CHL1   H4B 7223   4.616   2.256  10.524 -0.8882  0.5517 -1.4659
   65CHL1    C5 7224   4.694   2.277  10.326 -0.1994 -0.0889 -0.0684
   65CHL1    C6 7225   4.574   2.282  10.272 -0.7061 -0.1163  0.1745
   65CHL1    H6 7226   4.483   2.267  10.331 -1.7989  0.8227 -1.1984
   65CHL1    C7 7227   4.538   2.295  10.126 -0.2850  0.3821 -0.0231
   65CHL1   H7A 7228   4.465   2.218  10.094  0.8766 -0.1752 -1.4947
   65CHL1   H7B 7229   4.497   2.396  10.108  0.8799  0.7285 -0.9161
   65CHL1    C8 7230   4.662   2.278  10.026  0.9166  0.8368  0.4486
   65CHL1    H8 7231   4.682   2.169  10.017  2.6369  0.9194  2.3374
   65CHL1   C14 7232   4.647   2.341   9.891 -0.0524  0.0756  0.2340
   65CHL1   H14 7233   4.662   2.451   9.900  3.1041 -0.1619 -0.6943
   65CHL1   C15 7234   4.518   2.317   9.819  0.1522 -0.2517 -0.1404
   65CHL1  H15A 7235   4.465   2.221   9.836  0.5304 -0.3377  0.5702
   65CHL1  H15B 7236   4.452   2.401   9.851 -1.9491 -1.4758 -1.0432
   65CHL1   C16 7237   4.549   2.331   9.673 -0.7331 -0.3798  0.1060
   65CHL1  H16A 7238   4.516   2.236   9.626  1.6569 -0.3383 -1.8493
   65CHL1  H16B 7239   4.495   2.420   9.637 -0.5367 -0.2831  0.0513
   65CHL1   C17 7240   4.703   2.348   9.661 -0.5418  0.0300 -0.2166
   65CHL1   H17 7241   4.712   2.459   9.668  2.8161 -0.2300  3.4751
   65CHL1   C13 7242   4.759   2.291   9.794 -1.0966  0.0525  0.7774
   65CHL1   C18 7243   4.766   2.131   9.788 -0.7234  0.0517  0.0772
   65CHL1  H18A 7244   4.821   2.108   9.694 -0.3063  1.0415  0.0752
   65CHL1  H18B 7245   4.814   2.087   9.878  1.2289 -0.9608 -1.3779
   65CHL1  H18C 7246   4.660   2.100   9.774 -1.2945  1.3761  1.2705
   65CHL1   C12 7247   4.889   2.350   9.850  0.2411  0.3275  0.2194
   65CHL1  H12A 7248   4.969   2.329   9.777 -0.8235 -2.1674 -0.3205
   65CHL1  H12B 7249   4.885   2.461   9.840  0.6733  0.3947  0.7069
   65CHL1   C11 7250   4.920   2.301   9.991 -0.0380 -0.2162 -0.6230
   65CHL1  H11A 7251   4.949   2.193   9.992  1.6622  0.1815  1.5846
   65CHL1  H11B 7252   5.004   2.356  10.038  0.0557 -1.7330  1.1346
   65CHL1    C9 7253   4.796   2.327  10.088 -0.5218 -0.0072 -0.0472
   65CHL1    H9 7254   4.786   2.437  10.087  0.3493  0.0810 -0.8029
   65CHL1   C10 7255   4.826   2.282  10.240 -0.2997 -0.4919  0.9182
   65CHL1   C19 7256   4.890   2.137  10.237  0.4534 -0.4620  0.4392
   65CHL1  H19A 7257   4.819   2.062  10.197 -0.2582  0.9005 -0.9834
   65CHL1  H19B 7258   4.978   2.127  10.170  0.6945  1.6914  0.3683
   65CHL1  H19C 7259   4.918   2.101  10.338 -1.8796 -1.2571  0.8597
   65CHL1    C1 7260   4.925   2.381  10.299  0.0842  0.0103  0.1661
   65CHL1   H1A 7261   5.017   2.361  10.240 -1.8393 -1.0802 -2.6131
   65CHL1   H1B 7262   4.889   2.482  10.271 -0.6028 -1.3682 -4.9464
   65CHL1    C2 7263   4.939   2.377  10.459  0.0306 -0.5349 -0.2112
   65CHL1   H2A 7264   4.988   2.473  10.485 -0.7381 -0.2019  0.0420
   65CHL1   H2B 7265   4.992   2.284  10.486  0.6184  0.0936  0.8578
   65CHL1   C20 7266   4.751   2.317   9.519 -0.2520  0.3999  0.4198
   65CHL1   H20 7267   4.710   2.219   9.485 -0.1970  0.6417 -0.3569
   65CHL1   C21 7268   4.901   2.312   9.512  0.1519  0.1013 -0.5222
   65CHL1  H21A 7269   4.947   2.229   9.571  2.1463  1.2599 -0.3249
   65CHL1  H21B 7270   4.943   2.410   9.546  1.2252 -0.6580  0.4426
   65CHL1  H21C 7271   4.936   2.300   9.408 -1.3236 -1.3262 -0.8932
   65CHL1   C22 7272   4.691   2.425   9.420 -0.7009  0.9872 -0.7965
   65CHL1  H22A 7273   4.584   2.438   9.447  0.0060  0.2558  2.8288
   65CHL1  H22B 7274   4.754   2.515   9.434 -0.9488  0.8968  1.0238
   65CHL1   C23 7275   4.720   2.381   9.272  0.3112 -0.4441 -0.5130
   65CHL1  H23A 7276   4.828   2.394   9.249  0.0518  0.8278 -1.1088
   65CHL1  H23B 7277   4.689   2.277   9.250  1.7838 -1.1115  0.3532
   65CHL1   C24 7278   4.650   2.482   9.172 -0.6923 -0.1494 -0.1589
   65CHL1  H24A 7279   4.543   2.495   9.198 -0.7072 -1.4954  0.5078
   65CHL1  H24B 7280   4.705   2.575   9.195  2.4798 -1.9467  0.0591
   65CHL1   C25 7281   4.667   2.452   9.025  0.2422  0.3609  0.9195
   65CHL1   H25 7282   4.650   2.342   9.024  2.0092  0.0577  0.9568
   65CHL1   C26 7283   4.567   2.527   8.930 -0.1659 -0.2193 -0.5441
   65CHL1  H26A 7284   4.585   2.484   8.829 -2.4976 -0.6739 -0.8387
   65CHL1  H26B 7285   4.461   2.503   8.956  0.4917 -0.9861  1.6403
   65CHL1  H26C 7286   4.575   2.637   8.927  2.2245 -0.3067  0.6520
   65CHL1   C27 7287   4.812   2.480   8.977  0.8664  0.8336  0.0502
   65CHL1  H27A 7288   4.879   2.419   9.041  3.1811  1.6680 -1.4212
   65CHL1  H27B 7289   4.833   2.436   8.877  0.4293 -1.3335  0.8606
   65CHL1  H27C 7290   4.852   2.584   8.979  2.0083  0.4150  1.7581
   66CHL1    C3 7291   3.523   1.671  10.743 -0.7385 -0.0183  0.1982
   66CHL1    H3 7292   3.580   1.766  10.737 -1.2098  0.1863 -2.4196
   66CHL1    O3 7293   3.502   1.628  10.879  0.4168 -0.0179  0.2240
   66CHL1   H3' 7294   3.427   1.569  10.886 -0.4353  1.1863  2.1763
   66CHL1    C4 7295   3.389   1.676  10.667  0.4539  0.2156 -0.1010
   66CHL1   H4A 7296   3.331   1.587  10.700  2.1720 -0.8575  0.1761
   66CHL1   H4B 7297   3.335   1.765  10.706 -2.1698 -1.8530  1.2723
   66CHL1    C5 7298   3.399   1.688  10.520  0.1878 -0.8883  0.9690
   66CHL1    C6 7299   3.334   1.785  10.454 -0.3858 -0.0436 -0.7155
   66CHL1    H6 7300   3.271   1.851  10.515 -0.8509 -0.5585 -0.6354
   66CHL1    C7 7301   3.336   1.799  10.308 -0.1947  0.9214  0.0662
   66CHL1   H7A 7302   3.233   1.805  10.266 -0.5515 -0.2233  0.7466
   66CHL1   H7B 7303   3.389   1.894  10.283  1.4804  0.0356  0.1561
   66CHL1    C8 7304   3.400   1.675  10.235 -0.0627  0.1179 -0.2338
   66CHL1    H8 7305   3.324   1.594  10.234  0.8507 -0.8608  2.1215
   66CHL1   C14 7306   3.445   1.720  10.097 -0.7311 -0.9333  0.1605
   66CHL1   H14 7307   3.510   1.807  10.121 -0.2409 -1.6972  1.7335
   66CHL1   C15 7308   3.342   1.780  10.000  0.4720  0.2243  0.0582
   66CHL1  H15A 7309   3.255   1.714  10.019 -0.0199  1.1802  1.2713
   66CHL1  H15B 7310   3.316   1.885  10.026 -0.7408 -0.0244 -0.0782
   66CHL1   C16 7311   3.399   1.768   9.863 -0.1757  0.3979  0.0863
   66CHL1  H16A 7312   3.333   1.711   9.795 -0.4927 -0.6665  1.2421
   66CHL1  H16B 7313   3.423   1.863   9.811 -0.7160  0.8161  0.5871
   66CHL1   C17 7314   3.535   1.684   9.880 -0.0325  0.5017 -0.3765
   66CHL1   H17 7315   3.613   1.761   9.895  1.1722 -0.8794  0.7899
   66CHL1   C13 7316   3.517   1.617  10.018  0.0056  0.4400  0.6702
   66CHL1   C18 7317   3.432   1.493   9.985 -0.1922  0.0419 -0.7897
   66CHL1  H18A 7318   3.384   1.439  10.070 -1.3809  1.8803 -0.2330
   66CHL1  H18B 7319   3.352   1.524   9.914  2.4820  1.1095 -3.5587
   66CHL1  H18C 7320   3.491   1.422   9.924 -1.2398 -0.9260 -0.7149
   66CHL1   C12 7321   3.644   1.580  10.090  0.1637 -0.0047  0.7759
   66CHL1  H12A 7322   3.704   1.506  10.034 -1.1969  0.8497 -1.9596
   66CHL1  H12B 7323   3.712   1.668  10.099 -0.8570  0.7579  1.1945
   66CHL1   C11 7324   3.608   1.532  10.225  0.4640 -0.1208  0.0461
   66CHL1  H11A 7325   3.547   1.439  10.215 -2.4683  1.7978 -1.2808
   66CHL1  H11B 7326   3.707   1.515  10.273  1.3860 -1.2961 -2.1406
   66CHL1    C9 7327   3.525   1.630  10.310 -0.0203 -0.5106 -0.3167
   66CHL1    H9 7328   3.591   1.717  10.331 -2.7774  1.9710 -1.3033
   66CHL1   C10 7329   3.502   1.583  10.457  0.3409 -0.4159 -0.3952
   66CHL1   C19 7330   3.417   1.448  10.446  0.0304  0.0941 -0.3328
   66CHL1  H19A 7331   3.482   1.366  10.410 -1.7019 -1.7187  0.4831
   66CHL1  H19B 7332   3.389   1.412  10.547 -0.7313 -2.0688 -1.2762
   66CHL1  H19C 7333   3.324   1.460  10.388 -1.4259 -2.9043  1.1883
   66CHL1    C1 7334   3.635   1.578  10.531  0.4573  0.1507 -0.4570
   66CHL1   H1A 7335   3.715   1.505  10.507  2.0370  1.5027  0.4912
   66CHL1   H1B 7336   3.681   1.677  10.510  1.4016 -0.2274 -0.2213
   66CHL1    C2 7337   3.610   1.556  10.685  0.5581 -0.1642  0.1206
   66CHL1   H2A 7338   3.706   1.553  10.740  1.6495  0.4476 -1.6509
   66CHL1   H2B 7339   3.548   1.465  10.700 -1.7323  1.2111 -0.4372
   66CHL1   C20 7340   3.578   1.623   9.748  0.3024  0.8738  0.6430
   66CHL1   H20 7341   3.490   1.569   9.707 -1.7149  2.4522  2.6832
   66CHL1   C21 7342   3.701   1.542   9.770 -0.0125 -0.4173 -0.1397
   66CHL1  H21A 7343   3.661   1.446   9.809 -1.7496  0.5445  0.5886
   66CHL1  H21B 7344   3.776   1.589   9.836 -0.7715 -0.1786  0.5710
   66CHL1  H21C 7345   3.753   1.512   9.677 -0.3791  1.4746 -1.0094
   66CHL1   C22 7346   3.612   1.731   9.650  0.4136  0.1346  0.4132
   66CHL1  H22A 7347   3.525   1.800   9.657  0.2070 -0.2774  2.4472
   66CHL1  H22B 7348   3.694   1.794   9.691  0.4001  0.8967 -0.6954
   66CHL1   C23 7349   3.652   1.694   9.504 -0.5456 -0.1348 -0.8464
   66CHL1  H23A 7350   3.750   1.642   9.506 -1.0801 -1.1232  0.4471
   66CHL1  H23B 7351   3.587   1.617   9.457 -0.1130 -0.4225 -0.9801
   66CHL1   C24 7352   3.665   1.811   9.399  0.3857  0.4301 -0.3915
   66CHL1  H24A 7353   3.577   1.878   9.402 -1.1105 -1.4431 -0.4427
   66CHL1  H24B 7354   3.759   1.866   9.419 -0.4870  0.9064  2.8505
   66CHL1   C25 7355   3.683   1.773   9.247  0.3489 -0.3675 -0.3297
   66CHL1   H25 7356   3.587   1.719   9.229 -1.3067  2.1625  0.2674
   66CHL1   C26 7357   3.680   1.886   9.149 -0.7223 -0.0506 -1.5349
   66CHL1  H26A 7358   3.591   1.952   9.151 -0.6361  0.0412 -0.1764
   66CHL1  H26B 7359   3.773   1.945   9.162  0.0615 -1.3956 -0.8265
   66CHL1  H26C 7360   3.686   1.833   9.051  0.0351 -2.6255 -0.1932
   66CHL1   C27 7361   3.808   1.693   9.231  0.1245 -0.0926 -1.0699
   66CHL1  H27A 7362   3.825   1.672   9.124  2.2485  1.4437 -1.1115
   66CHL1  H27B 7363   3.898   1.743   9.275 -1.0079  1.1789 -0.1166
   66CHL1  H27C 7364   3.804   1.597   9.286 -0.0945  0.2489 -0.4790
   67CHL1    C3 7365   1.905   1.207  10.647  0.0305  0.3473 -0.0077
   67CHL1    H3 7366   1.866   1.303  10.686  1.1490  1.2602 -1.0237
   67CHL1    O3 7367   1.912   1.111  10.748 -0.0602  0.2745 -0.2633
   67CHL1   H3' 7368   1.908   1.023  10.709 -0.7125  0.5910 -0.9364
   67CHL1    C4 7369   1.817   1.161  10.527  0.0633  0.3265  0.3116
   67CHL1   H4A 7370   1.854   1.058  10.508 -2.2313 -0.3201 -1.1114
   67CHL1   H4B 7371   1.712   1.149  10.564  0.3250 -0.4864  0.8339
   67CHL1    C5 7372   1.823   1.241  10.397  0.9226  0.0012 -0.2014
   67CHL1    C6 7373   1.715   1.291  10.335  0.6347  0.0890 -0.8371
   67CHL1    H6 7374   1.615   1.268  10.375  1.8686 -0.7098  2.0940
   67CHL1    C7 7375   1.714   1.373  10.211 -0.4486 -0.1270  0.0975
   67CHL1   H7A 7376   1.632   1.344  10.142 -0.5230 -1.0672  0.5697
   67CHL1   H7B 7377   1.689   1.476  10.245 -0.2787 -0.2196  0.5051
   67CHL1    C8 7378   1.852   1.367  10.132  0.1378  0.5976  0.0314
   67CHL1    H8 7379   1.872   1.270  10.080 -0.5388  0.8453 -0.7076
   67CHL1   C14 7380   1.866   1.467  10.023 -0.7308 -0.6893  0.5988
   67CHL1   H14 7381   1.864   1.557  10.088 -1.7817 -1.4123  1.6209
   67CHL1   C15 7382   1.751   1.478   9.921  0.3102  0.6715  0.7610
   67CHL1  H15A 7383   1.725   1.382   9.872  1.8634  1.2131 -1.2825
   67CHL1  H15B 7384   1.658   1.520   9.965  2.1571  3.2929  2.5221
   67CHL1   C16 7385   1.824   1.559   9.808 -0.1809  0.1487  0.8065
   67CHL1  H16A 7386   1.815   1.499   9.715  2.6626  0.3742  0.3088
   67CHL1  H16B 7387   1.778   1.660   9.798  0.5609  0.5366  1.2308
   67CHL1   C17 7388   1.968   1.586   9.857  0.1127  0.6774  0.7288
   67CHL1   H17 7389   1.961   1.675   9.923 -2.7276  1.1440 -0.0737
   67CHL1   C13 7390   2.000   1.475   9.952 -0.0992  0.3494 -0.1302
   67CHL1   C18 7391   2.023   1.339   9.879  0.1536  0.3812  0.0675
   67CHL1  H18A 7392   2.119   1.344   9.824 -0.8071 -4.2341 -2.5637
   67CHL1  H18B 7393   2.039   1.253   9.947  5.2833  0.2400 -0.9951
   67CHL1  H18C 7394   1.956   1.312   9.795 -0.6645  2.2260  0.0652
   67CHL1   C12 7395   2.112   1.505  10.054 -0.2532  0.0043 -0.0227
   67CHL1  H12A 7396   2.212   1.501  10.005  0.6667  1.4663  1.6047
   67CHL1  H12B 7397   2.102   1.610  10.089 -1.1844 -0.6919  1.9427
   67CHL1   C11 7398   2.108   1.410  10.172  0.3416  0.8385 -0.7376
   67CHL1  H11A 7399   2.141   1.312  10.131 -0.7780 -0.1994  0.7256
   67CHL1  H11B 7400   2.188   1.435  10.246  2.1498 -1.3697 -1.8062
   67CHL1    C9 7401   1.963   1.378  10.235 -0.4795 -0.0675  0.6035
   67CHL1    H9 7402   1.935   1.467  10.295  0.1369  1.6415 -1.5369
   67CHL1   C10 7403   1.964   1.263  10.341  0.2351 -0.1637 -0.5486
   67CHL1   C19 7404   2.022   1.133  10.279 -0.5409 -0.6166  0.1453
   67CHL1  H19A 7405   2.126   1.154  10.245 -0.3892 -4.0748 -1.9705
   67CHL1  H19B 7406   2.018   1.058  10.361  0.8752  0.6987  1.4770
   67CHL1  H19C 7407   1.951   1.103  10.200 -2.2708  1.8666  0.6284
   67CHL1    C1 7408   2.054   1.305  10.454  0.0694 -0.8217  0.1961
   67CHL1   H1A 7409   2.164   1.311  10.435  0.0117 -0.7288 -0.1198
   67CHL1   H1B 7410   2.012   1.406  10.471 -1.4587 -1.4940  0.5261
   67CHL1    C2 7411   2.050   1.234  10.593 -0.4750 -0.7426  0.1544
   67CHL1   H2A 7412   2.112   1.300  10.657  0.3298 -1.4162  0.0854
   67CHL1   H2B 7413   2.108   1.141  10.578 -0.2316 -0.3364 -1.6404
   67CHL1   C20 7414   2.074   1.616   9.751  0.3437  0.3943  0.0123
   67CHL1   H20 7415   2.174   1.601   9.796 -0.3818  1.5229  2.1359
   67CHL1   C21 7416   2.058   1.770   9.736 -0.3628  0.4105  0.0519
   67CHL1  H21A 7417   2.091   1.830   9.823 -1.1368  1.0599 -0.0794
   67CHL1  H21B 7418   1.955   1.787   9.696 -0.2294 -0.3004 -0.6133
   67CHL1  H21C 7419   2.126   1.797   9.653 -0.5339 -0.0774 -0.2514
   67CHL1   C22 7420   2.054   1.542   9.618  0.0307  0.2193  0.1485
   67CHL1  H22A 7421   2.009   1.440   9.628  2.6028 -0.9524  0.5661
   67CHL1  H22B 7422   1.966   1.587   9.568 -0.1670  2.2290  2.1562
   67CHL1   C23 7423   2.158   1.545   9.507  0.7504 -0.6020  0.2418
   67CHL1  H23A 7424   2.174   1.641   9.454  0.2036 -0.4068  0.4207
   67CHL1  H23B 7425   2.253   1.512   9.554  0.6267  0.7041  1.4894
   67CHL1   C24 7426   2.116   1.453   9.392 -0.2647  0.1497 -0.0283
   67CHL1  H24A 7427   2.073   1.361   9.437 -1.3532  1.5397  1.9174
   67CHL1  H24B 7428   2.024   1.493   9.343 -2.5016  0.0702  3.7217
   67CHL1   C25 7429   2.236   1.409   9.298  0.5443 -0.2096  0.3556
   67CHL1   H25 7430   2.320   1.379   9.364 -0.4764 -2.0111  0.8892
   67CHL1   C26 7431   2.194   1.292   9.208  0.2960 -0.4978  0.0841
   67CHL1  H26A 7432   2.096   1.314   9.160 -0.3714 -1.9221  0.7343
   67CHL1  H26B 7433   2.263   1.260   9.127 -1.1728 -1.1515 -0.9579
   67CHL1  H26C 7434   2.171   1.204   9.272 -1.7885 -1.3308 -1.6874
   67CHL1   C27 7435   2.294   1.518   9.205 -0.2617  0.2670 -0.3513
   67CHL1  H27A 7436   2.211   1.562   9.146  0.3408  0.8881 -0.7597
   67CHL1  H27B 7437   2.345   1.594   9.268  0.7341 -0.4602 -0.2497
   67CHL1  H27C 7438   2.373   1.470   9.143 -0.5350 -0.9960  0.2583
   68CHL1    C3 7439   3.699   2.205  10.584  0.5176  0.1500  0.3138
   68CHL1    H3 7440   3.803   2.209  10.545  1.0700  1.0660  1.7906
   68CHL1    O3 7441   3.690   2.202  10.719 -0.5567  0.6091 -0.3866
   68CHL1   H3' 7442   3.743   2.275  10.752 -1.2396  1.1720 -0.5194
   68CHL1    C4 7443   3.622   2.330  10.542  0.2302  0.6890 -0.3820
   68CHL1   H4A 7444   3.516   2.317  10.570  1.1698  0.6315  3.7180
   68CHL1   H4B 7445   3.662   2.412  10.605  2.4443 -2.7681  3.1696
   68CHL1    C5 7446   3.623   2.345  10.390  0.6635 -0.4184 -0.5856
   68CHL1    C6 7447   3.669   2.463  10.338 -0.2187  0.2524 -0.2415
   68CHL1    H6 7448   3.692   2.549  10.404  2.9633  1.1873 -2.3334
   68CHL1    C7 7449   3.673   2.482  10.188  0.5011 -0.3014 -0.4719
   68CHL1   H7A 7450   3.646   2.581  10.145  3.8047  0.8939 -0.1010
   68CHL1   H7B 7451   3.781   2.480  10.161  0.3459 -0.6655 -1.0759
   68CHL1    C8 7452   3.592   2.371  10.110 -0.9934  0.7645 -0.8560
   68CHL1    H8 7453   3.485   2.394  10.123 -1.1167 -0.2509  0.0422
   68CHL1   C14 7454   3.628   2.381   9.956 -0.5931 -0.3546  0.3693
   68CHL1   H14 7455   3.734   2.349   9.945  0.2324  1.5630  2.0626
   68CHL1   C15 7456   3.610   2.514   9.880 -0.1360 -0.3830 -0.3279
   68CHL1  H15A 7457   3.515   2.556   9.919 -1.0303 -1.3713 -1.3886
   68CHL1  H15B 7458   3.693   2.583   9.905 -1.5020  0.4837  2.2892
   68CHL1   C16 7459   3.600   2.476   9.733 -0.2805  0.2748 -0.0804
   68CHL1  H16A 7460   3.506   2.526   9.700 -1.2995 -0.7298  1.2076
   68CHL1  H16B 7461   3.688   2.505   9.671  1.0874 -0.8201  1.2483
   68CHL1   C17 7462   3.591   2.322   9.722 -0.1123  0.0782  0.8651
   68CHL1   H17 7463   3.694   2.297   9.689 -1.0273  0.5984 -2.8307
   68CHL1   C13 7464   3.557   2.279   9.874 -0.4400 -0.2283  0.0778
   68CHL1   C18 7465   3.402   2.291   9.884  0.9059  0.1646  0.0558
   68CHL1  H18A 7466   3.355   2.375   9.830 -1.9304 -0.9313  0.6611
   68CHL1  H18B 7467   3.361   2.198   9.840 -0.2447  0.7079 -0.0476
   68CHL1  H18C 7468   3.358   2.295   9.986 -1.2041  3.1876 -0.8315
   68CHL1   C12 7469   3.610   2.139   9.926 -0.2729 -0.3862  0.1402
   68CHL1  H12A 7470   3.564   2.061   9.861  0.8901  1.3399 -2.9042
   68CHL1  H12B 7471   3.719   2.122   9.912 -0.1037 -1.0149  1.8531
   68CHL1   C11 7472   3.577   2.121  10.068 -0.1682  0.5166 -0.3110
   68CHL1  H11A 7473   3.467   2.127  10.085 -0.2238 -1.1558  0.1486
   68CHL1  H11B 7474   3.609   2.024  10.112 -1.4951 -1.0430 -2.5613
   68CHL1    C9 7475   3.621   2.234  10.167  0.5840  0.3512  0.0050
   68CHL1    H9 7476   3.731   2.223  10.169  0.4885 -0.6426  0.7865
   68CHL1   C10 7477   3.580   2.214  10.316  0.5652  0.3668  0.2520
   68CHL1   C19 7478   3.428   2.204  10.337 -0.0417 -0.1498 -1.1710
   68CHL1  H19A 7479   3.400   2.131  10.258  0.0071 -0.9710 -0.4502
   68CHL1  H19B 7480   3.421   2.165  10.441  3.6163  2.6652  0.3673
   68CHL1  H19C 7481   3.375   2.300  10.319  0.2012  0.1828 -0.1615
   68CHL1    C1 7482   3.643   2.079  10.370 -0.3105  0.1872 -0.1874
   68CHL1   H1A 7483   3.597   1.994  10.315  0.2392 -0.9135  1.0355
   68CHL1   H1B 7484   3.749   2.080  10.336 -0.6162  0.4924 -1.1851
   68CHL1    C2 7485   3.642   2.076  10.525  0.1774  0.0902 -0.4001
   68CHL1   H2A 7486   3.709   1.994  10.558 -0.3841 -0.5700 -0.8543
   68CHL1   H2B 7487   3.535   2.068  10.555 -1.3360  2.2059 -4.4442
   68CHL1   C20 7488   3.494   2.272   9.607 -0.1874 -0.1574 -0.1485
   68CHL1   H20 7489   3.385   2.288   9.622 -0.0489  1.3515 -0.5893
   68CHL1   C21 7490   3.504   2.120   9.597  0.4106  0.3082 -0.4358
   68CHL1  H21A 7491   3.445   2.062   9.671 -0.1621  0.0152 -1.1012
   68CHL1  H21B 7492   3.611   2.094   9.606  0.1637  0.0453  2.7294
   68CHL1  H21C 7493   3.451   2.095   9.502 -1.2160  1.3775  0.1335
   68CHL1   C22 7494   3.516   2.334   9.472  0.3239 -0.2444 -0.1142
   68CHL1  H22A 7495   3.456   2.282   9.395  3.1120 -2.3485 -1.0186
   68CHL1  H22B 7496   3.478   2.438   9.458  4.0204  0.9142 -3.3790
   68CHL1   C23 7497   3.659   2.324   9.417 -0.0556  0.1025 -0.2683
   68CHL1  H23A 7498   3.727   2.372   9.489  1.4440 -1.8966 -0.2767
   68CHL1  H23B 7499   3.693   2.219   9.408  2.3232  0.8520 -0.5375
   68CHL1   C24 7500   3.668   2.398   9.279  0.0612 -0.8182  1.2736
   68CHL1  H24A 7501   3.658   2.507   9.297 -0.1538 -0.6442  0.1654
   68CHL1  H24B 7502   3.764   2.377   9.226 -1.7241 -2.0860 -1.7010
   68CHL1   C25 7503   3.561   2.359   9.168  0.1320  0.2912  0.7762
   68CHL1   H25 7504   3.462   2.400   9.196  0.3372  1.7126 -0.4390
   68CHL1   C26 7505   3.602   2.428   9.040 -0.1855  1.2907  0.2785
   68CHL1  H26A 7506   3.521   2.439   8.965 -0.9104 -0.2617  0.7835
   68CHL1  H26B 7507   3.648   2.528   9.056  1.5738  0.5594 -0.0009
   68CHL1  H26C 7508   3.684   2.367   8.997 -2.2199 -0.2209 -1.7532
   68CHL1   C27 7509   3.552   2.204   9.145 -0.1218  0.1865  0.1428
   68CHL1  H27A 7510   3.496   2.183   9.051 -1.5909 -1.3176  1.2852
   68CHL1  H27B 7511   3.653   2.162   9.128  1.1291  2.4100  1.6189
   68CHL1  H27C 7512   3.504   2.152   9.232  0.3409 -0.5428 -0.0271
   69CHL1    C3 7513   4.775   0.413   6.955  0.0274 -0.0736  0.4692
   69CHL1    H3 7514   4.695   0.339   6.979 -1.0396  2.0835  4.4950
   69CHL1    O3 7515   4.841   0.402   6.831  0.4028 -0.3697  0.6718
   69CHL1   H3' 7516   4.896   0.324   6.846  2.2484  0.7724  0.2113
   69CHL1    C4 7517   4.706   0.554   6.952  0.5079 -0.1671 -0.3717
   69CHL1   H4A 7518   4.788   0.627   6.931  0.4268  0.6369  1.8583
   69CHL1   H4B 7519   4.637   0.558   6.865  0.2376 -0.8762 -0.1932
   69CHL1    C5 7520   4.645   0.592   7.086 -0.2643  0.1233  0.1370
   69CHL1    C6 7521   4.520   0.642   7.103  0.7031  0.3587 -0.0584
   69CHL1    H6 7522   4.450   0.649   7.018  0.9860 -0.3589 -0.3615
   69CHL1    C7 7523   4.462   0.675   7.244 -0.7236 -0.4162 -0.2619
   69CHL1   H7A 7524   4.426   0.781   7.246  3.1000  1.0148  0.3069
   69CHL1   H7B 7525   4.369   0.616   7.258 -1.0012 -0.0348 -0.4769
   69CHL1    C8 7526   4.567   0.663   7.363 -0.0186  0.8804  0.2453
   69CHL1    H8 7527   4.634   0.751   7.368  0.2150  0.7759 -0.8214
   69CHL1   C14 7528   4.503   0.639   7.502  0.1603  0.2111  0.3271
   69CHL1   H14 7529   4.457   0.538   7.498 -1.9389  1.1103  0.4878
   69CHL1   C15 7530   4.382   0.733   7.535 -0.9195  0.4364  0.7409
   69CHL1  H15A 7531   4.403   0.831   7.487 -1.0747  0.2536  0.2986
   69CHL1  H15B 7532   4.291   0.685   7.495 -1.2481  2.2171 -0.7674
   69CHL1   C16 7533   4.377   0.738   7.690  0.5501  0.3633 -0.6653
   69CHL1  H16A 7534   4.405   0.842   7.720  1.2277 -0.1429  0.5092
   69CHL1  H16B 7535   4.280   0.712   7.737  1.4934  0.1406  1.2723
   69CHL1   C17 7536   4.492   0.650   7.739 -0.4948 -0.6187 -0.5767
   69CHL1   H17 7537   4.453   0.548   7.758 -0.2753 -0.6167 -0.0912
   69CHL1   C13 7538   4.591   0.639   7.624 -0.3185 -0.6753 -0.1342
   69CHL1   C18 7539   4.672   0.772   7.628  0.0791  0.0471 -0.4750
   69CHL1  H18A 7540   4.601   0.858   7.626 -0.7468 -0.5099  1.6166
   69CHL1  H18B 7541   4.735   0.789   7.718  0.4777 -3.3134 -0.0125
   69CHL1  H18C 7542   4.744   0.775   7.543  1.2578  0.2232  0.5045
   69CHL1   C12 7543   4.670   0.507   7.600 -0.2356 -0.2708 -0.1281
   69CHL1  H12A 7544   4.743   0.497   7.684 -1.4273 -0.5981  0.8965
   69CHL1  H12B 7545   4.608   0.415   7.600  1.3997 -1.4535  1.4150
   69CHL1   C11 7546   4.752   0.513   7.465  0.5125  0.8601  0.4645
   69CHL1  H11A 7547   4.837   0.584   7.467  0.8147  0.7184 -2.9098
   69CHL1  H11B 7548   4.780   0.407   7.449 -1.5578  0.3140  0.1630
   69CHL1    C9 7549   4.658   0.552   7.339 -0.6262  0.4861  0.1283
   69CHL1    H9 7550   4.602   0.457   7.324  1.7362 -1.1777  1.1922
   69CHL1   C10 7551   4.737   0.575   7.210 -0.0796  0.3984  0.7104
   69CHL1   C19 7552   4.838   0.687   7.212  0.2949  0.5259 -0.0341
   69CHL1  H19A 7553   4.892   0.720   7.121  0.3437 -0.1789 -0.2661
   69CHL1  H19B 7554   4.795   0.780   7.254 -0.2033 -0.1625  1.0418
   69CHL1  H19C 7555   4.915   0.658   7.287 -1.2191 -4.1763  0.0289
   69CHL1    C1 7556   4.834   0.443   7.188  0.5494  0.3076 -0.0175
   69CHL1   H1A 7557   4.907   0.444   7.272  0.9991 -1.5868 -0.3333
   69CHL1   H1B 7558   4.766   0.359   7.213 -0.9968  1.0461 -1.5560
   69CHL1    C2 7559   4.892   0.410   7.052  0.4185 -0.1495 -0.6458
   69CHL1   H2A 7560   4.941   0.311   7.063  0.2024 -0.2600 -0.6634
   69CHL1   H2B 7561   4.969   0.487   7.028  0.7351 -0.6972 -1.4182
   69CHL1   C20 7562   4.552   0.694   7.873  0.4941 -0.0394  0.4974
   69CHL1   H20 7563   4.587   0.799   7.868 -0.1022  0.1630  0.5300
   69CHL1   C21 7564   4.662   0.605   7.922  0.2636  0.0732  0.0083
   69CHL1  H21A 7565   4.695   0.624   8.027  0.6838  0.1213 -0.1288
   69CHL1  H21B 7566   4.748   0.621   7.854 -0.4540  1.4109 -0.6156
   69CHL1  H21C 7567   4.629   0.499   7.920 -0.8894  0.4068  0.4419
   69CHL1   C22 7568   4.436   0.676   7.976 -0.3286 -0.6462  0.7703
   69CHL1  H22A 7569   4.359   0.751   7.948 -0.3095 -0.2855  1.6424
   69CHL1  H22B 7570   4.378   0.582   7.966 -1.8717  0.4561 -1.3726
   69CHL1   C23 7571   4.463   0.698   8.128 -0.6187  0.1600 -0.5042
   69CHL1  H23A 7572   4.523   0.609   8.155 -0.9827  0.6204  2.0923
   69CHL1  H23B 7573   4.527   0.787   8.147 -0.3815  0.2469 -1.6460
   69CHL1   C24 7574   4.333   0.696   8.217  0.0807 -0.9524 -0.2984
   69CHL1  H24A 7575   4.263   0.774   8.179  2.5728  0.8640 -1.4271
   69CHL1  H24B 7576   4.290   0.596   8.195  0.4758 -0.6529 -2.7178
   69CHL1   C25 7577   4.349   0.696   8.370  0.1393 -0.0475 -0.0106
   69CHL1   H25 7578   4.416   0.612   8.399  1.4688  1.3660  1.1194
   69CHL1   C26 7579   4.402   0.826   8.425 -0.7075 -0.2877  0.3816
   69CHL1  H26A 7580   4.461   0.853   8.335  0.3597  3.3364  2.0066
   69CHL1  H26B 7581   4.336   0.912   8.448  1.8323  2.1253 -0.9008
   69CHL1  H26C 7582   4.476   0.809   8.506  1.0987 -2.6913 -1.5833
   69CHL1   C27 7583   4.208   0.665   8.433 -0.2198 -0.4271  0.3367
   69CHL1  H27A 7584   4.155   0.584   8.379 -0.3765  1.0998 -1.9826
   69CHL1  H27B 7585   4.223   0.634   8.538  1.1502  1.0098  0.6001
   69CHL1  H27C 7586   4.142   0.755   8.437  0.3837  0.1782 -1.9150
   70CHL1    C3 7587   4.037   4.462   7.409 -0.6187 -0.4733  0.7307
   70CHL1    H3 7588   4.033   4.573   7.414  1.5112 -0.3258 -0.1385
   70CHL1    O3 7589   4.063   4.439   7.272  0.0228  0.5314  0.4558
   70CHL1   H3' 7590   3.980   4.443   7.224  1.5217  1.2452 -2.2562
   70CHL1    C4 7591   4.156   4.411   7.493  0.4279  0.8140 -0.3888
   70CHL1   H4A 7592   4.161   4.305   7.460 -0.1326  0.8134 -0.4779
   70CHL1   H4B 7593   4.250   4.453   7.450 -0.2199  2.2461 -0.4589
   70CHL1    C5 7594   4.125   4.419   7.638  0.5723  0.1411  0.0362
   70CHL1    C6 7595   4.216   4.484   7.712 -0.0133 -0.0325 -0.3373
   70CHL1    H6 7596   4.311   4.523   7.675 -0.2283  0.2658 -0.5820
   70CHL1    C7 7597   4.203   4.506   7.859 -0.5171  0.2259  0.4158
   70CHL1   H7A 7598   4.294   4.468   7.910 -1.2564  0.1869  1.7459
   70CHL1   H7B 7599   4.197   4.614   7.885  5.1613  0.7887  0.7166
   70CHL1    C8 7600   4.085   4.417   7.912  0.1279 -0.5679  0.2316
   70CHL1    H8 7601   4.120   4.312   7.908 -2.5252 -1.5147  0.0580
   70CHL1   C14 7602   4.059   4.466   8.055  1.1395 -0.0091 -0.9664
   70CHL1   H14 7603   4.025   4.570   8.043  1.6391  0.1314 -1.1967
   70CHL1   C15 7604   4.180   4.472   8.152 -0.3560  0.1261 -0.1550
   70CHL1  H15A 7605   4.242   4.383   8.127 -1.0735 -0.4803  0.2168
   70CHL1  H15B 7606   4.235   4.566   8.129 -1.6760  0.8343 -0.5517
   70CHL1   C16 7607   4.119   4.472   8.288  0.4206  0.2731 -0.2252
   70CHL1  H16A 7608   4.157   4.380   8.337 -2.3771 -0.8853 -0.0828
   70CHL1  H16B 7609   4.156   4.558   8.348  1.3203  0.9790 -1.7031
   70CHL1   C17 7610   3.962   4.454   8.270 -0.5017 -0.2271 -0.5590
   70CHL1   H17 7611   3.930   4.560   8.281  1.6125  0.2626  1.5704
   70CHL1   C13 7612   3.945   4.397   8.128  0.1656  0.1620 -0.2054
   70CHL1   C18 7613   3.972   4.248   8.129 -0.5311 -0.2187 -0.2787
   70CHL1  H18A 7614   4.027   4.204   8.043 -0.1200  0.8970 -0.6029
   70CHL1  H18B 7615   4.037   4.213   8.213 -1.1248  0.0807  0.3129
   70CHL1  H18C 7616   3.870   4.207   8.147 -1.9631  2.7026 -1.1788
   70CHL1   C12 7617   3.807   4.429   8.051  0.5057  0.6698  0.1860
   70CHL1  H12A 7618   3.730   4.361   8.092  0.3773 -0.1883 -1.3862
   70CHL1  H12B 7619   3.775   4.534   8.066 -0.8219 -0.1068  3.5441
   70CHL1   C11 7620   3.823   4.396   7.899  0.1333  0.3889  0.2386
   70CHL1  H11A 7621   3.816   4.285   7.894  3.2149  0.0526  1.2507
   70CHL1  H11B 7622   3.741   4.438   7.838 -2.2497 -3.0756  0.7595
   70CHL1    C9 7623   3.959   4.445   7.829  0.3914  0.2562  0.0665
   70CHL1    H9 7624   3.943   4.555   7.821  1.2305  0.5315  1.7501
   70CHL1   C10 7625   3.978   4.387   7.690 -0.0174  0.0901 -0.2233
   70CHL1   C19 7626   3.971   4.230   7.688  0.3481  0.4128  0.3856
   70CHL1  H19A 7627   3.868   4.195   7.707  1.2482 -2.3611  0.4853
   70CHL1  H19B 7628   4.003   4.194   7.588  0.0979 -0.4727  0.6194
   70CHL1  H19C 7629   4.035   4.180   7.764 -3.7072 -1.4189  2.9541
   70CHL1    C1 7630   3.871   4.441   7.592  0.0222 -0.5071 -1.3687
   70CHL1   H1A 7631   3.770   4.407   7.625  0.6299 -1.3272 -0.2792
   70CHL1   H1B 7632   3.860   4.551   7.605 -1.0389 -0.9023  2.1156
   70CHL1    C2 7633   3.895   4.410   7.446  0.2391  0.3779 -0.4285
   70CHL1   H2A 7634   3.821   4.470   7.389 -0.5629  0.5001  0.6997
   70CHL1   H2B 7635   3.887   4.302   7.420 -2.9829 -0.2104  2.3063
   70CHL1   C20 7636   3.888   4.389   8.385 -0.3990  0.3494 -0.7838
   70CHL1   H20 7637   3.868   4.282   8.364  3.0479 -0.5149 -0.2817
   70CHL1   C21 7638   3.751   4.463   8.390 -0.0423  1.1012  0.0705
   70CHL1  H21A 7639   3.697   4.428   8.480  0.9962 -0.5987  0.0685
   70CHL1  H21B 7640   3.689   4.475   8.299 -1.4192 -0.5359  0.7512
   70CHL1  H21C 7641   3.770   4.568   8.423  1.3115  0.6024  0.9454
   70CHL1   C22 7642   3.964   4.381   8.528 -0.5061 -0.0439  0.0048
   70CHL1  H22A 7643   4.057   4.324   8.507 -1.5342 -2.5479  1.7004
   70CHL1  H22B 7644   3.988   4.480   8.572 -0.9999  0.4883 -0.8843
   70CHL1   C23 7645   3.892   4.292   8.622  0.8141  0.7849  0.0403
   70CHL1  H23A 7646   3.786   4.324   8.635  0.1121 -0.2394 -2.4472
   70CHL1  H23B 7647   3.874   4.192   8.578 -1.2217 -0.1863  2.7941
   70CHL1   C24 7648   3.965   4.292   8.755  0.2836 -0.3541 -0.9528
   70CHL1  H24A 7649   4.070   4.262   8.736  1.1953  0.0950  2.5960
   70CHL1  H24B 7650   3.981   4.395   8.795 -0.4128 -1.3026  1.9785
   70CHL1   C25 7651   3.905   4.221   8.875 -0.1070 -0.2478  0.0015
   70CHL1   H25 7652   3.799   4.252   8.873 -0.1938 -0.5102  0.4552
   70CHL1   C26 7653   3.912   4.070   8.852 -0.9050 -0.6684 -0.1256
   70CHL1  H26A 7654   3.887   4.010   8.942  2.4924 -3.6310 -0.9338
   70CHL1  H26B 7655   3.835   4.041   8.777 -0.7132 -1.4116 -0.0483
   70CHL1  H26C 7656   4.013   4.034   8.823  0.2451  0.3896  2.2767
   70CHL1   C27 7657   3.969   4.264   9.007  0.1708 -0.4452 -0.9692
   70CHL1  H27A 7658   4.076   4.235   9.003  1.0031  1.7135  2.2530
   70CHL1  H27B 7659   3.966   4.375   9.017  1.3136 -0.5240  0.4803
   70CHL1  H27C 7660   3.924   4.206   9.090  0.7739  0.4685  0.0095
   71CHL1    C3 7661   4.711   6.622   7.070 -0.5830 -0.8607  0.2200
   71CHL1    H3 7662   4.631   6.699   7.065 -0.9330 -1.1287  1.3246
   71CHL1    O3 7663   4.717   6.578   6.936 -0.0986  0.6864 -0.6339
   71CHL1   H3' 7664   4.755   6.655   6.894 -0.9722  2.2637  1.2704
   71CHL1    C4 7665   4.844   6.689   7.121 -0.4063 -0.1976  0.7259
   71CHL1   H4A 7666   4.920   6.611   7.100 -0.5523  0.2354 -1.5787
   71CHL1   H4B 7667   4.866   6.771   7.049  0.4819  0.1764  1.3893
   71CHL1    C5 7668   4.853   6.714   7.269  0.1878 -0.0116 -0.3903
   71CHL1    C6 7669   4.885   6.829   7.317 -0.1368 -0.0655 -0.5939
   71CHL1    H6 7670   4.915   6.902   7.241 -0.3663  0.4492 -0.1935
   71CHL1    C7 7671   4.908   6.861   7.463  0.2291 -0.5313  0.1912
   71CHL1   H7A 7672   5.008   6.907   7.480  0.0091 -0.0934  0.3175
   71CHL1   H7B 7673   4.826   6.923   7.504 -0.9613 -0.4596 -2.1284
   71CHL1    C8 7674   4.897   6.733   7.551 -0.0495  0.0469 -0.2507
   71CHL1    H8 7675   4.995   6.683   7.538 -0.0664  0.5459 -2.6386
   71CHL1   C14 7676   4.869   6.770   7.694 -0.0264  0.9784 -0.3121
   71CHL1   H14 7677   4.763   6.802   7.693 -0.5715 -0.7124  0.0602
   71CHL1   C15 7678   4.950   6.883   7.763 -0.0877 -0.0435  0.5595
   71CHL1  H15A 7679   5.049   6.877   7.713 -0.3269  1.6833 -0.1848
   71CHL1  H15B 7680   4.903   6.973   7.719  0.2580 -0.9041 -1.7408
   71CHL1   C16 7681   4.940   6.858   7.916 -0.5443  0.0597 -0.6357
   71CHL1  H16A 7682   5.045   6.830   7.940 -0.1691  1.4557 -0.5721
   71CHL1  H16B 7683   4.915   6.947   7.976  0.1569 -0.1740  0.0335
   71CHL1   C17 7684   4.845   6.737   7.930  0.3488  0.9657  0.9344
   71CHL1   H17 7685   4.742   6.779   7.927 -0.3598 -0.7109  0.9735
   71CHL1   C13 7686   4.869   6.655   7.798  0.1354 -0.1855  0.4622
   71CHL1   C18 7687   5.001   6.579   7.810  0.6488  0.3863 -0.3551
   71CHL1  H18A 7688   5.028   6.520   7.719  1.2116 -1.6162  1.0362
   71CHL1  H18B 7689   5.082   6.653   7.825 -0.2060  1.2178  0.3083
   71CHL1  H18C 7690   4.995   6.506   7.894  3.5055  0.0173 -0.3853
   71CHL1   C12 7691   4.762   6.560   7.754  0.4956  0.3724  0.1669
   71CHL1  H12A 7692   4.749   6.470   7.817 -1.5997  2.4466  2.9345
   71CHL1  H12B 7693   4.660   6.603   7.762  0.1838 -0.3783  0.2893
   71CHL1   C11 7694   4.781   6.512   7.611 -0.3305  0.2192 -0.2676
   71CHL1  H11A 7695   4.859   6.435   7.596 -1.8964 -1.2231 -1.3535
   71CHL1  H11B 7696   4.691   6.452   7.590 -0.7324  0.3265  1.0361
   71CHL1    C9 7697   4.788   6.631   7.508 -0.3129 -0.3082  0.2366
   71CHL1    H9 7698   4.698   6.695   7.519  0.7954  1.5391 -0.9236
   71CHL1   C10 7699   4.810   6.594   7.359 -0.5879 -0.1901  0.4227
   71CHL1   C19 7700   4.924   6.488   7.340 -0.4407 -0.8684 -0.4343
   71CHL1  H19A 7701   4.887   6.400   7.396 -0.7046 -1.9675 -2.2636
   71CHL1  H19B 7702   4.946   6.476   7.232 -0.6076 -0.0960 -0.5608
   71CHL1  H19C 7703   5.012   6.532   7.391 -0.7339  2.7069 -2.6251
   71CHL1    C1 7704   4.674   6.532   7.314 -0.3064  1.2949  0.8832
   71CHL1   H1A 7705   4.662   6.440   7.375 -1.3701  1.1334  0.4458
   71CHL1   H1B 7706   4.595   6.604   7.343 -0.3532  0.5021  2.8851
   71CHL1    C2 7707   4.668   6.504   7.161 -0.0203 -0.3752  0.2666
   71CHL1   H2A 7708   4.566   6.471   7.131 -0.0735  0.8889 -1.0233
   71CHL1   H2B 7709   4.739   6.422   7.137 -0.2927 -0.4721 -0.2152
   71CHL1   C20 7710   4.857   6.661   8.066 -0.9763  0.2525 -0.2830
   71CHL1   H20 7711   4.958   6.616   8.078  0.7993  3.6294 -1.1931
   71CHL1   C21 7712   4.753   6.550   8.075  1.1694 -0.0352 -0.5413
   71CHL1  H21A 7713   4.743   6.500   8.173 -0.3378 -0.6382 -0.9600
   71CHL1  H21B 7714   4.782   6.461   8.016  0.7787 -0.8720  0.5009
   71CHL1  H21C 7715   4.652   6.586   8.043  1.1251 -0.1730 -0.5601
   71CHL1   C22 7716   4.837   6.761   8.188 -0.3776 -0.4668  0.6321
   71CHL1  H22A 7717   4.913   6.840   8.170 -2.1686  1.0474 -0.6839
   71CHL1  H22B 7718   4.741   6.815   8.180 -0.2064 -0.3312 -0.7964
   71CHL1   C23 7719   4.863   6.703   8.330 -0.5875  0.4312 -0.6959
   71CHL1  H23A 7720   4.772   6.647   8.360 -0.2415 -0.4529 -1.2630
   71CHL1  H23B 7721   4.948   6.631   8.322 -0.1693  0.6322  1.3948
   71CHL1   C24 7722   4.883   6.817   8.435  0.3045 -0.8813 -0.3943
   71CHL1  H24A 7723   4.972   6.882   8.424  0.5800 -1.2925 -0.6345
   71CHL1  H24B 7724   4.786   6.872   8.434  1.3262  0.9750 -0.8214
   71CHL1   C25 7725   4.922   6.760   8.573  0.1673  0.5609 -0.6439
   71CHL1   H25 7726   5.020   6.709   8.565  0.3924  0.8368  0.3222
   71CHL1   C26 7727   4.923   6.879   8.671  0.2965 -0.4344 -0.5792
   71CHL1  H26A 7728   5.021   6.911   8.713 -0.3109  4.8007 -2.4264
   71CHL1  H26B 7729   4.890   6.973   8.622 -2.1447  0.5096  2.5478
   71CHL1  H26C 7730   4.856   6.869   8.759  1.3633  1.5340  0.5428
   71CHL1   C27 7731   4.824   6.658   8.615 -0.4756  0.4231  0.0248
   71CHL1  H27A 7732   4.848   6.612   8.714 -0.1143 -0.9489 -0.6744
   71CHL1  H27B 7733   4.722   6.700   8.628 -1.0161 -1.1217  1.1009
   71CHL1  H27C 7734   4.819   6.570   8.547  0.1117  1.1696 -1.0137
   72CHL1    C3 7735   3.806   3.884   7.458 -0.3202 -0.1987 -0.8987
   72CHL1    H3 7736   3.863   3.978   7.476 -0.1774 -0.4426 -0.0307
   72CHL1    O3 7737   3.833   3.835   7.330  0.3308  0.5619  0.5156
   72CHL1   H3' 7738   3.822   3.913   7.275 -1.5606  0.6518  0.9672
   72CHL1    C4 7739   3.838   3.778   7.566  0.1866 -0.2781 -0.4845
   72CHL1   H4A 7740   3.774   3.691   7.540  0.1477 -0.5749  0.5682
   72CHL1   H4B 7741   3.946   3.755   7.558  0.8182  1.8511  1.0144
   72CHL1    C5 7742   3.802   3.830   7.703  0.3740  0.0381 -0.3769
   72CHL1    C6 7743   3.895   3.824   7.799 -0.5349 -0.3686 -0.2416
   72CHL1    H6 7744   3.997   3.795   7.771 -1.0432  0.6755 -3.6157
   72CHL1    C7 7745   3.869   3.864   7.943 -0.0852 -0.2083 -0.9071
   72CHL1   H7A 7746   3.922   3.794   8.011 -1.3992  0.9271  1.4034
   72CHL1   H7B 7747   3.897   3.970   7.964 -0.5170 -0.2006 -0.3194
   72CHL1    C8 7748   3.716   3.881   7.981 -1.2956  0.5072  0.3058
   72CHL1    H8 7749   3.669   3.781   7.997 -1.3179  0.5870  0.7455
   72CHL1   C14 7750   3.696   3.960   8.110 -0.0481 -0.2435  0.3242
   72CHL1   H14 7751   3.746   4.056   8.088  0.0299 -0.3973 -0.1730
   72CHL1   C15 7752   3.763   3.913   8.244  0.7601  0.2412 -0.2230
   72CHL1  H15A 7753   3.743   3.804   8.249  0.4671  0.2594 -0.8906
   72CHL1  H15B 7754   3.872   3.928   8.257  1.4777 -3.8033 -0.4191
   72CHL1   C16 7755   3.682   3.984   8.351  0.0313 -0.1802  0.3459
   72CHL1  H16A 7756   3.629   3.900   8.401  0.5584  0.0049  1.2316
   72CHL1  H16B 7757   3.738   4.056   8.413 -0.8470  2.0161 -1.2838
   72CHL1   C17 7758   3.570   4.067   8.273  0.8156 -0.0113 -1.3472
   72CHL1   H17 7759   3.605   4.168   8.241  0.3253  0.9628  0.9816
   72CHL1   C13 7760   3.550   3.992   8.144  0.3606  0.3834  0.0217
   72CHL1   C18 7761   3.467   3.860   8.168  0.2401  0.0072 -0.6463
   72CHL1  H18A 7762   3.504   3.805   8.258  0.0413  1.0976  0.1182
   72CHL1  H18B 7763   3.362   3.889   8.186  0.7281  0.3952  2.0521
   72CHL1  H18C 7764   3.481   3.793   8.081 -0.0087 -1.4102  0.3660
   72CHL1   C12 7765   3.485   4.073   8.034  0.6836 -0.5850  0.1364
   72CHL1  H12A 7766   3.376   4.088   8.047  0.5646  1.3174 -2.2284
   72CHL1  H12B 7767   3.526   4.176   8.030 -0.3027 -0.1371  1.1122
   72CHL1   C11 7768   3.496   3.994   7.904  0.5063 -0.2818 -0.1961
   72CHL1  H11A 7769   3.429   3.905   7.906  0.1435 -0.0255 -0.7285
   72CHL1  H11B 7770   3.461   4.046   7.812  1.3532 -1.6794 -1.3568
   72CHL1    C9 7771   3.643   3.953   7.865  0.4501 -0.0526 -0.6746
   72CHL1    H9 7772   3.696   4.049   7.846 -2.0356  1.4213 -0.5618
   72CHL1   C10 7773   3.654   3.873   7.730  0.0931 -0.2781 -0.9074
   72CHL1   C19 7774   3.560   3.752   7.730  0.3754  0.0106 -0.0231
   72CHL1  H19A 7775   3.566   3.698   7.633  1.2245 -1.1252  0.6373
   72CHL1  H19B 7776   3.593   3.686   7.813  2.6324  0.9959 -0.0436
   72CHL1  H19C 7777   3.451   3.767   7.741  0.3838 -0.0377  0.1300
   72CHL1    C1 7778   3.623   3.972   7.609 -0.2083  0.2460 -0.2137
   72CHL1   H1A 7779   3.519   4.005   7.627 -0.7172 -0.6337 -1.4098
   72CHL1   H1B 7780   3.688   4.061   7.620 -0.3812  0.3676 -0.1696
   72CHL1    C2 7781   3.652   3.909   7.468  0.0943 -0.3020 -0.0423
   72CHL1   H2A 7782   3.623   3.973   7.382  0.1822  0.7467  0.6891
   72CHL1   H2B 7783   3.592   3.816   7.457 -0.1508 -0.0887 -0.5185
   72CHL1   C20 7784   3.444   4.080   8.368 -0.2544  0.0745  0.0976
   72CHL1   H20 7785   3.410   3.979   8.399 -0.4038 -0.4457 -1.6416
   72CHL1   C21 7786   3.329   4.163   8.308  0.6696  0.2112 -0.0432
   72CHL1  H21A 7787   3.261   4.202   8.387  1.6211  0.8805  0.4572
   72CHL1  H21B 7788   3.265   4.106   8.236  1.7327 -1.6890  0.4658
   72CHL1  H21C 7789   3.378   4.247   8.254 -0.2230  0.2935 -0.7520
   72CHL1   C22 7790   3.495   4.168   8.486 -0.4507  0.7842 -0.1353
   72CHL1  H22A 7791   3.576   4.113   8.539 -1.0114 -0.9659 -1.0103
   72CHL1  H22B 7792   3.532   4.263   8.443  2.3402 -0.5599 -0.9117
   72CHL1   C23 7793   3.405   4.215   8.604 -0.0127 -0.0817  0.0676
   72CHL1  H23A 7794   3.327   4.281   8.561 -0.8097 -1.5644 -0.8545
   72CHL1  H23B 7795   3.356   4.124   8.645  1.3662 -1.1386 -0.5364
   72CHL1   C24 7796   3.496   4.281   8.713  0.3101  0.7913  0.0185
   72CHL1  H24A 7797   3.579   4.208   8.727 -0.6989 -0.1132  1.5663
   72CHL1  H24B 7798   3.550   4.369   8.673  0.1932  0.9045  0.1086
   72CHL1   C25 7799   3.435   4.335   8.846 -0.4758 -0.1764  0.2725
   72CHL1   H25 7800   3.351   4.400   8.814 -1.3632 -0.8230  1.2301
   72CHL1   C26 7801   3.384   4.230   8.937 -0.1855 -0.7843 -0.5868
   72CHL1  H26A 7802   3.299   4.176   8.889 -0.0182 -0.1103 -1.6795
   72CHL1  H26B 7803   3.456   4.147   8.954 -0.9070 -1.1081  1.1164
   72CHL1  H26C 7804   3.350   4.272   9.034  2.1560 -0.1791  0.0294
   72CHL1   C27 7805   3.540   4.419   8.911  0.2583 -0.0459 -0.5008
   72CHL1  H27A 7806   3.569   4.500   8.840 -1.1899  1.7020  0.7988
   72CHL1  H27B 7807   3.505   4.469   9.004  0.3113  1.0418 -1.0547
   72CHL1  H27C 7808   3.630   4.357   8.928  1.7925  2.2363  0.1590
   73CHL1    C3 7809   3.625   1.418   7.222 -0.0652  0.2195  0.1775
   73CHL1    H3 7810   3.655   1.525   7.219  1.3231 -0.1372  0.8567
   73CHL1    O3 7811   3.610   1.370   7.093  0.5255 -0.2067 -0.5905
   73CHL1   H3' 7812   3.578   1.281   7.107 -0.6374  0.2732 -0.0082
   73CHL1    C4 7813   3.725   1.324   7.292 -0.0061 -0.2636 -0.0669
   73CHL1   H4A 7814   3.687   1.220   7.290 -2.7236  0.6416  0.3964
   73CHL1   H4B 7815   3.820   1.327   7.233 -0.2120  1.5063 -0.3877
   73CHL1    C5 7816   3.737   1.356   7.439 -1.1478 -0.4367 -0.3373
   73CHL1    C6 7817   3.858   1.389   7.494  0.2419  0.5964  0.7335
   73CHL1    H6 7818   3.944   1.378   7.426  0.3495  2.8801  0.4466
   73CHL1    C7 7819   3.874   1.430   7.636  0.0165 -0.7301 -0.7454
   73CHL1   H7A 7820   3.968   1.387   7.676 -0.8506 -0.3356  1.9065
   73CHL1   H7B 7821   3.883   1.541   7.634 -3.2316 -0.2877  1.7728
   73CHL1    C8 7822   3.752   1.393   7.726 -0.0360 -0.4050 -0.4193
   73CHL1    H8 7823   3.755   1.283   7.740 -0.1172 -0.3975 -0.3419
   73CHL1   C14 7824   3.753   1.463   7.861  0.2872 -0.1642 -0.3125
   73CHL1   H14 7825   3.756   1.572   7.842 -3.0302  0.4199  1.7862
   73CHL1   C15 7826   3.876   1.437   7.944 -0.4837  0.0910  0.2856
   73CHL1  H15A 7827   3.912   1.333   7.928 -1.6598 -0.0871 -1.3885
   73CHL1  H15B 7828   3.964   1.490   7.901 -0.7461  0.0767 -0.2776
   73CHL1   C16 7829   3.837   1.452   8.092  0.6077  0.4405 -0.5096
   73CHL1  H16A 7830   3.838   1.351   8.138 -0.4466  0.1283 -1.1305
   73CHL1  H16B 7831   3.912   1.519   8.138  1.0316 -0.2633 -0.1546
   73CHL1   C17 7832   3.690   1.507   8.085  0.0092  0.7841  0.1850
   73CHL1   H17 7833   3.702   1.615   8.061  0.3001  0.3316 -1.8077
   73CHL1   C13 7834   3.637   1.441   7.955  0.8788 -0.6278  0.5414
   73CHL1   C18 7835   3.605   1.296   7.995 -0.5499 -0.7971  1.0960
   73CHL1  H18A 7836   3.503   1.284   8.037 -1.4577 -1.8033 -1.1947
   73CHL1  H18B 7837   3.587   1.232   7.906  1.1316 -0.8893  0.7942
   73CHL1  H18C 7838   3.686   1.247   8.052  2.6403  2.2931 -0.4255
   73CHL1   C12 7839   3.513   1.494   7.886 -1.3175  0.1814  0.4322
   73CHL1  H12A 7840   3.420   1.468   7.941 -2.2721  0.2881 -1.0905
   73CHL1  H12B 7841   3.523   1.604   7.888 -0.6535  0.1249  0.6531
   73CHL1   C11 7842   3.504   1.435   7.741  0.3971  0.5042 -0.8188
   73CHL1  H11A 7843   3.489   1.326   7.758 -0.3775  0.7192 -0.0273
   73CHL1  H11B 7844   3.414   1.481   7.696 -0.8909 -0.4965  0.6284
   73CHL1    C9 7845   3.628   1.434   7.652 -0.2234  0.2877 -0.6292
   73CHL1    H9 7846   3.658   1.539   7.631  2.6244 -0.2244  0.4238
   73CHL1   C10 7847   3.609   1.370   7.518  0.2434  0.1869 -0.1488
   73CHL1   C19 7848   3.555   1.220   7.532  0.0946 -0.5471  0.5595
   73CHL1  H19A 7849   3.536   1.182   7.430  2.0331 -2.1736  0.7382
   73CHL1  H19B 7850   3.630   1.154   7.581  1.1485  0.6595  0.6331
   73CHL1  H19C 7851   3.462   1.216   7.593  0.2448 -4.3310  0.7883
   73CHL1    C1 7852   3.507   1.463   7.437  0.2225 -0.1997 -0.4307
   73CHL1   H1A 7853   3.408   1.456   7.488  0.5190 -1.3123  0.0268
   73CHL1   H1B 7854   3.535   1.570   7.445 -0.7072 -0.0871  2.4582
   73CHL1    C2 7855   3.487   1.422   7.295 -0.0625  0.7332 -0.0779
   73CHL1   H2A 7856   3.418   1.494   7.248 -0.9164  1.2589  1.8730
   73CHL1   H2B 7857   3.444   1.320   7.293 -1.1978  1.2056 -0.5055
   73CHL1   C20 7858   3.613   1.490   8.220  0.2235 -0.4480 -0.8588
   73CHL1   H20 7859   3.599   1.385   8.253  0.1402  0.1092  1.0109
   73CHL1   C21 7860   3.487   1.574   8.208  0.6870  0.2642 -0.0861
   73CHL1  H21A 7861   3.416   1.528   8.136 -1.4967  1.7320  1.0389
   73CHL1  H21B 7862   3.526   1.668   8.163 -1.0134  0.9632 -0.1892
   73CHL1  H21C 7863   3.432   1.595   8.302  1.5204  2.4048 -0.0110
   73CHL1   C22 7864   3.694   1.553   8.338 -0.7627  0.6545  0.0518
   73CHL1  H22A 7865   3.799   1.515   8.346 -0.8927  0.5800  1.6834
   73CHL1  H22B 7866   3.699   1.657   8.301 -1.3756 -0.0449 -2.2115
   73CHL1   C23 7867   3.623   1.545   8.472 -0.8387  0.5143 -0.0713
   73CHL1  H23A 7868   3.526   1.599   8.475 -1.6274 -0.7981  3.5339
   73CHL1  H23B 7869   3.599   1.440   8.497 -1.0661  0.8229  1.0480
   73CHL1   C24 7870   3.718   1.579   8.586  0.6795 -0.6446  0.0292
   73CHL1  H24A 7871   3.816   1.530   8.571  0.9252  0.2743 -1.4704
   73CHL1  H24B 7872   3.739   1.687   8.574  2.4145 -1.2736 -3.9348
   73CHL1   C25 7873   3.663   1.544   8.723  0.2255  0.2282 -0.1491
   73CHL1   H25 7874   3.640   1.435   8.721 -0.7327  0.4075  0.5220
   73CHL1   C26 7875   3.771   1.561   8.834 -1.5940 -0.1123 -0.3319
   73CHL1  H26A 7876   3.856   1.490   8.824 -2.1125 -1.0989  1.6672
   73CHL1  H26B 7877   3.806   1.666   8.839 -0.4592 -0.5282  3.4252
   73CHL1  H26C 7878   3.719   1.530   8.927 -2.7400  0.7375 -0.6680
   73CHL1   C27 7879   3.541   1.628   8.761  0.5353 -0.6542  0.8328
   73CHL1  H27A 7880   3.559   1.737   8.752 -3.2081 -0.0115 -0.6843
   73CHL1  H27B 7881   3.459   1.599   8.692  2.3821  0.9072 -2.2081
   73CHL1  H27C 7882   3.509   1.603   8.865  0.4457  2.4742  1.6623
   74CHL1    C3 7883   3.957   6.192   7.067 -0.0902 -0.4298 -0.2393
   74CHL1    H3 7884   3.959   6.299   7.099  1.3465 -0.4327 -0.2497
   74CHL1    O3 7885   3.953   6.188   6.923 -0.3394  0.5225 -0.4759
   74CHL1   H3' 7886   3.867   6.220   6.896 -1.3031 -2.5038 -1.5088
   74CHL1    C4 7887   4.091   6.126   7.113 -0.1437  0.1746 -0.5266
   74CHL1   H4A 7888   4.106   6.033   7.054 -2.1024 -0.5500  0.0526
   74CHL1   H4B 7889   4.168   6.199   7.081  0.8464  0.0000  1.3031
   74CHL1    C5 7890   4.107   6.089   7.257 -0.7463 -0.0676 -0.1931
   74CHL1    C6 7891   4.220   6.123   7.329 -0.4086 -0.4868  0.1216
   74CHL1    H6 7892   4.308   6.173   7.286 -0.4829 -0.8670 -0.4891
   74CHL1    C7 7893   4.235   6.100   7.475  0.3549 -0.3787 -0.5557
   74CHL1   H7A 7894   4.336   6.056   7.492  0.6652  1.1093  1.8787
   74CHL1   H7B 7895   4.235   6.193   7.536  0.2073 -0.3993 -0.5261
   74CHL1    C8 7896   4.126   6.011   7.538  0.2130  0.6464  0.1635
   74CHL1    H8 7897   4.144   5.903   7.522 -0.1771  0.5810  0.1466
   74CHL1   C14 7898   4.123   6.043   7.690 -0.6200 -0.1140  0.3929
   74CHL1   H14 7899   4.089   6.148   7.702  0.5780  0.3779 -0.3395
   74CHL1   C15 7900   4.260   6.042   7.756 -0.0779 -0.5393 -0.2739
   74CHL1  H15A 7901   4.324   5.959   7.718  0.5070 -0.5572  0.7139
   74CHL1  H15B 7902   4.315   6.134   7.726 -0.3751 -0.2063  0.1783
   74CHL1   C16 7903   4.236   6.026   7.899  0.5254 -0.2867 -0.0321
   74CHL1  H16A 7904   4.291   5.938   7.938 -0.6625 -0.9276  0.2298
   74CHL1  H16B 7905   4.260   6.119   7.955 -2.8402  0.7472 -0.1008
   74CHL1   C17 7906   4.081   6.010   7.918 -0.0050 -0.2168 -0.0372
   74CHL1   H17 7907   4.049   6.116   7.923  1.3408  0.3818 -2.4859
   74CHL1   C13 7908   4.031   5.959   7.775 -0.1100 -0.3654 -0.0878
   74CHL1   C18 7909   4.071   5.814   7.782 -0.1727  0.5570  0.7156
   74CHL1  H18A 7910   4.156   5.791   7.850 -0.2504  1.1730  1.0245
   74CHL1  H18B 7911   3.986   5.753   7.821 -0.3324  0.1096 -0.2842
   74CHL1  H18C 7912   4.085   5.777   7.678 -2.6037 -0.7918  0.7901
   74CHL1   C12 7913   3.885   5.979   7.728 -0.4874  0.7000 -0.3408
   74CHL1  H12A 7914   3.808   5.914   7.775 -0.0800 -0.7542 -1.5837
   74CHL1  H12B 7915   3.860   6.085   7.749  1.0964  0.9452  0.5092
   74CHL1   C11 7916   3.873   5.959   7.566  0.7133  0.3736 -0.9302
   74CHL1  H11A 7917   3.873   5.849   7.554 -0.9141 -0.2062  2.8469
   74CHL1  H11B 7918   3.772   5.991   7.532 -0.1319 -1.9014 -0.7166
   74CHL1    C9 7919   3.989   6.043   7.493 -0.0647  0.3943  0.9527
   74CHL1    H9 7920   3.966   6.148   7.519  0.3580 -0.4353  5.3659
   74CHL1   C10 7921   3.982   6.039   7.338 -0.1608  0.7817 -0.0748
   74CHL1   C19 7922   3.971   5.886   7.301  0.5646  0.7281  1.0793
   74CHL1  H19A 7923   4.051   5.815   7.331  1.0591  1.6534  1.9879
   74CHL1  H19B 7924   3.873   5.839   7.328  0.7983 -1.1064 -0.9744
   74CHL1  H19C 7925   3.967   5.885   7.189 -0.6004  0.5731  1.1009
   74CHL1    C1 7926   3.857   6.116   7.284  0.1476 -0.8781 -0.1237
   74CHL1   H1A 7927   3.765   6.079   7.333 -0.5798 -1.6013 -1.9473
   74CHL1   H1B 7928   3.884   6.216   7.323  0.7143 -1.4352  0.9853
   74CHL1    C2 7929   3.836   6.127   7.135 -0.4578 -0.1966 -0.2545
   74CHL1   H2A 7930   3.740   6.176   7.109 -0.1032  0.6551  0.0195
   74CHL1   H2B 7931   3.829   6.023   7.096  0.0303 -0.6659  0.8729
   74CHL1   C20 7932   4.034   5.938   8.042  0.1737 -0.3417  0.0324
   74CHL1   H20 7933   4.085   5.839   8.053 -0.3812 -0.6322  0.0352
   74CHL1   C21 7934   3.883   5.913   8.040  0.0281 -0.8203  0.3794
   74CHL1  H21A 7935   3.849   5.873   8.138 -0.4701 -2.3022 -0.3721
   74CHL1  H21B 7936   3.842   5.845   7.963 -0.7239  1.1304 -1.0281
   74CHL1  H21C 7937   3.837   6.013   8.025  0.7308 -0.1780  2.2054
   74CHL1   C22 7938   4.089   6.013   8.172 -0.1414 -0.6228 -0.1885
   74CHL1  H22A 7939   4.199   6.027   8.164 -0.1591 -0.4183 -0.0887
   74CHL1  H22B 7940   4.034   6.107   8.193 -0.0936 -0.5644 -0.3260
   74CHL1   C23 7941   4.093   5.917   8.297 -0.3878  0.3011 -0.0295
   74CHL1  H23A 7942   4.001   5.856   8.311  0.4119 -2.1809 -3.9991
   74CHL1  H23B 7943   4.154   5.831   8.262 -1.5611 -0.7055  0.3203
   74CHL1   C24 7944   4.162   5.985   8.418 -0.1699 -0.2941 -1.2870
   74CHL1  H24A 7945   4.184   5.910   8.497  0.2766 -0.0328 -1.1572
   74CHL1  H24B 7946   4.259   6.036   8.397  1.6333 -2.8063  0.4052
   74CHL1   C25 7947   4.066   6.093   8.484  0.2029 -0.5266 -0.1238
   74CHL1   H25 7948   4.084   6.180   8.417 -0.4179  0.8076  1.3769
   74CHL1   C26 7949   3.915   6.050   8.476  0.1589 -0.0762  0.1437
   74CHL1  H26A 7950   3.906   5.948   8.520 -0.8321  0.1045  0.3835
   74CHL1  H26B 7951   3.846   6.126   8.519 -0.0401  0.3615 -0.9220
   74CHL1  H26C 7952   3.877   6.049   8.371 -1.3602  0.0653  0.6607
   74CHL1   C27 7953   4.100   6.118   8.631 -0.4518 -0.0525  1.0779
   74CHL1  H27A 7954   4.094   6.020   8.682  1.2132 -2.1546 -2.3699
   74CHL1  H27B 7955   4.205   6.152   8.639  0.0094 -1.6912  2.4681
   74CHL1  H27C 7956   4.037   6.199   8.673 -0.1249  1.2166 -0.7630
   75CHL1    C3 7957   6.099   0.759   6.993 -0.8394  0.5317  0.0352
   75CHL1    H3 7958   5.988   0.768   6.999 -1.2342  0.7642 -4.4937
   75CHL1    O3 7959   6.126   0.719   6.859  0.2634 -0.0314 -0.4657
   75CHL1   H3' 7960   6.188   0.646   6.855  0.0633 -0.1578 -3.1218
   75CHL1    C4 7961   6.169   0.890   7.016 -0.3678  0.1986 -0.2372
   75CHL1   H4A 7962   6.276   0.863   7.010 -0.5093 -0.1705 -1.4625
   75CHL1   H4B 7963   6.143   0.954   6.929 -4.5371  0.4067  0.9576
   75CHL1    C5 7964   6.134   0.955   7.153 -0.0184  0.1451  0.1460
   75CHL1    C6 7965   6.080   1.079   7.170  0.0092 -0.9502 -0.1859
   75CHL1    H6 7966   6.064   1.137   7.078 -0.7757 -0.3548  0.3116
   75CHL1    C7 7967   6.035   1.139   7.303 -0.2829  0.6528  0.4153
   75CHL1   H7A 7968   6.079   1.240   7.314 -0.9603  0.6576  4.8944
   75CHL1   H7B 7969   5.927   1.162   7.295 -0.2899  0.8401  0.9840
   75CHL1    C8 7970   6.080   1.052   7.420 -0.1769  0.1817 -0.4315
   75CHL1    H8 7971   6.182   1.091   7.443 -1.2717  1.9149  1.9639
   75CHL1   C14 7972   5.990   1.085   7.540 -0.0430  0.1379 -0.1220
   75CHL1   H14 7973   5.895   1.041   7.505  1.1938 -2.5004 -0.3703
   75CHL1   C15 7974   5.977   1.234   7.583 -0.5008 -0.0464 -0.7730
   75CHL1  H15A 7975   6.081   1.274   7.583  0.4787 -2.2594 -3.0821
   75CHL1  H15B 7976   5.902   1.297   7.532  1.7298  1.0347 -2.9391
   75CHL1   C16 7977   5.941   1.225   7.729  0.4439 -0.3567  0.3337
   75CHL1  H16A 7978   5.997   1.299   7.791 -0.2535  0.3594  0.1172
   75CHL1  H16B 7979   5.842   1.268   7.753  0.8798  1.7067 -1.3425
   75CHL1   C17 7980   5.950   1.079   7.773  0.0023 -0.2125 -0.2143
   75CHL1   H17 7981   5.848   1.035   7.767  0.3053 -0.9399 -0.1538
   75CHL1   C13 7982   6.036   1.015   7.666 -0.0143  0.9790  0.7456
   75CHL1   C18 7983   6.191   1.030   7.691 -0.0334 -0.6077  0.2878
   75CHL1  H18A 7984   6.213   0.981   7.788  0.3697 -0.1647  0.4284
   75CHL1  H18B 7985   6.261   0.976   7.622 -0.7702 -1.6919  0.3720
   75CHL1  H18C 7986   6.217   1.138   7.686  2.6208 -1.2196 -2.0855
   75CHL1   C12 7987   6.012   0.867   7.645 -0.1212 -0.2756  0.1542
   75CHL1  H12A 7988   6.042   0.805   7.732 -2.1626 -1.6433 -0.0676
   75CHL1  H12B 7989   5.907   0.838   7.627 -0.0993  0.4881 -1.3888
   75CHL1   C11 7990   6.087   0.817   7.521  0.0534 -0.4699 -0.3139
   75CHL1  H11A 7991   6.196   0.811   7.544 -0.4065  1.5139  2.8897
   75CHL1  H11B 7992   6.052   0.714   7.497  0.0881 -0.9441  1.5453
   75CHL1    C9 7993   6.078   0.910   7.392 -0.1636  0.7054 -0.0594
   75CHL1    H9 7994   5.975   0.887   7.357  0.7232 -0.9309 -1.7911
   75CHL1   C10 7995   6.161   0.859   7.273  0.0804  0.0542 -0.0089
   75CHL1   C19 7996   6.313   0.861   7.320  0.9193 -0.1089  0.1881
   75CHL1  H19A 7997   6.374   0.822   7.236 -0.6394 -1.0347 -0.5482
   75CHL1  H19B 7998   6.333   0.968   7.345 -2.3513  0.6063  0.2251
   75CHL1  H19C 7999   6.325   0.790   7.405  1.3086 -1.2823 -0.8210
   75CHL1    C1 8000   6.110   0.713   7.240 -0.0935 -0.1568  0.5548
   75CHL1   H1A 8001   6.128   0.635   7.318  0.9015  1.6315  2.1895
   75CHL1   H1B 8002   6.000   0.732   7.242  0.3388  2.7131  1.9847
   75CHL1    C2 8003   6.155   0.657   7.097 -0.0354  0.3622  0.4984
   75CHL1   H2A 8004   6.107   0.558   7.082  0.4006  0.4322 -1.8181
   75CHL1   H2B 8005   6.266   0.649   7.090 -0.0422 -0.3948  1.1581
   75CHL1   C20 8006   5.992   1.060   7.922  0.3496  0.1069 -0.2622
   75CHL1   H20 8007   6.091   1.107   7.939 -0.0683  0.8537  0.1269
   75CHL1   C21 8008   5.998   0.914   7.959 -0.0520  0.8131  0.1874
   75CHL1  H21A 8009   6.083   0.861   7.912  0.9246  2.4061  0.0807
   75CHL1  H21B 8010   5.908   0.853   7.937  1.1150 -0.4881 -1.2461
   75CHL1  H21C 8011   6.014   0.899   8.068  1.8381 -0.4441 -0.2259
   75CHL1   C22 8012   5.895   1.139   8.022 -0.1684  0.6482  0.1173
   75CHL1  H22A 8013   5.862   1.239   7.988  3.6837  2.3153  0.7337
   75CHL1  H22B 8014   5.806   1.073   8.023  0.8547 -0.7855 -0.3381
   75CHL1   C23 8015   5.954   1.158   8.168  0.2022 -0.1968  0.7625
   75CHL1  H23A 8016   5.996   1.064   8.210  0.1955 -0.0149  1.1811
   75CHL1  H23B 8017   6.031   1.235   8.153 -1.2260  1.2579  0.6228
   75CHL1   C24 8018   5.835   1.213   8.257  0.2057 -0.4700  0.6736
   75CHL1  H24A 8019   5.783   1.300   8.211 -2.4101 -1.2837  1.9103
   75CHL1  H24B 8020   5.759   1.132   8.247 -0.0930 -0.3444  1.8421
   75CHL1   C25 8021   5.865   1.224   8.405 -0.0370  0.0055 -0.2115
   75CHL1   H25 8022   5.937   1.142   8.426  1.0387  1.0741  0.3814
   75CHL1   C26 8023   5.910   1.359   8.458 -0.9550  0.0338  0.2556
   75CHL1  H26A 8024   5.815   1.417   8.461 -1.6934 -1.1567  2.5566
   75CHL1  H26B 8025   5.954   1.354   8.561 -0.2684 -1.2399 -0.0801
   75CHL1  H26C 8026   5.980   1.420   8.397 -0.7800 -1.8742 -1.5355
   75CHL1   C27 8027   5.731   1.188   8.475 -0.0435  0.0762 -1.0401
   75CHL1  H27A 8028   5.701   1.083   8.454 -0.1682 -0.2070  0.4417
   75CHL1  H27B 8029   5.728   1.200   8.585 -0.7132  1.9945 -1.2329
   75CHL1  H27C 8030   5.638   1.231   8.432 -0.6839 -0.3798 -0.1492
   76CHL1    C3 8031   1.942   3.767   7.562 -0.2218  0.2275 -0.0529
   76CHL1    H3 8032   2.031   3.704   7.584 -1.0483 -0.4802  1.3966
   76CHL1    O3 8033   1.900   3.736   7.432  0.5334 -0.3788 -0.2984
   76CHL1   H3' 8034   1.886   3.824   7.396 -0.0855 -1.2490 -2.3168
   76CHL1    C4 8035   1.838   3.722   7.667 -0.3294  0.0559  0.2275
   76CHL1   H4A 8036   1.732   3.745   7.645 -0.1286 -0.9146 -1.9964
   76CHL1   H4B 8037   1.847   3.613   7.651 -0.0183  0.2453 -0.9880
   76CHL1    C5 8038   1.887   3.762   7.802 -0.3044 -0.2604 -0.2815
   76CHL1    C6 8039   1.892   3.682   7.907 -1.1578 -0.1376  0.8998
   76CHL1    H6 8040   1.872   3.576   7.883 -1.1077  0.4958 -2.5563
   76CHL1    C7 8041   1.931   3.722   8.043  0.5462 -0.0712 -0.9046
   76CHL1   H7A 8042   1.869   3.669   8.118  1.6714 -0.0846  0.0447
   76CHL1   H7B 8043   2.029   3.679   8.073  0.5743  0.9628  0.6151
   76CHL1    C8 8044   1.915   3.873   8.069  0.3574 -0.8531 -0.1096
   76CHL1    H8 8045   1.809   3.904   8.062  0.5556 -0.3280 -1.0074
   76CHL1   C14 8046   1.971   3.921   8.202  0.0427 -0.0297  0.1074
   76CHL1   H14 8047   2.079   3.896   8.200 -0.0160 -0.2771 -2.4835
   76CHL1   C15 8048   1.907   3.844   8.323 -0.6461 -0.4688 -0.2254
   76CHL1  H15A 8049   1.797   3.845   8.306 -1.2606 -2.0385  2.9657
   76CHL1  H15B 8050   1.952   3.743   8.331  3.3968  1.1966  0.4550
   76CHL1   C16 8051   1.939   3.930   8.439 -0.4386 -0.3678 -1.0731
   76CHL1  H16A 8052   1.852   3.938   8.506  1.2988  0.6114  1.1851
   76CHL1  H16B 8053   2.012   3.876   8.502  0.0852  0.2517 -1.1353
   76CHL1   C17 8054   1.998   4.073   8.387  0.4546  0.4011  0.2197
   76CHL1   H17 8055   2.108   4.060   8.389  0.2378 -1.8281  1.2827
   76CHL1   C13 8056   1.956   4.073   8.233 -0.0898 -0.0677 -0.4196
   76CHL1   C18 8057   1.805   4.112   8.230 -0.1384  0.8021 -0.3973
   76CHL1  H18A 8058   1.778   4.107   8.122  1.7791  0.7493 -0.9191
   76CHL1  H18B 8059   1.740   4.047   8.292  0.5930  0.8998  0.4764
   76CHL1  H18C 8060   1.798   4.218   8.260  2.7955  0.5491  1.5521
   76CHL1   C12 8061   2.041   4.154   8.139 -0.4304  0.3879  0.0926
   76CHL1  H12A 8062   2.032   4.264   8.143 -1.9391  0.2626  2.0756
   76CHL1  H12B 8063   2.146   4.127   8.163 -0.3690 -0.2817 -0.8442
   76CHL1   C11 8064   2.008   4.106   7.986 -0.4027  0.3102  0.9574
   76CHL1  H11A 8065   1.915   4.164   7.970 -1.3099 -1.5673 -1.1538
   76CHL1  H11B 8066   2.090   4.159   7.933  0.3984 -1.7679  0.0009
   76CHL1    C9 8067   1.985   3.955   7.958 -0.3078  0.5034 -0.0699
   76CHL1    H9 8068   2.082   3.901   7.962 -0.1818  0.4777 -2.2158
   76CHL1   C10 8069   1.922   3.915   7.822  0.2118  0.7952  0.0183
   76CHL1   C19 8070   1.786   3.994   7.811 -0.8075  0.1153  1.2176
   76CHL1  H19A 8071   1.722   3.973   7.900 -0.5077 -2.0528  0.9762
   76CHL1  H19B 8072   1.808   4.103   7.812  0.7755 -0.0989 -1.0065
   76CHL1  H19C 8073   1.734   3.979   7.714  2.0310  0.7434 -0.5176
   76CHL1    C1 8074   2.026   3.947   7.711  0.1117  0.3902 -0.2615
   76CHL1   H1A 8075   2.051   4.055   7.713  1.1557  0.1568 -0.3010
   76CHL1   H1B 8076   2.111   3.877   7.726  0.2111  0.2290 -1.4180
   76CHL1    C2 8077   1.974   3.912   7.576  0.0097  0.3060  0.6528
   76CHL1   H2A 8078   2.049   3.943   7.500  1.2202 -1.4340  1.0984
   76CHL1   H2B 8079   1.884   3.977   7.570  0.2071  0.5611  0.4284
   76CHL1   C20 8080   1.961   4.196   8.475 -0.6916  0.4316 -0.1270
   76CHL1   H20 8081   1.856   4.224   8.456 -0.3149  1.7539 -0.3747
   76CHL1   C21 8082   2.044   4.326   8.437 -0.0583  0.0541 -0.3154
   76CHL1  H21A 8083   2.033   4.340   8.328  0.8591 -0.6756 -0.5163
   76CHL1  H21B 8084   2.147   4.327   8.479 -0.4067 -0.6765  0.5824
   76CHL1  H21C 8085   1.992   4.415   8.479 -0.0271 -0.4403  0.8137
   76CHL1   C22 8086   1.972   4.166   8.626 -0.5835 -0.7712 -0.1309
   76CHL1  H22A 8087   1.897   4.091   8.657 -1.7608  1.3569  2.6576
   76CHL1  H22B 8088   2.079   4.143   8.645  0.5728  2.6133 -1.6405
   76CHL1   C23 8089   1.947   4.287   8.709  0.1073 -0.4026 -0.2794
   76CHL1  H23A 8090   2.031   4.357   8.688  0.0477 -0.2597 -0.0362
   76CHL1  H23B 8091   1.853   4.339   8.679  0.2836  0.0706 -0.0217
   76CHL1   C24 8092   1.948   4.260   8.862 -0.6554  0.2799  0.9760
   76CHL1  H24A 8093   1.863   4.193   8.888  0.4962 -2.2336 -1.2065
   76CHL1  H24B 8094   2.037   4.196   8.883 -0.7818  0.2700  1.4898
   76CHL1   C25 8095   1.977   4.387   8.944  0.0624 -0.1152  0.5818
   76CHL1   H25 8096   2.066   4.419   8.886 -0.8818 -2.2761 -2.2946
   76CHL1   C26 8097   1.861   4.485   8.934 -0.3858  0.2503 -0.7281
   76CHL1  H26A 8098   1.841   4.520   8.831  0.3967  1.0829 -0.6110
   76CHL1  H26B 8099   1.772   4.443   8.985 -0.0949  0.0217 -0.4023
   76CHL1  H26C 8100   1.898   4.568   8.998  0.5751  1.1156 -2.3638
   76CHL1   C27 8101   2.008   4.347   9.090  0.2161 -0.1279  0.2874
   76CHL1  H27A 8102   1.915   4.331   9.149  1.2987  0.4741  2.2396
   76CHL1  H27B 8103   2.081   4.265   9.102 -0.1688 -0.5050  0.0640
   76CHL1  H27C 8104   2.053   4.431   9.146 -2.5797  1.4574  0.3465
   77CHL1    C3 8105   4.765   1.245   7.058  0.9132 -0.7733 -0.2597
   77CHL1    H3 8106   4.665   1.199   7.038  0.7755  0.3125 -2.3639
   77CHL1    O3 8107   4.826   1.265   6.931  0.7183 -0.0664  0.1734
   77CHL1   H3' 8108   4.893   1.332   6.948  1.3885 -0.5784 -0.3818
   77CHL1    C4 8109   4.749   1.387   7.113 -0.7712  0.1655  0.6418
   77CHL1   H4A 8110   4.852   1.424   7.135 -0.2783 -0.8571  0.1522
   77CHL1   H4B 8111   4.704   1.457   7.040 -1.1332 -1.1746 -0.4737
   77CHL1    C5 8112   4.665   1.384   7.238 -0.4286  1.1640 -0.5028
   77CHL1    C6 8113   4.554   1.455   7.259 -0.4993  0.0337 -0.3894
   77CHL1    H6 8114   4.511   1.528   7.188 -0.4707 -0.1652 -0.6145
   77CHL1    C7 8115   4.477   1.463   7.384 -0.1922 -0.7113 -0.8844
   77CHL1   H7A 8116   4.463   1.569   7.414  0.0973 -1.0281  0.4628
   77CHL1   H7B 8117   4.375   1.424   7.371 -1.2747  1.5727  0.0747
   77CHL1    C8 8118   4.545   1.385   7.503 -0.0824  0.2493 -0.2370
   77CHL1    H8 8119   4.623   1.447   7.550 -0.4307  2.1888 -2.0457
   77CHL1   C14 8120   4.432   1.360   7.602  0.9414 -0.0237 -0.2059
   77CHL1   H14 8121   4.357   1.297   7.549  0.2627  1.4762 -1.0743
   77CHL1   C15 8122   4.339   1.474   7.656  0.3466  0.5988  0.2529
   77CHL1  H15A 8123   4.398   1.564   7.682 -0.6301  1.6438 -0.9863
   77CHL1  H15B 8124   4.259   1.488   7.580  1.0816 -0.5176 -0.7639
   77CHL1   C16 8125   4.285   1.409   7.789  0.1910 -0.1854 -0.9402
   77CHL1  H16A 8126   4.328   1.471   7.871 -0.7966  1.3866 -1.5544
   77CHL1  H16B 8127   4.177   1.396   7.808  0.4299 -1.0761 -0.1090
   77CHL1   C17 8128   4.344   1.271   7.814 -0.3049  1.1310  0.8864
   77CHL1   H17 8129   4.282   1.192   7.766  0.8137  0.6651  0.1609
   77CHL1   C13 8130   4.473   1.274   7.723 -0.5372  0.5245 -0.3425
   77CHL1   C18 8131   4.590   1.344   7.800 -0.1234 -0.0089 -0.2678
   77CHL1  H18A 8132   4.623   1.292   7.893 -2.3269 -1.1733 -0.0731
   77CHL1  H18B 8133   4.676   1.361   7.732 -0.1631 -1.1346 -0.6172
   77CHL1  H18C 8134   4.566   1.448   7.829 -0.0292 -0.3348  1.0531
   77CHL1   C12 8135   4.517   1.134   7.666 -0.3041 -0.2441 -0.2984
   77CHL1  H12A 8136   4.567   1.067   7.740 -0.9890  0.6928  1.0490
   77CHL1  H12B 8137   4.431   1.084   7.619  1.5354 -2.1509 -1.8342
   77CHL1   C11 8138   4.628   1.151   7.563 -0.6707  0.6264 -0.2000
   77CHL1  H11A 8139   4.717   1.177   7.624 -0.2894  3.0458 -1.6214
   77CHL1  H11B 8140   4.667   1.058   7.517  0.4614  1.1380 -0.3171
   77CHL1    C9 8141   4.603   1.252   7.449 -0.7300 -0.1889  0.0772
   77CHL1    H9 8142   4.526   1.202   7.386 -2.6605  1.6955  0.7780
   77CHL1   C10 8143   4.720   1.276   7.345  0.9117 -0.2313  0.7424
   77CHL1   C19 8144   4.835   1.343   7.415  0.5004  0.5119  0.1101
   77CHL1  H19A 8145   4.808   1.432   7.475  1.1798  0.2093  0.8780
   77CHL1  H19B 8146   4.878   1.269   7.485 -0.5887 -4.1868 -3.6798
   77CHL1  H19C 8147   4.920   1.369   7.348  0.0641  0.5361 -0.4470
   77CHL1    C1 8148   4.770   1.145   7.281  0.3970 -0.6013 -0.2332
   77CHL1   H1A 8149   4.825   1.088   7.359 -0.8375 -0.1384  0.9984
   77CHL1   H1B 8150   4.679   1.094   7.243 -1.6788  3.3896 -1.1245
   77CHL1    C2 8151   4.845   1.165   7.156 -0.0570 -0.2361  0.4873
   77CHL1   H2A 8152   4.863   1.066   7.110 -1.4720 -0.2382 -0.1197
   77CHL1   H2B 8153   4.936   1.227   7.171 -0.9849  1.7109 -1.3033
   77CHL1   C20 8154   4.358   1.229   7.953  0.0365 -0.7669 -0.1087
   77CHL1   H20 8155   4.438   1.288   8.002 -0.3136  0.0815 -0.5273
   77CHL1   C21 8156   4.397   1.078   7.963  0.1406  0.0084  0.0573
   77CHL1  H21A 8157   4.501   1.053   7.933  0.1004 -2.1672  1.5379
   77CHL1  H21B 8158   4.319   1.010   7.922  0.1557  0.8257 -1.3924
   77CHL1  H21C 8159   4.405   1.068   8.073  2.3776  0.1718 -0.0439
   77CHL1   C22 8160   4.234   1.264   8.047  0.6553  0.0120  0.2561
   77CHL1  H22A 8161   4.219   1.373   8.033 -0.9761 -0.0337  1.3821
   77CHL1  H22B 8162   4.140   1.220   8.011  0.2522  1.7314 -0.9337
   77CHL1   C23 8163   4.251   1.245   8.205  0.3823  0.4549 -0.5256
   77CHL1  H23A 8164   4.250   1.136   8.225  1.4422  0.6841  0.9637
   77CHL1  H23B 8165   4.352   1.286   8.228  0.5652  0.4965 -1.3937
   77CHL1   C24 8166   4.145   1.320   8.282 -1.2200 -0.0183 -0.1297
   77CHL1  H24A 8167   4.150   1.428   8.255  2.1714  0.2245  1.0165
   77CHL1  H24B 8168   4.048   1.276   8.250 -0.6769 -2.8524  1.7736
   77CHL1   C25 8169   4.167   1.301   8.428 -0.2688 -0.0738 -0.0272
   77CHL1   H25 8170   4.151   1.194   8.454  2.4768 -0.3829  0.6567
   77CHL1   C26 8171   4.309   1.346   8.477  0.5563 -0.3418  0.2548
   77CHL1  H26A 8172   4.327   1.453   8.454  0.0413 -0.4190 -0.5536
   77CHL1  H26B 8173   4.322   1.336   8.586 -0.8860  1.3709  0.6292
   77CHL1  H26C 8174   4.385   1.292   8.417  0.3695 -0.5074  0.1649
   77CHL1   C27 8175   4.060   1.384   8.504  0.5669  0.2620 -0.6583
   77CHL1  H27A 8176   4.076   1.491   8.479  0.4198  0.4749  0.1336
   77CHL1  H27B 8177   3.955   1.357   8.477  0.6202 -0.9191  0.2296
   77CHL1  H27C 8178   4.067   1.373   8.614  0.7035  0.6773 -0.6222
   78CHL1    C3 8179   4.888   2.555   6.987 -0.1540 -0.4890  0.3117
   78CHL1    H3 8180   4.938   2.653   7.004 -1.9257  0.2342  1.6913
   78CHL1    O3 8181   4.862   2.552   6.848 -0.9672 -0.3180 -0.2618
   78CHL1   H3' 8182   4.845   2.458   6.832 -3.2405  0.3378 -2.2820
   78CHL1    C4 8183   4.972   2.434   7.028  0.1795 -0.3792 -0.1913
   78CHL1   H4A 8184   4.925   2.335   7.010  0.3403 -0.7445  1.2569
   78CHL1   H4B 8185   5.066   2.432   6.969 -0.7915  1.2522 -1.9417
   78CHL1    C5 8186   4.991   2.457   7.180 -0.4972 -0.1149 -0.2853
   78CHL1    C6 8187   5.110   2.463   7.242 -0.9150 -0.0524 -0.1573
   78CHL1    H6 8188   5.201   2.446   7.181 -0.4086  2.5930 -0.2618
   78CHL1    C7 8189   5.132   2.467   7.394  0.2115 -0.0173 -0.3460
   78CHL1   H7A 8190   5.209   2.399   7.436 -1.6577 -1.3392  1.1007
   78CHL1   H7B 8191   5.164   2.571   7.418  0.4963 -0.3070  0.5519
   78CHL1    C8 8192   5.003   2.446   7.482  0.5977 -0.0036 -0.0884
   78CHL1    H8 8193   4.983   2.337   7.481 -2.2201  0.4081 -2.1362
   78CHL1   C14 8194   5.010   2.489   7.629 -0.1821  0.1139 -0.3162
   78CHL1   H14 8195   5.019   2.599   7.617  0.9806 -0.0584 -1.1975
   78CHL1   C15 8196   5.132   2.447   7.708 -0.2579 -0.1116 -0.3674
   78CHL1  H15A 8197   5.147   2.338   7.694  1.1183  0.0689 -0.3603
   78CHL1  H15B 8198   5.224   2.494   7.670 -0.2149 -0.1794 -0.3485
   78CHL1   C16 8199   5.101   2.482   7.850 -0.7247 -1.0086  0.8937
   78CHL1  H16A 8200   5.135   2.388   7.898  1.5570 -1.2599 -1.0016
   78CHL1  H16B 8201   5.169   2.567   7.872  1.6711 -2.9823  1.4846
   78CHL1   C17 8202   4.953   2.523   7.852 -0.2617 -0.6656 -0.1492
   78CHL1   H17 8203   4.936   2.631   7.838  0.3074 -0.3548  1.3795
   78CHL1   C13 8204   4.889   2.462   7.717 -1.0047 -0.7991  0.0757
   78CHL1   C18 8205   4.866   2.314   7.720  0.3909  0.0924 -0.1263
   78CHL1  H18A 8206   4.829   2.276   7.622  2.8818 -1.2617 -0.6182
   78CHL1  H18B 8207   4.955   2.257   7.754  1.7073  3.0098  1.7195
   78CHL1  H18C 8208   4.786   2.290   7.794 -0.0253  0.0980 -0.5665
   78CHL1   C12 8209   4.771   2.544   7.654 -0.3961 -0.6252 -0.2751
   78CHL1  H12A 8210   4.674   2.524   7.704 -0.7927  1.3325 -0.1821
   78CHL1  H12B 8211   4.794   2.651   7.670  0.5107 -1.0470  1.4414
   78CHL1   C11 8212   4.760   2.507   7.504 -0.1567  0.0075  0.7823
   78CHL1  H11A 8213   4.715   2.406   7.490 -0.7133  0.1779  1.2856
   78CHL1  H11B 8214   4.684   2.579   7.466  0.1719  0.2926  0.6653
   78CHL1    C9 8215   4.890   2.519   7.418  0.8444  0.1158  0.2872
   78CHL1    H9 8216   4.927   2.623   7.414  1.9816 -0.2238  1.4765
   78CHL1   C10 8217   4.867   2.471   7.269 -0.3459 -0.1168 -0.4327
   78CHL1   C19 8218   4.795   2.331   7.269 -0.6885 -0.7215  0.1700
   78CHL1  H19A 8219   4.837   2.266   7.349 -1.7843 -1.2863  0.3165
   78CHL1  H19B 8220   4.687   2.350   7.289 -0.6326 -1.4288  1.2349
   78CHL1  H19C 8221   4.808   2.271   7.177  0.5819 -0.3581  0.0942
   78CHL1    C1 8222   4.771   2.573   7.204  0.5342  0.4463 -0.2444
   78CHL1   H1A 8223   4.667   2.572   7.242  0.6098  0.0589 -0.0403
   78CHL1   H1B 8224   4.813   2.675   7.220  0.2480  0.3811  1.0002
   78CHL1    C2 8225   4.751   2.559   7.050 -1.0689  0.1613 -0.2212
   78CHL1   H2A 8226   4.693   2.636   6.993 -0.0074  2.1124  1.2246
   78CHL1   H2B 8227   4.704   2.460   7.035 -0.4328  0.1157 -2.1890
   78CHL1   C20 8228   4.886   2.486   7.983 -0.6525 -0.4097 -0.2556
   78CHL1   H20 8229   4.901   2.376   7.992  0.5518 -0.1675  1.0173
   78CHL1   C21 8230   4.730   2.520   7.980 -0.2814  0.3518  0.3845
   78CHL1  H21A 8231   4.697   2.623   7.953 -1.4849 -0.8076 -3.0891
   78CHL1  H21B 8232   4.686   2.508   8.081  3.1161  1.7247  2.2013
   78CHL1  H21C 8233   4.680   2.449   7.911  2.1756 -2.0575  0.8880
   78CHL1   C22 8234   4.960   2.541   8.106  0.8076  0.1749 -0.1708
   78CHL1  H22A 8235   5.067   2.514   8.108  0.5234 -1.6792 -3.4339
   78CHL1  H22B 8236   4.973   2.652   8.102  3.1860  0.0271  1.4716
   78CHL1   C23 8237   4.896   2.503   8.238  0.5063 -0.2006 -0.2265
   78CHL1  H23A 8238   4.802   2.560   8.254  2.0520  3.1622 -2.0053
   78CHL1  H23B 8239   4.875   2.394   8.233 -2.1654  0.2664 -0.6506
   78CHL1   C24 8240   4.984   2.527   8.358 -0.0849  0.2640 -0.1059
   78CHL1  H24A 8241   5.078   2.470   8.344  0.2665 -0.1637  3.0986
   78CHL1  H24B 8242   5.020   2.630   8.377 -1.0486  0.4929  0.5860
   78CHL1   C25 8243   4.912   2.488   8.493  0.4879  0.1077 -0.0758
   78CHL1   H25 8244   4.870   2.386   8.494  0.0110  0.2924  1.9538
   78CHL1   C26 8245   5.018   2.509   8.603 -0.3128  0.1768 -0.3679
   78CHL1  H26A 8246   5.044   2.617   8.613 -1.2163  0.2574  1.4575
   78CHL1  H26B 8247   4.975   2.478   8.700  0.1307  1.4016  0.2432
   78CHL1  H26C 8248   5.110   2.451   8.580 -0.8592 -0.2478 -1.5857
   78CHL1   C27 8249   4.787   2.577   8.518 -0.3265 -0.3349 -0.2632
   78CHL1  H27A 8250   4.693   2.542   8.470  0.0012 -0.8779 -0.5217
   78CHL1  H27B 8251   4.762   2.588   8.626 -1.2715 -0.6998 -0.4356
   78CHL1  H27C 8252   4.810   2.674   8.469 -0.1272 -0.8709 -1.2452
   79CHL1    C3 8253   2.645   2.072   7.364 -0.4019 -0.4717 -0.4464
   79CHL1    H3 8254   2.699   2.167   7.385 -1.4683 -0.5713  3.4736
   79CHL1    O3 8255   2.647   2.030   7.234 -0.4039  0.7851  0.1458
   79CHL1   H3' 8256   2.609   1.942   7.233  1.6926 -0.3853 -4.1032
   79CHL1    C4 8257   2.723   1.964   7.447  0.5751  0.2206 -0.1872
   79CHL1   H4A 8258   2.678   1.866   7.418  0.7950 -0.2594  1.0281
   79CHL1   H4B 8259   2.828   1.956   7.413  0.7953 -2.2088  0.8415
   79CHL1    C5 8260   2.709   1.979   7.596  0.2001  0.7648 -0.1238
   79CHL1    C6 8261   2.823   1.989   7.667  0.4854  1.0701 -0.1991
   79CHL1    H6 8262   2.921   1.977   7.619 -0.7506 -3.6403 -2.0859
   79CHL1    C7 8263   2.810   1.990   7.823 -0.9938  0.1257 -0.3236
   79CHL1   H7A 8264   2.882   1.924   7.876 -1.9164 -0.0293  0.7588
   79CHL1   H7B 8265   2.832   2.092   7.861  0.8756 -0.0103 -0.9241
   79CHL1    C8 8266   2.668   1.948   7.879 -0.3698  0.1618 -0.4992
   79CHL1    H8 8267   2.662   1.839   7.858  0.0011  0.0452 -0.0239
   79CHL1   C14 8268   2.652   1.984   8.024 -0.5037  0.2434  0.4615
   79CHL1   H14 8269   2.666   2.092   8.046 -1.2915  0.3341  0.5481
   79CHL1   C15 8270   2.759   1.927   8.121  0.2383  0.1484  0.1418
   79CHL1  H15A 8271   2.767   1.824   8.080  2.4065  0.0359  0.7093
   79CHL1  H15B 8272   2.854   1.984   8.122  0.2380  0.1547  1.3199
   79CHL1   C16 8273   2.690   1.935   8.262  0.7691 -1.1223 -0.5209
   79CHL1  H16A 8274   2.712   1.840   8.316  1.8784 -0.8288 -0.4193
   79CHL1  H16B 8275   2.728   2.017   8.327 -2.0805 -0.2958  0.2619
   79CHL1   C17 8276   2.540   1.975   8.236 -0.8802 -0.0181  0.2337
   79CHL1   H17 8277   2.532   2.085   8.245  1.2299  0.3745 -1.7913
   79CHL1   C13 8278   2.521   1.951   8.083 -0.1869  0.4886 -0.0410
   79CHL1   C18 8279   2.491   1.802   8.066 -0.0681  0.5499  0.0849
   79CHL1  H18A 8280   2.404   1.770   8.127  0.1798  1.8788  1.1940
   79CHL1  H18B 8281   2.472   1.778   7.959  2.1871 -2.0298  0.1682
   79CHL1  H18C 8282   2.570   1.741   8.115 -0.7956 -0.9749 -0.6002
   79CHL1   C12 8283   2.421   2.037   8.012 -0.1834 -0.5163  0.3591
   79CHL1  H12A 8284   2.315   2.021   8.038 -0.4647  1.3994  0.4824
   79CHL1  H12B 8285   2.454   2.140   8.038  0.6249 -0.5495 -0.4352
   79CHL1   C11 8286   2.428   2.032   7.858  0.2019  0.5288  0.5800
   79CHL1  H11A 8287   2.370   1.939   7.840 -2.9617  2.7095 -1.4841
   79CHL1  H11B 8288   2.365   2.110   7.812 -2.4102 -2.8322 -2.0242
   79CHL1    C9 8289   2.568   2.033   7.795 -0.3664  1.1038  0.0840
   79CHL1    H9 8290   2.619   2.131   7.789 -0.4801  1.1944  0.6199
   79CHL1   C10 8291   2.568   1.992   7.649 -0.5326 -0.4702  0.8696
   79CHL1   C19 8292   2.489   1.863   7.629 -0.0196 -0.1205 -0.4683
   79CHL1  H19A 8293   2.488   1.828   7.524 -1.0146 -2.0244  0.1324
   79CHL1  H19B 8294   2.532   1.773   7.678 -2.0502 -1.9979 -1.9791
   79CHL1  H19C 8295   2.382   1.875   7.656  0.6839  1.2370  2.0284
   79CHL1    C1 8296   2.491   2.106   7.568 -0.0311 -0.2395  0.6343
   79CHL1   H1A 8297   2.385   2.094   7.599 -0.8686  1.8569 -1.1664
   79CHL1   H1B 8298   2.539   2.200   7.600  2.7981 -2.0609  2.1547
   79CHL1    C2 8299   2.504   2.086   7.416 -0.0533  0.1017 -0.0099
   79CHL1   H2A 8300   2.441   2.164   7.369  0.8678  0.2933 -0.9763
   79CHL1   H2B 8301   2.461   1.989   7.383  1.1762 -0.8627  1.0795
   79CHL1   C20 8302   2.439   1.926   8.337  0.3140  0.7991  0.6961
   79CHL1   H20 8303   2.429   1.816   8.327 -0.5798  0.7369  1.9201
   79CHL1   C21 8304   2.295   1.983   8.309  0.0751  0.1762  0.2544
   79CHL1  H21A 8305   2.297   2.094   8.304 -0.6412  0.1608 -0.5707
   79CHL1  H21B 8306   2.222   1.961   8.391  1.9923 -0.2112  1.9399
   79CHL1  H21C 8307   2.249   1.937   8.219  0.5862 -0.9971  0.5664
   79CHL1   C22 8308   2.482   1.959   8.488  0.2300 -0.9409 -0.3301
   79CHL1  H22A 8309   2.578   1.911   8.518  0.9198 -0.7333 -2.1020
   79CHL1  H22B 8310   2.500   2.069   8.490  1.4837 -1.0715 -2.0955
   79CHL1   C23 8311   2.373   1.922   8.595 -0.1888  0.0219  0.5008
   79CHL1  H23A 8312   2.294   2.000   8.604 -1.9292 -1.4839 -0.8532
   79CHL1  H23B 8313   2.333   1.825   8.560  0.2050  0.7476 -2.1794
   79CHL1   C24 8314   2.438   1.904   8.733 -0.5699 -0.0437  0.0723
   79CHL1  H24A 8315   2.518   1.828   8.721 -0.8520  0.0220 -3.3080
   79CHL1  H24B 8316   2.496   1.994   8.761 -0.2923 -0.1288 -0.2184
   79CHL1   C25 8317   2.345   1.883   8.853 -0.2135 -0.2637  0.4677
   79CHL1   H25 8318   2.260   1.815   8.832 -1.5264  1.2387  0.7774
   79CHL1   C26 8319   2.423   1.833   8.980  0.4531  0.5231  0.0788
   79CHL1  H26A 8320   2.498   1.912   9.002  0.0846  0.4180  1.8466
   79CHL1  H26B 8321   2.349   1.814   9.060 -0.7106  2.6331 -0.4064
   79CHL1  H26C 8322   2.474   1.739   8.950 -1.8431 -0.2681 -1.6361
   79CHL1   C27 8323   2.279   2.017   8.890 -0.1090  0.7462  0.0750
   79CHL1  H27A 8324   2.203   2.000   8.969  0.9150 -2.6658  0.4960
   79CHL1  H27B 8325   2.361   2.088   8.914  1.1107  0.3167 -2.5123
   79CHL1  H27C 8326   2.233   2.060   8.799  1.9098  1.8893 -0.4599
   80CHL1    C3 8327   4.130   6.631   7.288  0.2628  0.3269 -0.0058
   80CHL1    H3 8328   4.214   6.703   7.288 -1.0012  1.8749  1.2661
   80CHL1    O3 8329   4.090   6.615   7.154 -0.1214 -0.3343 -0.4856
   80CHL1   H3' 8330   4.165   6.574   7.111  1.8102  2.4822 -0.0782
   80CHL1    C4 8331   4.171   6.491   7.334 -0.3369  0.2994  0.2794
   80CHL1   H4A 8332   4.090   6.416   7.321 -1.1295  0.7921  2.1364
   80CHL1   H4B 8333   4.261   6.448   7.285  0.5141 -1.4520  3.1291
   80CHL1    C5 8334   4.208   6.499   7.477 -0.4225  0.3470 -0.4851
   80CHL1    C6 8335   4.330   6.466   7.530  0.1657  0.5829 -0.4191
   80CHL1    H6 8336   4.400   6.427   7.455 -0.8987  0.0987 -1.1908
   80CHL1    C7 8337   4.365   6.464   7.676 -0.5005 -0.3675  0.3485
   80CHL1   H7A 8338   4.429   6.379   7.708  1.2552  0.3465 -1.1059
   80CHL1   H7B 8339   4.416   6.560   7.699  1.0914 -1.0303 -0.3045
   80CHL1    C8 8340   4.238   6.473   7.767 -0.0263  0.0416  0.7005
   80CHL1    H8 8341   4.199   6.369   7.772 -0.8366  0.4102  3.2834
   80CHL1   C14 8342   4.288   6.511   7.903  0.5702  0.0209 -0.2129
   80CHL1   H14 8343   4.319   6.616   7.889  0.8313 -0.1368 -0.8987
   80CHL1   C15 8344   4.403   6.439   7.977 -0.3494  0.3862 -0.5314
   80CHL1  H15A 8345   4.396   6.329   7.962 -0.3923  0.3646 -0.3400
   80CHL1  H15B 8346   4.505   6.462   7.938  1.0758  0.2209  2.7721
   80CHL1   C16 8347   4.375   6.464   8.128 -0.0601  0.3251 -0.0593
   80CHL1  H16A 8348   4.343   6.373   8.182  0.9917  0.0346  0.1025
   80CHL1  H16B 8349   4.466   6.500   8.181  0.3154  0.1162 -0.5595
   80CHL1   C17 8350   4.253   6.560   8.130 -0.3828 -0.3039  0.4866
   80CHL1   H17 8351   4.278   6.667   8.112 -0.7549 -0.0671  1.3417
   80CHL1   C13 8352   4.172   6.522   8.002  0.4772 -0.3584  0.0451
   80CHL1   C18 8353   4.098   6.380   8.023  0.4594  0.2264 -0.1452
   80CHL1  H18A 8354   4.171   6.297   8.032 -0.6316 -0.6260  1.4596
   80CHL1  H18B 8355   4.025   6.371   8.107  1.9581  1.3613  1.3587
   80CHL1  H18C 8356   4.042   6.363   7.929 -0.3400 -0.4071  0.4327
   80CHL1   C12 8357   4.079   6.634   7.955 -1.0958 -0.7793  0.1038
   80CHL1  H12A 8358   3.993   6.644   8.025  0.2665 -0.2956  1.7946
   80CHL1  H12B 8359   4.144   6.724   7.966  1.2641 -2.5663  1.9183
   80CHL1   C11 8360   4.026   6.607   7.818  0.0029  0.1462 -0.3742
   80CHL1  H11A 8361   3.962   6.517   7.829 -1.9217  0.8046 -4.3388
   80CHL1  H11B 8362   3.959   6.692   7.792 -1.7039 -1.1431 -0.4032
   80CHL1    C9 8363   4.142   6.579   7.716  0.3669 -0.2144  0.6642
   80CHL1    H9 8364   4.205   6.671   7.715  2.0759 -1.3261 -0.7345
   80CHL1   C10 8365   4.095   6.553   7.572  0.1509  0.3266  0.9840
   80CHL1   C19 8366   3.973   6.464   7.567  0.8348  0.2770 -0.0985
   80CHL1  H19A 8367   3.875   6.513   7.588  0.4677  0.0366 -1.1681
   80CHL1  H19B 8368   3.946   6.432   7.464 -1.0597  1.3572  0.0208
   80CHL1  H19C 8369   3.980   6.373   7.630 -0.1483  0.4554  0.2936
   80CHL1    C1 8370   4.063   6.687   7.511  0.4582 -0.3384 -0.5200
   80CHL1   H1A 8371   3.985   6.735   7.574  0.8139 -0.5185  0.0690
   80CHL1   H1B 8372   4.148   6.758   7.515  0.7520 -0.7371  1.2255
   80CHL1    C2 8373   4.016   6.689   7.367 -0.7628  0.1594  0.0586
   80CHL1   H2A 8374   4.009   6.795   7.335 -2.3472  1.5396  4.2970
   80CHL1   H2B 8375   3.920   6.643   7.337 -0.8315  0.6105 -0.4371
   80CHL1   C20 8376   4.188   6.565   8.271 -0.2804  0.2476 -0.6510
   80CHL1   H20 8377   4.140   6.466   8.280 -0.4759  0.5202  1.8941
   80CHL1   C21 8378   4.072   6.668   8.276 -0.2146 -0.3278 -0.4542
   80CHL1  H21A 8379   4.078   6.755   8.206  0.5629 -1.1986 -1.5022
   80CHL1  H21B 8380   4.054   6.698   8.382  1.8958 -0.8977  0.1058
   80CHL1  H21C 8381   3.976   6.622   8.244 -0.5682  0.3444 -0.3861
   80CHL1   C22 8382   4.291   6.593   8.380 -0.3872  0.6192  0.1850
   80CHL1  H22A 8383   4.396   6.604   8.344 -0.8085 -0.8774 -1.7035
   80CHL1  H22B 8384   4.259   6.689   8.427  1.3698  0.6042  1.5145
   80CHL1   C23 8385   4.305   6.485   8.487  0.3136  0.3708  0.0689
   80CHL1  H23A 8386   4.211   6.487   8.546  0.3736 -1.1002  0.2469
   80CHL1  H23B 8387   4.301   6.381   8.448 -0.2885  0.2619  0.4149
   80CHL1   C24 8388   4.422   6.512   8.586 -0.0875 -0.5573  0.3990
   80CHL1  H24A 8389   4.515   6.463   8.550  0.2655 -2.1310  3.1320
   80CHL1  H24B 8390   4.442   6.620   8.600 -2.2627  0.2693 -2.1298
   80CHL1   C25 8391   4.402   6.456   8.730  1.0495  0.0351 -1.0590
   80CHL1   H25 8392   4.354   6.356   8.730 -0.3724  0.6546  0.9405
   80CHL1   C26 8393   4.541   6.444   8.801 -0.3052  0.2926  0.1276
   80CHL1  H26A 8394   4.539   6.448   8.912 -0.2780 -2.2233  0.2845
   80CHL1  H26B 8395   4.601   6.356   8.769  0.7688  1.2758 -0.6997
   80CHL1  H26C 8396   4.600   6.531   8.765 -1.6463  1.2560  0.1949
   80CHL1   C27 8397   4.314   6.557   8.812  0.0289  0.0010 -1.4472
   80CHL1  H27A 8398   4.216   6.578   8.764  0.2772  1.6670 -1.2955
   80CHL1  H27B 8399   4.306   6.520   8.916  2.2548 -2.3558 -2.0163
   80CHL1  H27C 8400   4.378   6.648   8.809 -0.4725  0.3543 -1.7577
   81CHL1    C3 8401   1.443   6.148   7.199 -0.2972  0.4152 -0.1728
   81CHL1    H3 8402   1.427   6.051   7.251  2.7292  0.0283  0.2176
   81CHL1    O3 8403   1.439   6.121   7.062  0.0136  0.1220 -0.2881
   81CHL1   H3' 8404   1.453   6.209   7.026  2.0397 -0.4761 -1.1483
   81CHL1    C4 8405   1.329   6.239   7.250  0.7238 -0.5327 -1.0646
   81CHL1   H4A 8406   1.322   6.339   7.203  1.1547  0.3410  0.6238
   81CHL1   H4B 8407   1.233   6.194   7.218 -0.8086  0.3238  1.9439
   81CHL1    C5 8408   1.336   6.261   7.402  0.5245 -0.4876  0.2679
   81CHL1    C6 8409   1.241   6.208   7.485 -0.7146 -0.5479  0.2050
   81CHL1    H6 8410   1.151   6.160   7.444 -0.8231 -0.0506 -0.1431
   81CHL1    C7 8411   1.247   6.222   7.638 -0.8924  1.1564  0.7103
   81CHL1   H7A 8412   1.147   6.258   7.672 -1.0496  0.3018  1.1800
   81CHL1   H7B 8413   1.275   6.128   7.689  1.9803  2.6024  2.0302
   81CHL1    C8 8414   1.354   6.324   7.692 -0.0563  0.1038  0.4303
   81CHL1    H8 8415   1.313   6.425   7.670 -2.0521 -0.8452 -0.4674
   81CHL1   C14 8416   1.383   6.304   7.835  0.4332  0.4158  0.1879
   81CHL1   H14 8417   1.420   6.199   7.841  2.0892  1.0003  0.5322
   81CHL1   C15 8418   1.266   6.307   7.928  0.7449  0.3474 -0.0946
   81CHL1  H15A 8419   1.204   6.394   7.898  3.2327  1.8903 -1.0602
   81CHL1  H15B 8420   1.198   6.221   7.913 -0.2151  0.5088  2.7068
   81CHL1   C16 8421   1.319   6.324   8.070 -0.0378  0.3680 -0.0971
   81CHL1  H16A 8422   1.269   6.406   8.127  1.1181  0.1526  1.2550
   81CHL1  H16B 8423   1.291   6.235   8.130 -1.8672 -1.0001 -2.7727
   81CHL1   C17 8424   1.474   6.353   8.047 -0.1019  0.0235 -1.0616
   81CHL1   H17 8425   1.525   6.255   8.044 -0.0882  0.0605 -2.1164
   81CHL1   C13 8426   1.490   6.395   7.901 -0.4003 -0.7067 -0.9114
   81CHL1   C18 8427   1.447   6.543   7.886 -0.6337 -0.3035 -0.3531
   81CHL1  H18A 8428   1.357   6.566   7.947 -0.2481  1.0922 -0.2775
   81CHL1  H18B 8429   1.526   6.614   7.920  0.5240 -1.9968  0.6264
   81CHL1  H18C 8430   1.416   6.578   7.786 -1.0380  0.3900  0.0032
   81CHL1   C12 8431   1.618   6.363   7.826  0.7874  0.0614  0.2277
   81CHL1  H12A 8432   1.704   6.408   7.880  2.2152 -0.7917 -1.2564
   81CHL1  H12B 8433   1.632   6.253   7.841 -2.3225 -0.5990 -0.8843
   81CHL1   C11 8434   1.609   6.384   7.675 -0.1906  0.6802 -0.1725
   81CHL1  H11A 8435   1.595   6.493   7.658 -0.9217  0.4341 -1.2373
   81CHL1  H11B 8436   1.710   6.368   7.632 -0.5380 -0.3993 -0.5971
   81CHL1    C9 8437   1.487   6.312   7.612  0.0160 -0.0761 -0.3274
   81CHL1    H9 8438   1.513   6.207   7.634  0.7466 -0.0082 -0.8464
   81CHL1   C10 8439   1.465   6.319   7.454 -0.6412 -0.5059 -0.3013
   81CHL1   C19 8440   1.443   6.471   7.426 -0.7010 -0.7850  0.3648
   81CHL1  H19A 8441   1.366   6.512   7.494 -0.8751 -2.2668  1.1000
   81CHL1  H19B 8442   1.539   6.515   7.460 -0.9002  1.0068 -1.2518
   81CHL1  H19C 8443   1.418   6.498   7.321 -0.0974 -0.8170  0.2062
   81CHL1    C1 8444   1.597   6.266   7.382  0.0598  0.0492  0.0646
   81CHL1   H1A 8445   1.672   6.347   7.387 -1.0211  1.0250  0.8776
   81CHL1   H1B 8446   1.637   6.176   7.434 -1.9223 -1.9323 -1.6102
   81CHL1    C2 8447   1.579   6.220   7.236 -0.1519  0.4544 -0.9484
   81CHL1   H2A 8448   1.658   6.152   7.198  0.7751  2.2678 -2.4286
   81CHL1   H2B 8449   1.564   6.316   7.182  0.2043  0.7303 -0.5624
   81CHL1   C20 8450   1.536   6.437   8.157  0.0027 -0.2231  0.1339
   81CHL1   H20 8451   1.495   6.539   8.144 -0.1142  0.0075  2.0982
   81CHL1   C21 8452   1.690   6.434   8.148  0.4026  0.6440  0.8535
   81CHL1  H21A 8453   1.700   6.499   8.058 -0.5285  1.6400  1.4496
   81CHL1  H21B 8454   1.724   6.333   8.118  0.8745  0.5712  1.6213
   81CHL1  H21C 8455   1.748   6.478   8.232 -0.1770 -0.7816  2.0497
   81CHL1   C22 8456   1.497   6.380   8.295  0.5104  0.4269 -0.6457
   81CHL1  H22A 8457   1.390   6.353   8.307 -0.0040  1.6696 -2.1060
   81CHL1  H22B 8458   1.547   6.286   8.325  1.1203  0.1525 -2.3986
   81CHL1   C23 8459   1.524   6.491   8.404 -0.7607 -0.1870  0.1939
   81CHL1  H23A 8460   1.630   6.526   8.402 -1.4256  1.9277 -1.0164
   81CHL1  H23B 8461   1.478   6.590   8.386  2.3229  1.9323  2.7914
   81CHL1   C24 8462   1.505   6.440   8.544  0.1853 -0.2482 -0.3073
   81CHL1  H24A 8463   1.397   6.412   8.541 -0.3710  1.7717 -1.0938
   81CHL1  H24B 8464   1.580   6.359   8.552 -0.5074 -0.8944 -0.3243
   81CHL1   C25 8465   1.526   6.552   8.653  0.1049  0.4651 -0.5006
   81CHL1   H25 8466   1.534   6.493   8.746  0.2791 -0.3652 -1.0326
   81CHL1   C26 8467   1.660   6.619   8.626  0.2311 -0.2634 -0.7927
   81CHL1  H26A 8468   1.646   6.698   8.549  1.1993 -0.1530 -0.8613
   81CHL1  H26B 8469   1.699   6.663   8.720 -0.8723 -0.4635 -0.2301
   81CHL1  H26C 8470   1.727   6.535   8.598 -0.6333 -2.0222  2.0213
   81CHL1   C27 8471   1.401   6.647   8.669 -0.5262  0.3510  0.2590
   81CHL1  H27A 8472   1.368   6.691   8.573  1.2801 -1.4725 -1.2683
   81CHL1  H27B 8473   1.316   6.604   8.727  0.3656  1.4866  2.5203
   81CHL1  H27C 8474   1.443   6.728   8.731 -1.5337  2.2307 -1.4094
   82CHL1    C3 8475   3.247   5.073   7.484 -1.0473 -0.1727  0.4310
   82CHL1    H3 8476   3.220   4.976   7.530 -0.0539  0.6527  2.9369
   82CHL1    O3 8477   3.235   5.067   7.343 -0.3459 -0.4358  0.3732
   82CHL1   H3' 8478   3.160   5.007   7.336 -1.0252 -0.1152  3.3907
   82CHL1    C4 8479   3.170   5.190   7.551 -0.6842  0.0935  0.4034
   82CHL1   H4A 8480   3.204   5.287   7.509 -0.9702  0.6549  1.4164
   82CHL1   H4B 8481   3.070   5.164   7.511 -0.7485 -1.7168  1.5986
   82CHL1    C5 8482   3.186   5.202   7.702 -0.0845  0.1496  0.3901
   82CHL1    C6 8483   3.084   5.180   7.793 -0.1322  0.2790 -0.3315
   82CHL1    H6 8484   2.985   5.156   7.753  0.1427 -2.4499  0.3987
   82CHL1    C7 8485   3.096   5.180   7.943  0.8485 -0.6866 -0.4148
   82CHL1   H7A 8486   3.011   5.241   7.978 -0.2275 -2.6217  0.4834
   82CHL1   H7B 8487   3.078   5.077   7.979 -0.9040 -0.6979 -1.2450
   82CHL1    C8 8488   3.234   5.235   7.986 -0.3737  0.2818  0.7227
   82CHL1    H8 8489   3.232   5.344   7.967  0.6187  0.2627  0.4518
   82CHL1   C14 8490   3.254   5.200   8.131 -0.7639  0.2981 -0.2240
   82CHL1   H14 8491   3.269   5.090   8.138 -1.1644  0.2824  0.4990
   82CHL1   C15 8492   3.136   5.235   8.225 -0.3802  0.3027 -0.2340
   82CHL1  H15A 8493   3.107   5.336   8.188  0.0369  0.3356 -0.4775
   82CHL1  H15B 8494   3.067   5.150   8.206  0.3502 -0.5435  0.8192
   82CHL1   C16 8495   3.201   5.229   8.360  0.4235 -0.1061 -0.1681
   82CHL1  H16A 8496   3.172   5.322   8.413 -1.4353 -0.7387  0.0216
   82CHL1  H16B 8497   3.170   5.135   8.410  0.1712  0.1215  0.1026
   82CHL1   C17 8498   3.357   5.219   8.332 -0.3183  0.7780 -0.4639
   82CHL1   H17 8499   3.375   5.109   8.341  2.0153  1.1674  0.4383
   82CHL1   C13 8500   3.380   5.253   8.190 -0.5954  0.4362  0.3896
   82CHL1   C18 8501   3.380   5.406   8.179  0.5269 -0.0420  0.7725
   82CHL1  H18A 8502   3.393   5.448   8.077  1.2540 -0.2177  0.7874
   82CHL1  H18B 8503   3.282   5.441   8.219 -1.7435 -4.5606 -0.1422
   82CHL1  H18C 8504   3.471   5.446   8.227  0.1986  0.4765  0.9701
   82CHL1   C12 8505   3.497   5.186   8.114  0.7578 -0.3264  0.0283
   82CHL1  H12A 8506   3.587   5.241   8.149 -0.1323  0.8684  0.4797
   82CHL1  H12B 8507   3.507   5.076   8.128 -2.4073 -0.5259  1.6152
   82CHL1   C11 8508   3.489   5.199   7.960 -0.1360 -0.6649 -0.4521
   82CHL1  H11A 8509   3.515   5.305   7.942 -1.2404 -0.0227  1.5739
   82CHL1  H11B 8510   3.566   5.135   7.911  0.7977  0.9044 -1.1128
   82CHL1    C9 8511   3.348   5.176   7.899  0.7348 -0.0186  0.9376
   82CHL1    H9 8512   3.338   5.066   7.904 -0.3761  0.0702  0.8590
   82CHL1   C10 8513   3.333   5.201   7.746  0.0294 -0.6371  0.3706
   82CHL1   C19 8514   3.382   5.348   7.715  0.2800 -0.1890  0.3672
   82CHL1  H19A 8515   3.354   5.376   7.611  1.1456  2.6192  0.8105
   82CHL1  H19B 8516   3.334   5.409   7.795 -1.2839 -0.6392 -0.1984
   82CHL1  H19C 8517   3.492   5.352   7.728  0.3080  0.5145 -0.0170
   82CHL1    C1 8518   3.422   5.095   7.674  0.3403 -0.1297 -0.2812
   82CHL1   H1A 8519   3.532   5.110   7.685  0.2434  0.8805 -0.5775
   82CHL1   H1B 8520   3.389   4.994   7.704 -0.0168  0.1015  0.1078
   82CHL1    C2 8521   3.395   5.078   7.520 -0.6533 -0.4434 -0.0274
   82CHL1   H2A 8522   3.448   4.996   7.466 -1.9291  0.0259 -2.0571
   82CHL1   H2B 8523   3.426   5.170   7.466 -0.9402 -0.4261 -0.1612
   82CHL1   C20 8524   3.437   5.281   8.445  0.0838 -0.4549  0.0361
   82CHL1   H20 8525   3.423   5.391   8.441 -0.2551 -0.4366  1.2612
   82CHL1   C21 8526   3.586   5.244   8.436 -0.0837  0.4976 -0.7974
   82CHL1  H21A 8527   3.637   5.295   8.352  2.8949 -2.4388 -1.0194
   82CHL1  H21B 8528   3.592   5.134   8.418  0.3948  0.8779 -3.2272
   82CHL1  H21C 8529   3.645   5.256   8.530 -0.0661  0.4747 -0.8055
   82CHL1   C22 8530   3.393   5.244   8.592 -0.8432 -0.3523 -0.6167
   82CHL1  H22A 8531   3.282   5.241   8.599 -0.7798 -0.5064  0.4525
   82CHL1  H22B 8532   3.435   5.143   8.606  1.0898  0.7132  2.2670
   82CHL1   C23 8533   3.437   5.343   8.706  0.1150 -0.0825  0.2857
   82CHL1  H23A 8534   3.546   5.363   8.695  0.2258 -0.6182  0.3385
   82CHL1  H23B 8535   3.385   5.440   8.692 -0.1104 -0.1117  0.8873
   82CHL1   C24 8536   3.415   5.292   8.853  0.5740  0.4896  0.1339
   82CHL1  H24A 8537   3.311   5.269   8.882  1.1149  0.4867  2.1925
   82CHL1  H24B 8538   3.474   5.199   8.867  2.3116  1.1829 -1.9994
   82CHL1   C25 8539   3.475   5.405   8.943  0.7081 -0.0834 -0.2059
   82CHL1   H25 8540   3.409   5.492   8.926 -0.6695 -1.1488 -0.5362
   82CHL1   C26 8541   3.451   5.348   9.086 -0.0435 -0.3138  0.1163
   82CHL1  H26A 8542   3.507   5.405   9.163 -0.2422 -0.1130  0.1127
   82CHL1  H26B 8543   3.349   5.360   9.128  0.2925 -1.1397  1.2151
   82CHL1  H26C 8544   3.489   5.244   9.093 -0.0080 -0.2235  1.3776
   82CHL1   C27 8545   3.620   5.443   8.930 -0.3111  0.1939 -0.4392
   82CHL1  H27A 8546   3.668   5.498   9.014  0.1334  2.2598 -1.9651
   82CHL1  H27B 8547   3.678   5.349   8.917  0.8196  1.0024 -1.3542
   82CHL1  H27C 8548   3.649   5.503   8.842 -0.7880 -0.8974 -1.3684
   83CHL1    C3 8549   3.038   2.247   7.165 -0.8646  0.1851 -0.7580
   83CHL1    H3 8550   2.949   2.308   7.192 -0.5196  0.9289 -1.3022
   83CHL1    O3 8551   3.047   2.225   7.025 -0.3121 -0.4559 -0.0079
   83CHL1   H3' 8552   3.128   2.174   7.014  0.0663  0.3469 -1.0851
   83CHL1    C4 8553   3.173   2.314   7.203  0.0399  0.4582 -0.0907
   83CHL1   H4A 8554   3.263   2.261   7.164  0.7367  1.3069  0.3327
   83CHL1   H4B 8555   3.159   2.408   7.146  0.1257  0.6705  0.2362
   83CHL1    C5 8556   3.188   2.340   7.348 -0.6123 -0.1822  0.2756
   83CHL1    C6 8557   3.217   2.461   7.394 -0.2521 -0.2073  0.1459
   83CHL1    H6 8558   3.228   2.541   7.319  1.6180  1.6596  2.2821
   83CHL1    C7 8559   3.231   2.496   7.535 -0.7704  0.2935 -0.8051
   83CHL1   H7A 8560   3.318   2.562   7.554  0.7098 -1.5889 -0.7598
   83CHL1   H7B 8561   3.142   2.550   7.575 -0.1890  0.4706  0.2880
   83CHL1    C8 8562   3.251   2.367   7.619  0.0098  0.2947 -0.1382
   83CHL1    H8 8563   3.355   2.337   7.595  0.0032  1.5650 -1.9057
   83CHL1   C14 8564   3.217   2.388   7.766  0.3232 -0.0053 -0.1144
   83CHL1   H14 8565   3.107   2.393   7.780  0.4750  0.5333  1.0465
   83CHL1   C15 8566   3.255   2.525   7.824  0.0946  0.4235 -0.7332
   83CHL1  H15A 8567   3.354   2.553   7.784  2.7114 -1.8981  3.4571
   83CHL1  H15B 8568   3.186   2.609   7.803  0.6399  0.9943 -0.2688
   83CHL1   C16 8569   3.262   2.502   7.979  0.3833  0.1622  0.0721
   83CHL1  H16A 8570   3.359   2.538   8.018  0.3428 -0.6990  1.0094
   83CHL1  H16B 8571   3.182   2.549   8.040  0.7928 -2.2821  2.6993
   83CHL1   C17 8572   3.230   2.354   7.992  0.3695  0.2935 -1.0421
   83CHL1   H17 8573   3.120   2.339   8.004  0.3748  1.0512  0.1652
   83CHL1   C13 8574   3.261   2.281   7.859  0.4941 -0.0029 -0.7033
   83CHL1   C18 8575   3.413   2.256   7.854 -0.2014 -0.0558 -0.0720
   83CHL1  H18A 8576   3.436   2.225   7.750 -1.8602  1.6310 -1.0029
   83CHL1  H18B 8577   3.472   2.350   7.869  0.4490 -0.6103  0.9512
   83CHL1  H18C 8578   3.446   2.188   7.935 -1.4143 -0.8570 -0.2310
   83CHL1   C12 8579   3.183   2.154   7.825  0.0933 -0.2526 -0.2235
   83CHL1  H12A 8580   3.230   2.066   7.874 -1.5158 -1.0753 -0.1053
   83CHL1  H12B 8581   3.074   2.156   7.847 -0.3641 -3.2845 -1.7013
   83CHL1   C11 8582   3.190   2.133   7.672 -0.0217  0.3093 -0.2467
   83CHL1  H11A 8583   3.294   2.095   7.659  0.7960  2.0548  0.8353
   83CHL1  H11B 8584   3.119   2.050   7.651 -0.2423  0.5751 -0.5741
   83CHL1    C9 8585   3.167   2.247   7.578 -0.5848  0.1687 -0.1983
   83CHL1    H9 8586   3.063   2.282   7.599 -0.2452  0.4405  1.1146
   83CHL1   C10 8587   3.170   2.213   7.433  1.2102  0.5536 -0.6780
   83CHL1   C19 8588   3.297   2.126   7.402 -0.3588 -0.0786 -0.3433
   83CHL1  H19A 8589   3.338   2.140   7.300  1.6238 -0.1957  0.3999
   83CHL1  H19B 8590   3.385   2.169   7.454 -0.7311  0.0717  0.1757
   83CHL1  H19C 8591   3.291   2.021   7.437 -0.3536  0.4703  1.3941
   83CHL1    C1 8592   3.037   2.134   7.388  0.3544 -0.0515 -0.0513
   83CHL1   H1A 8593   3.029   2.036   7.439 -0.2861  1.3399  2.7683
   83CHL1   H1B 8594   2.953   2.187   7.440 -0.0447  0.1250 -0.8531
   83CHL1    C2 8595   3.027   2.111   7.236  0.1632 -0.4990 -0.1014
   83CHL1   H2A 8596   2.930   2.065   7.206 -0.1585 -0.7703  1.2994
   83CHL1   H2B 8597   3.100   2.036   7.199  0.8466 -0.2873  0.7784
   83CHL1   C20 8598   3.294   2.303   8.126 -0.6947  0.1986 -0.1995
   83CHL1   H20 8599   3.403   2.296   8.109 -0.8011 -0.6724 -0.6016
   83CHL1   C21 8600   3.243   2.159   8.177 -0.3210 -0.8622 -0.1845
   83CHL1  H21A 8601   3.248   2.087   8.093  1.0351 -1.3040  0.2366
   83CHL1  H21B 8602   3.139   2.160   8.214 -0.4638 -2.4334 -0.4499
   83CHL1  H21C 8603   3.299   2.114   8.262 -2.1370 -0.7816  1.1149
   83CHL1   C22 8604   3.263   2.403   8.245 -0.1039 -0.0667  1.1440
   83CHL1  H22A 8605   3.317   2.498   8.230 -2.3692  1.1987  0.6001
   83CHL1  H22B 8606   3.154   2.421   8.238 -0.3283 -1.7463 -0.4458
   83CHL1   C23 8607   3.306   2.363   8.391  0.2577  0.1046  0.8652
   83CHL1  H23A 8608   3.257   2.268   8.419 -1.8969  0.7554 -0.4709
   83CHL1  H23B 8609   3.414   2.342   8.406  0.1980 -0.9794 -0.0757
   83CHL1   C24 8610   3.245   2.459   8.498  0.1220 -0.9169  0.1607
   83CHL1  H24A 8611   3.293   2.559   8.489 -1.6418  0.0096  0.6009
   83CHL1  H24B 8612   3.139   2.479   8.471  0.1867  1.5294  1.4189
   83CHL1   C25 8613   3.241   2.425   8.651  0.2555 -0.7240  0.5327
   83CHL1   H25 8614   3.171   2.341   8.674 -0.1882 -1.2429 -2.3192
   83CHL1   C26 8615   3.379   2.382   8.697  0.4952 -0.2198 -0.1159
   83CHL1  H26A 8616   3.405   2.283   8.655  0.3301 -0.7152  0.9275
   83CHL1  H26B 8617   3.460   2.457   8.681  0.1178  1.0132  3.0377
   83CHL1  H26C 8618   3.374   2.355   8.805 -2.6045  0.6350  0.0342
   83CHL1   C27 8619   3.200   2.548   8.732  0.1133  0.4500 -0.0339
   83CHL1  H27A 8620   3.191   2.524   8.840  0.4709 -1.0112 -0.3042
   83CHL1  H27B 8621   3.278   2.624   8.711  1.4595 -0.5764  1.1095
   83CHL1  H27C 8622   3.105   2.589   8.691  1.1455  0.4874 -2.5608
   84CHL1    C3 8623   6.716   5.289   7.070 -0.2614 -0.2000  0.3951
   84CHL1    H3 8624   6.670   5.194   7.035 -1.1956  0.4445 -0.1730
   84CHL1    O3 8625   6.766   5.349   6.951 -0.9317  0.2715  0.2106
   84CHL1   H3' 8626   6.826   5.415   6.986 -1.1144  1.2008 -1.1262
   84CHL1    C4 8627   6.608   5.377   7.134 -0.3761  0.2580 -0.1059
   84CHL1   H4A 8628   6.647   5.479   7.157  0.2528 -0.4294  2.1473
   84CHL1   H4B 8629   6.524   5.383   7.062  0.1233 -2.4836 -1.0360
   84CHL1    C5 8630   6.553   5.322   7.263 -0.1286 -0.2225 -0.3005
   84CHL1    C6 8631   6.422   5.286   7.272  0.5115  0.2766  0.0272
   84CHL1    H6 8632   6.361   5.301   7.183 -1.2317 -0.1040  1.1095
   84CHL1    C7 8633   6.355   5.232   7.397 -0.7397 -0.1119 -0.4267
   84CHL1   H7A 8634   6.258   5.286   7.407  0.6073  2.5459 -1.0112
   84CHL1   H7B 8635   6.337   5.123   7.380  2.9733 -1.0038  0.4727
   84CHL1    C8 8636   6.446   5.256   7.522  0.6747  0.0063  0.7766
   84CHL1    H8 8637   6.443   5.365   7.546  0.0896  0.3149 -0.5966
   84CHL1   C14 8638   6.389   5.173   7.637  0.4979 -0.7917  0.7564
   84CHL1   H14 8639   6.394   5.065   7.612 -0.2680 -0.8526  0.8601
   84CHL1   C15 8640   6.241   5.198   7.678  0.0158  0.0285 -0.3566
   84CHL1  H15A 8641   6.214   5.304   7.659 -0.5252  0.1203  0.8543
   84CHL1  H15B 8642   6.176   5.129   7.619  1.5990 -0.1704 -1.9417
   84CHL1   C16 8643   6.236   5.162   7.824 -0.3946 -0.1761 -0.1301
   84CHL1  H16A 8644   6.200   5.250   7.882  1.7811  0.8219 -0.1754
   84CHL1  H16B 8645   6.157   5.086   7.842  0.5114 -1.1391 -0.1578
   84CHL1   C17 8646   6.377   5.120   7.870 -0.1237  0.1816 -0.0988
   84CHL1   H17 8647   6.374   5.009   7.862  1.0503  0.0846  0.5401
   84CHL1   C13 8648   6.466   5.183   7.766  1.3646 -0.8074  0.1208
   84CHL1   C18 8649   6.485   5.333   7.802  0.3985  0.1617 -0.6617
   84CHL1  H18A 8650   6.397   5.398   7.819  1.6860  1.6584  0.5417
   84CHL1  H18B 8651   6.548   5.336   7.893 -0.0679 -4.2739  0.0456
   84CHL1  H18C 8652   6.541   5.392   7.726  0.3091  2.8073  1.1961
   84CHL1   C12 8653   6.607   5.121   7.729  0.3187 -0.3801 -0.3228
   84CHL1  H12A 8654   6.674   5.117   7.818  0.0836  1.3169 -0.0390
   84CHL1  H12B 8655   6.594   5.014   7.702 -0.6733 -0.4881  0.5111
   84CHL1   C11 8656   6.678   5.205   7.619 -0.4198  0.2845 -0.1675
   84CHL1  H11A 8657   6.719   5.297   7.665  2.8681 -0.7862 -0.6766
   84CHL1  H11B 8658   6.769   5.154   7.581  0.9370  2.4804 -0.0165
   84CHL1    C9 8659   6.589   5.213   7.489 -0.3595 -0.2819  0.8807
   84CHL1    H9 8660   6.583   5.107   7.456 -0.2402 -0.3811  1.1776
   84CHL1   C10 8661   6.659   5.293   7.377 -0.7578  0.2748  0.6255
   84CHL1   C19 8662   6.729   5.422   7.432  0.5065 -0.0553  0.0047
   84CHL1  H19A 8663   6.816   5.394   7.496  0.8283  0.2512 -0.2955
   84CHL1  H19B 8664   6.765   5.478   7.343  1.4992  0.6495  0.8236
   84CHL1  H19C 8665   6.657   5.485   7.488 -0.7122 -2.5187  1.3995
   84CHL1    C1 8666   6.766   5.208   7.302  0.3775 -0.1735 -0.5359
   84CHL1   H1A 8667   6.850   5.203   7.375 -1.3663 -1.0608  1.4911
   84CHL1   H1B 8668   6.734   5.102   7.295  0.8773 -0.2483 -2.3421
   84CHL1    C2 8669   6.822   5.262   7.167 -0.0931 -0.3201 -0.8460
   84CHL1   H2A 8670   6.901   5.193   7.129  1.3358 -0.0710  1.4590
   84CHL1   H2B 8671   6.872   5.357   7.197  3.0446 -2.5244  1.7200
   84CHL1   C20 8672   6.406   5.155   8.019  0.1696  0.1576 -0.0828
   84CHL1   H20 8673   6.412   5.265   8.026 -0.3405  0.3619 -2.0834
   84CHL1   C21 8674   6.557   5.115   8.048  0.6755 -0.2021 -0.1993
   84CHL1  H21A 8675   6.548   5.004   8.040 -1.7462 -0.0669 -0.2131
   84CHL1  H21B 8676   6.578   5.139   8.154  0.3511  0.2580 -0.2342
   84CHL1  H21C 8677   6.632   5.177   7.995  0.9979  0.4451  0.9761
   84CHL1   C22 8678   6.302   5.085   8.112  0.0976 -0.0871 -0.5309
   84CHL1  H22A 8679   6.200   5.090   8.068 -0.5403  1.6294  0.9911
   84CHL1  H22B 8680   6.338   4.981   8.117  2.2626  0.6625  0.6579
   84CHL1   C23 8681   6.297   5.135   8.254 -0.1127 -0.1495  0.0312
   84CHL1  H23A 8682   6.402   5.129   8.289  0.0588 -1.8719 -0.6606
   84CHL1  H23B 8683   6.254   5.237   8.258 -1.4707 -0.7053  0.1774
   84CHL1   C24 8684   6.208   5.043   8.342  0.4290 -0.1440  0.5598
   84CHL1  H24A 8685   6.106   5.048   8.299 -0.5151 -1.2774  2.5272
   84CHL1  H24B 8686   6.251   4.941   8.331 -1.2733 -0.9025  0.7554
   84CHL1   C25 8687   6.220   5.060   8.490  0.6383  0.2439 -0.6470
   84CHL1   H25 8688   6.204   5.168   8.511 -1.6914 -0.1096 -0.2692
   84CHL1   C26 8689   6.107   4.975   8.545 -0.0761  0.0907 -0.2397
   84CHL1  H26A 8690   6.137   4.868   8.534  0.0413  0.2311 -1.4244
   84CHL1  H26B 8691   6.095   4.990   8.654 -0.5970 -0.3268 -0.2366
   84CHL1  H26C 8692   6.004   4.998   8.510 -0.7684 -2.7147 -0.2674
   84CHL1   C27 8693   6.354   5.004   8.557  0.6459 -0.4578 -0.1709
   84CHL1  H27A 8694   6.423   5.090   8.569  0.6387 -0.0004 -2.8091
   84CHL1  H27B 8695   6.351   4.966   8.661 -1.9063  2.2465  0.8874
   84CHL1  H27C 8696   6.404   4.924   8.498  1.7719 -0.8800  1.3212
   85CHL1    C3 8697   4.671   1.854   6.847 -0.0261  0.1196  0.7337
   85CHL1    H3 8698   4.778   1.883   6.836  0.1264 -0.1898  1.3477
   85CHL1    O3 8699   4.625   1.822   6.714 -0.2132  0.1503 -0.0324
   85CHL1   H3' 8700   4.692   1.773   6.667  0.7035  1.9069 -0.6642
   85CHL1    C4 8701   4.668   1.727   6.942 -0.2920 -0.8087  0.3072
   85CHL1   H4A 8702   4.577   1.664   6.937 -0.0164 -1.2611  0.8197
   85CHL1   H4B 8703   4.755   1.667   6.907 -0.6518 -1.1363 -0.0392
   85CHL1    C5 8704   4.701   1.760   7.089  0.7666  0.2505 -0.3678
   85CHL1    C6 8705   4.798   1.703   7.166  0.0575  0.7803  0.4049
   85CHL1    H6 8706   4.871   1.632   7.122  1.3261  1.5199  1.2581
   85CHL1    C7 8707   4.816   1.719   7.318 -0.3760  0.1991  0.4227
   85CHL1   H7A 8708   4.834   1.622   7.368 -1.1351 -0.8468 -1.2257
   85CHL1   H7B 8709   4.905   1.781   7.339  0.0813 -0.6118  0.9282
   85CHL1    C8 8710   4.697   1.804   7.372  0.3090  0.5596 -0.2133
   85CHL1    H8 8711   4.617   1.728   7.377  0.8722 -0.2138 -2.0393
   85CHL1   C14 8712   4.734   1.864   7.511 -0.5795 -1.0487 -0.1128
   85CHL1   H14 8713   4.815   1.938   7.494 -0.4112 -1.4985 -1.4326
   85CHL1   C15 8714   4.768   1.767   7.625 -0.4057 -0.5331  0.1048
   85CHL1  H15A 8715   4.703   1.678   7.612  0.9766 -1.5301 -0.1966
   85CHL1  H15B 8716   4.873   1.731   7.626 -0.8467 -1.9070 -0.5746
   85CHL1   C16 8717   4.749   1.859   7.749 -0.6487  0.1263  0.1682
   85CHL1  H16A 8718   4.698   1.796   7.824 -2.9371 -0.7528 -1.9643
   85CHL1  H16B 8719   4.846   1.895   7.790 -0.7099  0.2187  0.2305
   85CHL1   C17 8720   4.678   1.993   7.710  0.0470  0.3505 -0.4050
   85CHL1   H17 8721   4.753   2.071   7.687 -0.5402  0.5295 -1.8505
   85CHL1   C13 8722   4.621   1.967   7.568 -0.2939  0.5373 -0.3753
   85CHL1   C18 8723   4.488   1.884   7.574  0.1893 -0.4221 -0.3037
   85CHL1  H18A 8724   4.466   1.846   7.472 -0.7641  0.4963 -0.4548
   85CHL1  H18B 8725   4.494   1.799   7.645  1.9744  0.8408  1.1615
   85CHL1  H18C 8726   4.399   1.947   7.598  1.2658  0.5014  1.5011
   85CHL1   C12 8727   4.618   2.084   7.475 -0.3378 -0.7469  0.0866
   85CHL1  H12A 8728   4.543   2.158   7.508  1.4573  0.2351  2.2747
   85CHL1  H12B 8729   4.720   2.129   7.471 -0.1981 -1.1605 -2.4837
   85CHL1   C11 8730   4.589   2.043   7.330  0.2042  0.0106 -0.5094
   85CHL1  H11A 8731   4.479   2.030   7.337 -0.0086  1.9663  0.4332
   85CHL1  H11B 8732   4.601   2.133   7.265  2.5350  0.5808  0.5966
   85CHL1    C9 8733   4.667   1.922   7.278  0.0416  0.4052  0.6621
   85CHL1    H9 8734   4.768   1.967   7.262 -0.3779  0.4937 -2.2900
   85CHL1   C10 8735   4.613   1.872   7.136 -0.7395 -0.7764  0.1138
   85CHL1   C19 8736   4.471   1.838   7.158 -0.1961 -0.4658  0.3859
   85CHL1  H19A 8737   4.406   1.914   7.206 -1.7646 -2.9933  2.5421
   85CHL1  H19B 8738   4.413   1.794   7.074 -1.1690 -1.6552  1.6442
   85CHL1  H19C 8739   4.478   1.750   7.226 -0.7521 -2.4842 -1.9787
   85CHL1    C1 8740   4.621   2.006   7.037 -0.0468 -0.4509 -0.6617
   85CHL1   H1A 8741   4.545   2.078   7.073  1.1605  0.4765  0.1331
   85CHL1   H1B 8742   4.726   2.035   7.062 -0.8216  0.2803  2.0294
   85CHL1    C2 8743   4.588   1.967   6.894  0.1417 -0.3019  0.6344
   85CHL1   H2A 8744   4.604   2.056   6.829 -0.3154 -2.3182 -2.4319
   85CHL1   H2B 8745   4.481   1.936   6.899 -0.4194  1.5871  1.7155
   85CHL1   C20 8746   4.582   2.044   7.812 -0.5769 -0.3115 -0.1045
   85CHL1   H20 8747   4.506   1.965   7.833 -1.0277  0.8012  2.9495
   85CHL1   C21 8748   4.522   2.178   7.777  0.1274  0.0464 -0.0560
   85CHL1  H21A 8749   4.439   2.159   7.706  2.0861  2.3962 -3.2688
   85CHL1  H21B 8750   4.600   2.251   7.744  0.5034  0.7866  2.2734
   85CHL1  H21C 8751   4.463   2.215   7.863 -2.2528 -3.1544 -0.1391
   85CHL1   C22 8752   4.638   2.050   7.961 -0.0964 -0.4029  0.4151
   85CHL1  H22A 8753   4.698   1.958   7.981 -1.6119 -2.4001 -3.2553
   85CHL1  H22B 8754   4.715   2.128   7.974  0.2971 -1.1706  3.4851
   85CHL1   C23 8755   4.533   2.072   8.076 -0.9640  0.0971  0.4036
   85CHL1  H23A 8756   4.509   2.178   8.051 -2.7717 -0.1392  1.0273
   85CHL1  H23B 8757   4.449   2.003   8.055  0.9703 -2.0931 -0.6134
   85CHL1   C24 8758   4.596   2.053   8.221  0.1844  0.1586  0.3975
   85CHL1  H24A 8759   4.581   1.944   8.236  0.7743 -0.3165 -1.9757
   85CHL1  H24B 8760   4.705   2.068   8.237 -0.0296  0.4139  1.7203
   85CHL1   C25 8761   4.531   2.131   8.334 -0.2075  0.1334  0.4921
   85CHL1   H25 8762   4.422   2.112   8.336 -0.1778 -0.3195 -1.1161
   85CHL1   C26 8763   4.592   2.080   8.466 -0.5883  0.1582 -0.1223
   85CHL1  H26A 8764   4.543   2.146   8.541 -1.3458  0.7602 -1.1231
   85CHL1  H26B 8765   4.571   1.975   8.495 -1.9737  0.4720  0.0755
   85CHL1  H26C 8766   4.702   2.093   8.455 -0.6802  0.7493 -0.3917
   85CHL1   C27 8767   4.553   2.281   8.336 -0.1295  0.3132  0.2481
   85CHL1  H27A 8768   4.516   2.328   8.243  1.1970  1.3105  0.2059
   85CHL1  H27B 8769   4.493   2.334   8.414  0.4087 -1.5286  2.0216
   85CHL1  H27C 8770   4.657   2.298   8.369  0.1310 -2.5894  1.2451
   86CHL1    C3 8771   3.144   1.053   7.185 -0.1748 -0.7441 -0.3753
   86CHL1    H3 8772   3.254   1.060   7.195 -0.1152 -0.9346 -0.8636
   86CHL1    O3 8773   3.101   1.032   7.047  0.2500 -0.4311 -0.0053
   86CHL1   H3' 8774   3.126   1.114   7.004 -0.8997 -0.4393 -0.7366
   86CHL1    C4 8775   3.105   0.932   7.271  0.2005  0.5025  0.0271
   86CHL1   H4A 8776   2.998   0.907   7.261  0.0831 -0.7822  3.2652
   86CHL1   H4B 8777   3.153   0.845   7.221 -0.4077 -1.2442  2.3052
   86CHL1    C5 8778   3.140   0.949   7.415  0.2103  0.0165  0.0814
   86CHL1    C6 8779   3.224   0.872   7.483 -0.1835 -0.5423 -0.9263
   86CHL1    H6 8780   3.269   0.783   7.435  1.0114  0.8341 -2.4834
   86CHL1    C7 8781   3.260   0.877   7.628  0.3879 -0.0772  0.2532
   86CHL1   H7A 8782   3.240   0.778   7.674 -0.8662  0.5990  1.2401
   86CHL1   H7B 8783   3.370   0.887   7.627  0.6091 -1.9041  1.2681
   86CHL1    C8 8784   3.176   0.985   7.697 -0.1031 -0.4772  0.3127
   86CHL1    H8 8785   3.074   0.948   7.721 -1.1448  0.8988 -1.7153
   86CHL1   C14 8786   3.232   1.013   7.833  0.0714 -0.6286 -0.5827
   86CHL1   H14 8787   3.334   1.053   7.815  0.7578 -2.3151 -0.6189
   86CHL1   C15 8788   3.256   0.892   7.924  0.3906 -0.1435  0.9754
   86CHL1  H15A 8789   3.171   0.820   7.920 -1.1437  1.5937  0.8172
   86CHL1  H15B 8790   3.345   0.832   7.897  0.8875  1.1140 -0.2762
   86CHL1   C16 8791   3.265   0.957   8.065  0.3220 -0.3548 -0.2998
   86CHL1  H16A 8792   3.205   0.907   8.144  1.4546  0.6250  1.2438
   86CHL1  H16B 8793   3.370   0.958   8.102 -0.2033  0.7107  1.2496
   86CHL1   C17 8794   3.230   1.112   8.043  0.4422 -0.0157 -0.8111
   86CHL1   H17 8795   3.327   1.165   8.033  0.1659  0.5731 -0.4178
   86CHL1   C13 8796   3.162   1.121   7.909  0.2514  0.6000  0.1234
   86CHL1   C18 8797   3.012   1.089   7.927 -0.4230 -0.5814 -0.8669
   86CHL1  H18A 8798   2.999   0.999   7.991 -1.6917  0.9805  1.2048
   86CHL1  H18B 8799   2.964   1.175   7.979 -1.9196 -2.5075  1.1574
   86CHL1  H18C 8800   2.965   1.066   7.829 -1.4111  0.1557 -0.5829
   86CHL1   C12 8801   3.169   1.253   7.836 -0.6468  0.1810  0.9090
   86CHL1  H12A 8802   3.132   1.343   7.889  1.5548  1.8603 -0.2374
   86CHL1  H12B 8803   3.275   1.281   7.820 -0.8356  0.8071  0.7109
   86CHL1   C11 8804   3.114   1.233   7.690  0.1243  0.4561  0.1173
   86CHL1  H11A 8805   3.004   1.228   7.701  0.1047  0.4343 -0.0892
   86CHL1  H11B 8806   3.135   1.330   7.640  1.1387  0.8537  1.2486
   86CHL1    C9 8807   3.162   1.111   7.612  0.3510  0.2221  0.8377
   86CHL1    H9 8808   3.268   1.130   7.587 -0.0518  1.3839 -0.0570
   86CHL1   C10 8809   3.088   1.074   7.477 -0.1448 -0.6076 -0.6168
   86CHL1   C19 8810   2.939   1.067   7.501  0.9167 -0.5847 -0.6552
   86CHL1  H19A 8811   2.888   1.038   7.407  1.8666  0.9132 -1.6712
   86CHL1  H19B 8812   2.904   1.010   7.590  2.1080  0.7149  0.7070
   86CHL1  H19C 8813   2.897   1.167   7.523  2.2845 -0.0438 -0.4201
   86CHL1    C1 8814   3.128   1.198   7.379 -0.2461  0.3110 -0.9338
   86CHL1   H1A 8815   3.064   1.282   7.411 -0.8370 -0.0586 -1.1331
   86CHL1   H1B 8816   3.238   1.213   7.385  0.1141 -2.4319  1.6651
   86CHL1    C2 8817   3.086   1.183   7.235  0.0301  0.0512  0.3552
   86CHL1   H2A 8818   3.127   1.265   7.171  0.3756 -0.8909 -0.6632
   86CHL1   H2B 8819   2.975   1.187   7.230 -0.0879 -1.1483  1.5125
   86CHL1   C20 8820   3.157   1.175   8.170  0.2436  0.4159  0.9968
   86CHL1   H20 8821   3.057   1.126   8.170  2.2612 -4.3885 -1.6484
   86CHL1   C21 8822   3.143   1.324   8.152  0.3792  0.3836 -0.4526
   86CHL1  H21A 8823   3.243   1.373   8.148 -0.4206  2.7642  3.2567
   86CHL1  H21B 8824   3.107   1.346   8.255  1.7181 -1.3464  0.4580
   86CHL1  H21C 8825   3.067   1.358   8.079 -1.3439 -2.9121 -0.3831
   86CHL1   C22 8826   3.229   1.144   8.304 -0.6771 -0.7563  0.0725
   86CHL1  H22A 8827   3.276   1.043   8.302 -0.4200 -0.6865 -2.8837
   86CHL1  H22B 8828   3.309   1.220   8.316  0.3717 -2.0341  1.4074
   86CHL1   C23 8829   3.151   1.148   8.432  0.6439  0.4604  0.4649
   86CHL1  H23A 8830   3.226   1.163   8.514 -1.1531 -1.0167  2.5073
   86CHL1  H23B 8831   3.097   1.245   8.436 -2.0032 -0.9805  2.1849
   86CHL1   C24 8832   3.056   1.031   8.454  0.2652  0.1334  0.3324
   86CHL1  H24A 8833   3.046   0.965   8.365 -0.8425 -0.6962  1.0458
   86CHL1  H24B 8834   3.094   0.963   8.534  0.9084 -2.7550 -2.2393
   86CHL1   C25 8835   2.905   1.059   8.477  0.2771 -0.3622  0.2890
   86CHL1   H25 8836   2.854   0.960   8.483  2.0024 -1.3578 -0.4776
   86CHL1   C26 8837   2.874   1.136   8.601  0.2007  0.2178  0.2382
   86CHL1  H26A 8838   2.764   1.141   8.616  0.2641 -0.2097  0.8684
   86CHL1  H26B 8839   2.918   1.095   8.694 -0.7296  3.3645  2.2429
   86CHL1  H26C 8840   2.908   1.241   8.583  1.6536 -0.0020  1.4418
   86CHL1   C27 8841   2.839   1.138   8.358 -0.2223  0.5388 -0.0745
   86CHL1  H27A 8842   2.889   1.237   8.347  0.3784  0.3736  1.1108
   86CHL1  H27B 8843   2.853   1.088   8.260  0.4385 -0.0848  0.3336
   86CHL1  H27C 8844   2.736   1.168   8.386 -0.0288  0.7064  0.4643
   87CHL1    C3 8845   3.325   4.505   7.431  0.2988 -0.5977  0.8371
   87CHL1    H3 8846   3.223   4.462   7.442 -0.6613  1.7614  1.8482
   87CHL1    O3 8847   3.362   4.512   7.288 -0.5031  0.0943 -0.4939
   87CHL1   H3' 8848   3.288   4.556   7.245 -1.9745 -2.7046 -1.1031
   87CHL1    C4 8849   3.310   4.650   7.485 -0.0525 -0.5116  0.3381
   87CHL1   H4A 8850   3.407   4.699   7.460  1.1418 -2.6722  0.4920
   87CHL1   H4B 8851   3.236   4.703   7.422  1.5377 -0.6782 -1.7753
   87CHL1    C5 8852   3.280   4.657   7.635  0.1246  0.2119  0.1732
   87CHL1    C6 8853   3.183   4.726   7.697  0.1638 -0.0977 -0.3019
   87CHL1    H6 8854   3.107   4.774   7.634 -0.0353 -0.9077 -0.6917
   87CHL1    C7 8855   3.167   4.747   7.849  0.4000 -0.0267 -0.1425
   87CHL1   H7A 8856   3.140   4.853   7.869  0.4444 -0.4959  2.8863
   87CHL1   H7B 8857   3.083   4.682   7.880 -0.0905  0.8471  0.3973
   87CHL1    C8 8858   3.284   4.704   7.926 -0.9179  0.1020 -0.7929
   87CHL1    H8 8859   3.356   4.789   7.923 -0.1992 -0.3100  1.8014
   87CHL1   C14 8860   3.235   4.687   8.069 -0.0384  0.2788  0.2186
   87CHL1   H14 8861   3.175   4.594   8.074  0.4918 -0.0943 -0.2599
   87CHL1   C15 8862   3.166   4.804   8.140  0.1612  0.5278  0.1098
   87CHL1  H15A 8863   3.216   4.894   8.098  1.4047 -0.2156 -0.0639
   87CHL1  H15B 8864   3.056   4.796   8.131  0.3463  0.2689 -2.3897
   87CHL1   C16 8865   3.198   4.799   8.289 -0.1514 -0.1279 -0.5797
   87CHL1  H16A 8866   3.264   4.887   8.308  0.4334 -0.3224 -1.6697
   87CHL1  H16B 8867   3.117   4.810   8.364  1.9436 -0.3855  1.8779
   87CHL1   C17 8868   3.285   4.668   8.307 -0.2052 -0.4291 -0.4016
   87CHL1   H17 8869   3.214   4.583   8.312 -0.1186 -0.5098  5.0628
   87CHL1   C13 8870   3.354   4.644   8.165 -0.0967 -0.2556 -1.1145
   87CHL1   C18 8871   3.470   4.738   8.150 -0.0252 -0.6610 -0.1535
   87CHL1  H18A 8872   3.556   4.718   8.217 -0.3701  1.7714  1.1362
   87CHL1  H18B 8873   3.507   4.730   8.045  0.6799  2.3192 -0.2146
   87CHL1  H18C 8874   3.435   4.843   8.167 -0.3364 -1.0817  2.0293
   87CHL1   C12 8875   3.393   4.503   8.121  0.0979  0.5929  0.3333
   87CHL1  H12A 8876   3.480   4.459   8.175  1.6109  1.5353 -1.2368
   87CHL1  H12B 8877   3.305   4.436   8.127  1.8103 -2.0630 -1.7435
   87CHL1   C11 8878   3.435   4.495   7.970 -0.0264 -0.5893  0.9415
   87CHL1  H11A 8879   3.537   4.539   7.966  0.3328 -1.5103 -0.6627
   87CHL1  H11B 8880   3.453   4.391   7.936 -0.3342 -0.0084 -1.0854
   87CHL1    C9 8881   3.337   4.570   7.866  0.2822  0.1966  0.3094
   87CHL1    H9 8882   3.251   4.499   7.862  0.6212 -0.2025 -0.1210
   87CHL1   C10 8883   3.382   4.585   7.721 -0.1459 -0.2582  0.0335
   87CHL1   C19 8884   3.525   4.658   7.718  0.5224 -0.2656  0.0809
   87CHL1  H19A 8885   3.512   4.760   7.760 -0.4423  0.0574 -0.9400
   87CHL1  H19B 8886   3.599   4.601   7.778  2.1157 -0.3997 -1.8644
   87CHL1  H19C 8887   3.575   4.665   7.619 -2.2024 -1.6259 -1.5061
   87CHL1    C1 8888   3.394   4.441   7.664 -0.6569 -0.0077  0.1239
   87CHL1   H1A 8889   3.473   4.399   7.730  0.9859  2.2045 -0.3208
   87CHL1   H1B 8890   3.301   4.385   7.685 -0.0294 -0.9078  0.5883
   87CHL1    C2 8891   3.432   4.426   7.512 -0.7350 -0.1232  0.1066
   87CHL1   H2A 8892   3.428   4.321   7.476 -0.8733 -0.9380  2.3574
   87CHL1   H2B 8893   3.528   4.477   7.490 -1.1994 -0.2777 -2.7713
   87CHL1   C20 8894   3.376   4.646   8.426  1.1572  0.4063  0.8931
   87CHL1   H20 8895   3.450   4.565   8.409 -1.7797 -1.9213 -1.8945
   87CHL1   C21 8896   3.277   4.594   8.542  1.2507  0.1478  0.1936
   87CHL1  H21A 8897   3.196   4.668   8.560  1.1934 -0.4420  2.6458
   87CHL1  H21B 8898   3.335   4.593   8.637  0.9751 -1.4446  0.3724
   87CHL1  H21C 8899   3.233   4.497   8.512  0.3067  0.3975  0.7516
   87CHL1   C22 8900   3.445   4.778   8.480  0.3908 -0.0171  0.3183
   87CHL1  H22A 8901   3.507   4.808   8.393 -0.3943  1.2553  0.1780
   87CHL1  H22B 8902   3.370   4.857   8.498 -1.5939 -1.4674 -1.1904
   87CHL1   C23 8903   3.539   4.759   8.599 -0.2860  0.1011 -0.2489
   87CHL1  H23A 8904   3.488   4.769   8.697  2.0315 -0.9355  1.1235
   87CHL1  H23B 8905   3.573   4.653   8.599 -0.8156 -0.1005  1.5095
   87CHL1   C24 8906   3.663   4.847   8.594  0.1005 -0.4103 -0.4041
   87CHL1  H24A 8907   3.723   4.829   8.502  1.2025  0.0943  0.1874
   87CHL1  H24B 8908   3.628   4.949   8.568 -0.2117 -0.4547 -0.1612
   87CHL1   C25 8909   3.745   4.856   8.722  0.4504 -0.2871  0.4149
   87CHL1   H25 8910   3.689   4.870   8.817  0.1306 -1.4411  0.4200
   87CHL1   C26 8911   3.826   4.724   8.736 -0.7293  1.2229 -0.1679
   87CHL1  H26A 8912   3.906   4.704   8.661  0.1978 -2.0263  1.4846
   87CHL1  H26B 8913   3.877   4.721   8.834  0.5131 -2.6706 -0.7261
   87CHL1  H26C 8914   3.753   4.641   8.725  1.3849 -0.6926 -0.6378
   87CHL1   C27 8915   3.848   4.972   8.709 -0.7704  0.1271 -0.0868
   87CHL1  H27A 8916   3.791   5.067   8.709  0.6642  1.0159 -0.5482
   87CHL1  H27B 8917   3.918   4.966   8.795  1.4102  2.2080 -1.6188
   87CHL1  H27C 8918   3.900   4.974   8.611  1.5675  0.3661  1.0963
   88CHL1    C3 8919   6.341   2.825   7.258 -0.2011 -0.1152  0.0006
   88CHL1    H3 8920   6.441   2.790   7.292 -0.4739  0.2309  1.1921
   88CHL1    O3 8921   6.333   2.810   7.120  0.1144  0.0814 -0.6180
   88CHL1   H3' 8922   6.239   2.801   7.104 -0.1176 -0.2450  0.7842
   88CHL1    C4 8923   6.228   2.746   7.321  0.1108  0.3554  0.5894
   88CHL1   H4A 8924   6.124   2.778   7.297  0.4600  1.4518  0.5310
   88CHL1   H4B 8925   6.242   2.639   7.292  4.7836  0.5911  1.3427
   88CHL1    C5 8926   6.231   2.748   7.469  0.1822 -0.0544  0.0855
   88CHL1    C6 8927   6.242   2.636   7.543 -0.4183  0.5784  0.1793
   88CHL1    H6 8928   6.246   2.537   7.496  0.9600  0.4436  0.5475
   88CHL1    C7 8929   6.247   2.640   7.694 -0.6715 -0.6177 -0.3379
   88CHL1   H7A 8930   6.191   2.559   7.746  0.4771 -0.5152  1.1314
   88CHL1   H7B 8931   6.356   2.630   7.714 -0.5752 -1.4205 -1.1721
   88CHL1    C8 8932   6.205   2.773   7.755  0.7120 -0.0920  0.0138
   88CHL1    H8 8933   6.095   2.787   7.750  0.8658  1.5445  0.7796
   88CHL1   C14 8934   6.254   2.769   7.898  0.8847 -0.6016  0.4898
   88CHL1   H14 8935   6.365   2.770   7.906  0.8167  1.7181  2.1777
   88CHL1   C15 8936   6.203   2.654   7.986  0.1949 -0.5315 -0.0048
   88CHL1  H15A 8937   6.102   2.628   7.948  0.3601 -0.4238 -0.5328
   88CHL1  H15B 8938   6.271   2.568   7.968  2.4779  1.2020 -0.1893
   88CHL1   C16 8939   6.211   2.707   8.130  0.1889  0.2564  0.1367
   88CHL1  H16A 8940   6.105   2.711   8.161 -0.6456  1.4259 -2.5881
   88CHL1  H16B 8941   6.267   2.644   8.202 -1.8633 -2.0027 -0.1565
   88CHL1   C17 8942   6.256   2.854   8.115 -0.1817 -0.0498  0.1739
   88CHL1   H17 8943   6.367   2.842   8.113 -0.1466  0.3306 -0.6014
   88CHL1   C13 8944   6.214   2.898   7.967  0.7296  0.4015  0.0859
   88CHL1   C18 8945   6.057   2.912   7.968  0.1943  0.3378 -0.1702
   88CHL1  H18A 8946   6.028   3.003   8.024 -0.7678 -0.7637  1.1767
   88CHL1  H18B 8947   6.018   2.927   7.865 -1.4890 -1.7097  0.1077
   88CHL1  H18C 8948   6.010   2.820   8.009  0.3813  0.8718  1.2824
   88CHL1   C12 8949   6.281   3.020   7.905  0.0778  0.2149  0.3166
   88CHL1  H12A 8950   6.257   3.113   7.962  0.1500  0.5407 -0.1728
   88CHL1  H12B 8951   6.391   3.009   7.904  0.4821  3.0263 -2.3480
   88CHL1   C11 8952   6.238   3.026   7.758 -0.0460 -0.0115  0.1758
   88CHL1  H11A 8953   6.131   3.055   7.751  0.0605  0.1227 -1.3963
   88CHL1  H11B 8954   6.277   3.118   7.709  1.7835 -0.6196  0.4034
   88CHL1    C9 8955   6.261   2.891   7.684 -0.4404 -0.0086  0.1008
   88CHL1    H9 8956   6.371   2.874   7.693 -0.4935 -0.4002  0.0551
   88CHL1   C10 8957   6.226   2.889   7.530  0.3362  0.2577 -0.6978
   88CHL1   C19 8958   6.082   2.951   7.507  0.2096  0.2547  0.0355
   88CHL1  H19A 8959   6.070   3.047   7.563 -0.2132  0.1915  0.0556
   88CHL1  H19B 8960   6.056   2.950   7.399  0.8769 -1.6708 -0.1422
   88CHL1  H19C 8961   6.008   2.878   7.546 -0.2936 -1.1857 -3.3076
   88CHL1    C1 8962   6.327   2.981   7.448  0.3265  0.5193  0.2063
   88CHL1   H1A 8963   6.310   3.085   7.483 -1.6061  0.1361  0.5127
   88CHL1   H1B 8964   6.429   2.963   7.486  0.1459 -2.8305 -0.5947
   88CHL1    C2 8965   6.312   2.972   7.292 -0.3997 -0.1826 -0.4501
   88CHL1   H2A 8966   6.394   3.034   7.249 -1.2528 -0.1095 -2.0467
   88CHL1   H2B 8967   6.222   3.019   7.245  0.3311  0.8723 -0.8404
   88CHL1   C20 8968   6.223   2.938   8.236 -0.0819 -0.8062 -0.2740
   88CHL1   H20 8969   6.113   2.958   8.240  0.2566  1.1151  0.8995
   88CHL1   C21 8970   6.294   3.077   8.235  0.2756 -0.0890 -0.3626
   88CHL1  H21A 8971   6.266   3.120   8.333 -0.5317 -2.9463  0.7633
   88CHL1  H21B 8972   6.249   3.143   8.157 -0.4472 -0.3520 -0.1772
   88CHL1  H21C 8973   6.404   3.075   8.224  0.7437 -1.9290  3.3073
   88CHL1   C22 8974   6.244   2.870   8.376 -0.0061 -0.4516 -0.3815
   88CHL1  H22A 8975   6.211   2.936   8.459  0.2794 -0.7657 -0.0173
   88CHL1  H22B 8976   6.176   2.782   8.378 -0.7496  0.1141  1.2643
   88CHL1   C23 8977   6.392   2.825   8.401  0.1904 -0.2957 -0.0974
   88CHL1  H23A 8978   6.418   2.749   8.324 -2.4385 -0.3066 -1.0750
   88CHL1  H23B 8979   6.460   2.911   8.387 -0.2807 -0.1177 -1.4690
   88CHL1   C24 8980   6.417   2.766   8.542  0.6872  0.4343  0.1972
   88CHL1  H24A 8981   6.361   2.820   8.622  0.1802 -2.0422  1.6077
   88CHL1  H24B 8982   6.374   2.664   8.551 -0.9436  1.1842  1.4519
   88CHL1   C25 8983   6.563   2.765   8.590 -0.2600 -0.1302  0.1153
   88CHL1   H25 8984   6.597   2.871   8.585  0.1775 -0.1463  2.0511
   88CHL1   C26 8985   6.575   2.725   8.737 -0.3133 -0.7483  0.7027
   88CHL1  H26A 8986   6.671   2.763   8.779  1.5444 -1.3880 -2.5896
   88CHL1  H26B 8987   6.499   2.776   8.800 -0.2842 -0.3285  0.4095
   88CHL1  H26C 8988   6.558   2.616   8.750 -0.2093 -0.6944  1.3171
   88CHL1   C27 8989   6.668   2.688   8.501  0.5410  0.0299 -0.1097
   88CHL1  H27A 8990   6.664   2.725   8.396  3.8809  0.9047 -0.0375
   88CHL1  H27B 8991   6.770   2.718   8.532  1.5624 -1.3715 -1.9096
   88CHL1  H27C 8992   6.664   2.577   8.509  3.2492  0.0259  3.9082
   89CHL1    C3 8993   2.040   5.370   7.374  0.7565 -0.5053 -1.0747
   89CHL1    H3 8994   2.060   5.285   7.443  2.9195  0.2853 -0.6886
   89CHL1    O3 8995   2.007   5.311   7.255 -0.2547  0.8383 -0.1177
   89CHL1   H3' 8996   1.968   5.378   7.199 -1.2582  0.3012 -0.0807
   89CHL1    C4 8997   1.921   5.452   7.428  0.0034  0.2146  0.4758
   89CHL1   H4A 8998   1.920   5.534   7.353  0.9731 -0.6037 -0.4670
   89CHL1   H4B 8999   1.830   5.389   7.411  0.6420  0.0766 -3.5110
   89CHL1    C5 9000   1.949   5.496   7.572  0.3438  0.1581 -0.3933
   89CHL1    C6 9001   1.861   5.470   7.676 -0.4132 -0.3431  0.7419
   89CHL1    H6 9002   1.771   5.414   7.649 -1.0556  0.6528  0.7504
   89CHL1    C7 9003   1.876   5.527   7.813 -0.1094  0.8671  0.1777
   89CHL1   H7A 9004   1.786   5.588   7.832 -1.1899 -0.7394  0.4187
   89CHL1   H7B 9005   1.893   5.443   7.883 -1.9689 -0.3550 -0.7527
   89CHL1    C8 9006   1.994   5.629   7.823 -0.3011 -0.9032  0.0299
   89CHL1    H8 9007   1.956   5.725   7.782  0.2017 -0.1997  1.1844
   89CHL1   C14 9008   2.035   5.634   7.967  0.4970  0.4346 -0.2465
   89CHL1   H14 9009   2.089   5.539   7.984  1.2166  1.1283  1.5067
   89CHL1   C15 9010   1.932   5.655   8.078 -0.4647 -0.2227  0.1223
   89CHL1  H15A 9011   1.875   5.741   8.038  0.9862  0.6827 -0.0631
   89CHL1  H15B 9012   1.855   5.576   8.092 -1.2477  0.2543 -1.3153
   89CHL1   C16 9013   2.024   5.683   8.207  0.0284  0.3713 -0.7059
   89CHL1  H16A 9014   1.993   5.774   8.263  0.9441  0.3330 -0.1061
   89CHL1  H16B 9015   2.012   5.607   8.287 -0.7816  1.3590  0.1506
   89CHL1   C17 9016   2.164   5.723   8.151 -0.1412 -0.8286 -0.9302
   89CHL1   H17 9017   2.228   5.632   8.163  1.4748  0.1196 -1.9426
   89CHL1   C13 9018   2.146   5.736   7.998  0.5680  0.3596 -0.9663
   89CHL1   C18 9019   2.091   5.883   7.966 -0.4918  0.8778 -0.4633
   89CHL1  H18A 9020   2.013   5.917   8.036 -2.4059 -2.9068 -0.5189
   89CHL1  H18B 9021   2.175   5.956   7.955  1.9243 -1.8271 -1.4294
   89CHL1  H18C 9022   2.035   5.886   7.870 -0.6163  0.7307 -0.3953
   89CHL1   C12 9023   2.271   5.699   7.909 -0.0283  0.0962 -0.1557
   89CHL1  H12A 9024   2.345   5.778   7.933  0.3102 -0.0937 -0.5514
   89CHL1  H12B 9025   2.316   5.610   7.958 -1.4372 -0.4012  0.2886
   89CHL1   C11 9026   2.236   5.688   7.764 -0.1017 -0.0088  0.7863
   89CHL1  H11A 9027   2.197   5.788   7.733 -1.2068 -1.2000 -2.0448
   89CHL1  H11B 9028   2.320   5.660   7.698 -2.7897  0.1799 -3.0704
   89CHL1    C9 9029   2.115   5.595   7.736 -0.6690  0.6457  0.4588
   89CHL1    H9 9030   2.152   5.497   7.774 -0.2241  1.1127  1.2503
   89CHL1   C10 9031   2.080   5.577   7.586 -0.9014 -0.2879  0.1095
   89CHL1   C19 9032   2.055   5.708   7.520  0.0152  0.3356  0.1815
   89CHL1  H19A 9033   1.976   5.768   7.569  0.7748 -0.4015  2.4293
   89CHL1  H19B 9034   2.152   5.761   7.517  1.5071 -2.2052  0.1705
   89CHL1  H19C 9035   2.029   5.694   7.413 -3.2012 -1.5087  1.0635
   89CHL1    C1 9036   2.206   5.503   7.510 -0.3806 -0.0748  1.1598
   89CHL1   H1A 9037   2.282   5.581   7.488 -0.4896 -0.2497  0.1325
   89CHL1   H1B 9038   2.246   5.428   7.581  5.1699  3.2833  2.1972
   89CHL1    C2 9039   2.170   5.444   7.371 -0.9028 -0.0631 -0.0083
   89CHL1   H2A 9040   2.250   5.375   7.337  0.5117  0.4987  2.0086
   89CHL1   H2B 9041   2.155   5.534   7.307  0.3022  0.7909  0.8582
   89CHL1   C20 9042   2.217   5.847   8.232 -0.9698 -0.5517  0.5834
   89CHL1   H20 9043   2.144   5.930   8.237  1.2953  1.5743  0.0902
   89CHL1   C21 9044   2.357   5.902   8.185  0.5119  0.8103  0.7915
   89CHL1  H21A 9045   2.398   5.988   8.242  2.3766 -1.7220  3.6293
   89CHL1  H21B 9046   2.347   5.926   8.077  1.0276 -3.0436 -0.2896
   89CHL1  H21C 9047   2.430   5.818   8.188 -1.8515 -1.4436 -0.3390
   89CHL1   C22 9048   2.240   5.810   8.384  0.2160 -0.3249  0.0042
   89CHL1  H22A 9049   2.165   5.732   8.410  0.6293 -0.6844  0.1250
   89CHL1  H22B 9050   2.343   5.770   8.391 -0.0484 -1.0275 -0.0130
   89CHL1   C23 9051   2.204   5.935   8.478  0.4388  0.5295 -0.5053
   89CHL1  H23A 9052   2.274   6.017   8.454 -0.6240  1.5417 -0.2305
   89CHL1  H23B 9053   2.098   5.963   8.460 -0.5630 -3.1768 -1.2539
   89CHL1   C24 9054   2.209   5.891   8.628 -0.2723 -0.3999 -1.5579
   89CHL1  H24A 9055   2.129   5.816   8.647 -1.6165  0.9029 -1.8539
   89CHL1  H24B 9056   2.309   5.844   8.640  0.4225  0.8461 -2.3630
   89CHL1   C25 9057   2.193   6.010   8.726  0.1880 -0.0132  0.1781
   89CHL1   H25 9058   2.198   5.982   8.833 -0.2951 -0.8551 -0.0133
   89CHL1   C26 9059   2.302   6.119   8.702  0.3204 -0.7157  0.4148
   89CHL1  H26A 9060   2.299   6.144   8.594  0.8353 -1.6940  0.1611
   89CHL1  H26B 9061   2.274   6.213   8.753 -1.3485 -1.2067  0.4567
   89CHL1  H26C 9062   2.401   6.090   8.742 -0.7617 -3.0885  1.5559
   89CHL1   C27 9063   2.047   6.061   8.717 -0.0516 -0.1081 -0.5370
   89CHL1  H27A 9064   2.033   6.147   8.786 -0.0434 -0.4727 -0.0769
   89CHL1  H27B 9065   2.031   6.109   8.618  1.4125  0.2361 -0.6342
   89CHL1  H27C 9066   1.978   5.980   8.747 -0.3068  0.0458 -0.7128
   90CHL1    C3 9067   0.064   1.115   7.165  0.3294 -0.3224 -0.0660
   90CHL1    H3 9068  -0.017   1.190   7.173 -0.2974 -0.6576 -2.6245
   90CHL1    O3 9069   0.112   1.111   7.033  0.0253  0.5751 -0.1159
   90CHL1   H3' 9070   0.173   1.037   7.030 -0.2397  0.3823 -1.5929
   90CHL1    C4 9071   0.172   1.158   7.270 -0.6045 -0.6187 -0.6448
   90CHL1   H4A 9072   0.264   1.101   7.246 -0.4566 -0.4640 -0.4548
   90CHL1   H4B 9073   0.204   1.263   7.248  1.2075 -0.8964  0.4778
   90CHL1    C5 9074   0.135   1.139   7.417 -0.3917 -0.1758  0.6987
   90CHL1    C6 9075   0.152   1.232   7.504  0.8406 -0.4531  0.6981
   90CHL1    H6 9076   0.201   1.325   7.472  0.6462 -0.3836  0.6018
   90CHL1    C7 9077   0.107   1.227   7.650  0.2221 -1.2649  0.1354
   90CHL1   H7A 9078   0.188   1.248   7.722  0.8968 -2.6251 -0.1956
   90CHL1   H7B 9079   0.027   1.304   7.662  1.2113  0.0183 -1.0539
   90CHL1    C8 9080   0.051   1.089   7.691 -0.1067 -0.0224  0.4330
   90CHL1    H8 9081   0.127   1.011   7.715 -0.8780 -0.7424  0.6008
   90CHL1   C14 9082  -0.045   1.097   7.815 -0.4413 -0.0405  0.7738
   90CHL1   H14 9083  -0.133   1.145   7.766  0.3176  0.2754 -0.3131
   90CHL1   C15 9084   0.000   1.170   7.945  0.9262 -0.3009 -0.1106
   90CHL1  H15A 9085   0.110   1.158   7.958  1.4128  1.0135 -2.3491
   90CHL1  H15B 9086  -0.016   1.280   7.936  1.5273 -0.2006 -0.0087
   90CHL1   C16 9087  -0.074   1.105   8.060  0.2060 -1.1861  0.1380
   90CHL1  H16A 9088  -0.003   1.055   8.130  0.2793  0.3671  1.2131
   90CHL1  H16B 9089  -0.136   1.180   8.114 -0.2197 -2.0402  0.8547
   90CHL1   C17 9090  -0.171   1.004   7.988  0.2530  0.1526  0.0542
   90CHL1   H17 9091  -0.256   1.068   7.954  0.0859  1.2215  2.3031
   90CHL1   C13 9092  -0.095   0.962   7.860 -0.1648 -0.1055 -0.0283
   90CHL1   C18 9093   0.017   0.871   7.911  0.1826  0.7692 -0.3710
   90CHL1  H18A 9094   0.079   0.909   7.996 -1.3131 -0.5045  1.3565
   90CHL1  H18B 9095  -0.031   0.772   7.927 -0.3025  0.9179 -0.8852
   90CHL1  H18C 9096   0.090   0.839   7.833 -0.2031 -1.0829  0.0029
   90CHL1   C12 9097  -0.182   0.905   7.753  0.9722  0.9185  0.0120
   90CHL1  H12A 9098  -0.201   0.798   7.775  1.2697  0.3803 -2.1116
   90CHL1  H12B 9099  -0.267   0.976   7.753 -0.7948 -1.0984  0.3830
   90CHL1   C11 9100  -0.113   0.898   7.616 -0.5831 -0.2200 -0.3748
   90CHL1  H11A 9101  -0.050   0.808   7.634  1.1726  0.8102 -1.0534
   90CHL1  H11B 9102  -0.187   0.862   7.542 -0.9510 -1.7139  0.6824
   90CHL1    C9 9103  -0.030   1.027   7.579  0.1206  0.6469  0.1991
   90CHL1    H9 9104  -0.110   1.101   7.558 -0.1796  0.0503 -0.8020
   90CHL1   C10 9105   0.056   1.009   7.447 -0.3687  0.1555  0.4482
   90CHL1   C19 9106   0.160   0.899   7.463 -0.1049 -0.0492  0.3977
   90CHL1  H19A 9107   0.227   0.887   7.375 -0.0699 -0.1826  0.4423
   90CHL1  H19B 9108   0.228   0.921   7.548 -0.6080  0.5374  0.6551
   90CHL1  H19C 9109   0.115   0.799   7.479 -1.0021  0.5960  2.1420
   90CHL1    C1 9110  -0.044   0.966   7.334  0.6121 -0.3978 -0.9628
   90CHL1   H1A 9111  -0.069   0.860   7.356  0.5492 -0.3391 -0.7487
   90CHL1   H1B 9112  -0.138   1.024   7.329  0.6983 -0.3143 -1.6683
   90CHL1    C2 9113   0.013   0.974   7.191  0.3620  0.3775 -0.3623
   90CHL1   H2A 9114  -0.065   0.951   7.114  0.2509  1.5613 -0.6241
   90CHL1   H2B 9115   0.087   0.892   7.189  1.8017  1.6351 -0.4637
   90CHL1   C20 9116  -0.244   0.895   8.076  0.3433 -0.4915  0.0372
   90CHL1   H20 9117  -0.285   0.825   8.001 -0.4139 -0.8962  0.8115
   90CHL1   C21 9118  -0.366   0.960   8.151  0.6635 -0.1795  0.5883
   90CHL1  H21A 9119  -0.333   1.025   8.235 -0.0665 -0.5836  1.2102
   90CHL1  H21B 9120  -0.431   0.874   8.176  1.2419 -0.7407  0.1708
   90CHL1  H21C 9121  -0.433   1.014   8.080 -0.6028 -3.5615 -1.0077
   90CHL1   C22 9122  -0.151   0.823   8.183 -0.8152  0.3969 -0.2350
   90CHL1  H22A 9123  -0.044   0.840   8.159 -0.2343 -1.7947  0.5523
   90CHL1  H22B 9124  -0.173   0.861   8.286 -0.9853 -0.2202 -0.0418
   90CHL1   C23 9125  -0.181   0.668   8.187  0.0793  0.0470  0.1212
   90CHL1  H23A 9126  -0.292   0.659   8.191  0.0107  0.4663 -0.6311
   90CHL1  H23B 9127  -0.144   0.633   8.089  2.9999 -1.3155  1.5803
   90CHL1   C24 9128  -0.115   0.582   8.304 -0.5237 -0.1202 -0.0152
   90CHL1  H24A 9129  -0.005   0.592   8.287 -0.3513  2.3069  1.8993
   90CHL1  H24B 9130  -0.136   0.641   8.396  1.3347  2.5444 -1.1533
   90CHL1   C25 9131  -0.156   0.436   8.303  0.5695 -0.2964 -0.0296
   90CHL1   H25 9132  -0.264   0.435   8.328  0.9824  2.6631  2.5229
   90CHL1   C26 9133  -0.131   0.366   8.165  0.0519  0.0902 -0.4070
   90CHL1  H26A 9134  -0.188   0.421   8.087 -0.0724 -0.6883 -0.8781
   90CHL1  H26B 9135  -0.023   0.358   8.141  0.6109  1.7659  1.3864
   90CHL1  H26C 9136  -0.178   0.265   8.170  1.1006 -0.4787 -1.4129
   90CHL1   C27 9137  -0.081   0.366   8.412 -0.2360  0.1680  0.1072
   90CHL1  H27A 9138  -0.104   0.257   8.403 -1.9443  0.0810  3.5592
   90CHL1  H27B 9139   0.027   0.392   8.400 -0.3694  1.2312  1.0275
   90CHL1  H27C 9140  -0.100   0.396   8.518  2.6254  0.0507  0.7487
   91CHL1    C3 9141   2.442   3.749   7.380  0.5200 -0.7064 -0.9467
   91CHL1    H3 9142   2.375   3.837   7.367 -0.9674 -1.2836  2.0055
   91CHL1    O3 9143   2.469   3.683   7.260  0.0022  0.5512 -0.0246
   91CHL1   H3' 9144   2.408   3.609   7.261  1.5603 -0.8818  2.8440
   91CHL1    C4 9145   2.572   3.793   7.450 -1.2444 -0.3323 -0.5700
   91CHL1   H4A 9146   2.646   3.709   7.454  0.1712  0.8360 -1.0388
   91CHL1   H4B 9147   2.618   3.868   7.382  1.1323 -1.4676 -0.3421
   91CHL1    C5 9148   2.567   3.846   7.592 -0.4762  0.0301  0.3621
   91CHL1    C6 9149   2.622   3.965   7.625  0.7208  0.2555 -0.1961
   91CHL1    H6 9150   2.686   4.023   7.556  2.1163 -1.4579 -0.4235
   91CHL1    C7 9151   2.619   4.008   7.767 -0.0304 -0.6709 -0.3498
   91CHL1   H7A 9152   2.715   4.057   7.795 -0.3732  0.6426 -1.3535
   91CHL1   H7B 9153   2.546   4.092   7.766  2.3539  1.5440  0.1077
   91CHL1    C8 9154   2.566   3.911   7.873 -0.9871 -0.4654 -1.2348
   91CHL1    H8 9155   2.652   3.846   7.899 -0.1681  0.9382 -0.3700
   91CHL1   C14 9156   2.521   3.982   7.996  0.4376  0.2566  0.0037
   91CHL1   H14 9157   2.431   4.041   7.968 -0.3586 -0.6115  0.6765
   91CHL1   C15 9158   2.620   4.092   8.057  0.1529  0.1674 -0.1846
   91CHL1  H15A 9159   2.725   4.058   8.040  0.2245  1.9328 -4.6203
   91CHL1  H15B 9160   2.602   4.186   7.999 -1.6686 -0.6968 -1.0964
   91CHL1   C16 9161   2.589   4.091   8.209  0.1553 -0.4579 -0.6469
   91CHL1  H16A 9162   2.683   4.046   8.250  1.8632  1.3840 -2.3260
   91CHL1  H16B 9163   2.583   4.191   8.257 -0.0416 -0.4928 -0.5972
   91CHL1   C17 9164   2.472   3.992   8.230  0.6394  1.0593  0.0560
   91CHL1   H17 9165   2.383   4.057   8.211  0.6616  1.0720 -0.0062
   91CHL1   C13 9166   2.473   3.891   8.111  1.0313 -0.4500  0.2386
   91CHL1   C18 9167   2.585   3.787   8.150  0.4889 -0.1444 -0.0153
   91CHL1  H18A 9168   2.674   3.826   8.204 -0.8415 -1.6037  3.5097
   91CHL1  H18B 9169   2.538   3.718   8.223  0.6244  1.5387  1.7451
   91CHL1  H18C 9170   2.626   3.730   8.063 -1.0619 -0.2422 -0.7164
   91CHL1   C12 9171   2.351   3.812   8.063 -0.4171 -0.8445 -0.4786
   91CHL1  H12A 9172   2.316   3.734   8.135 -1.1556 -1.1634 -1.1581
   91CHL1  H12B 9173   2.269   3.883   8.041  0.1541  0.0207  0.1392
   91CHL1   C11 9174   2.383   3.739   7.928  0.1450 -0.0791  0.9715
   91CHL1  H11A 9175   2.444   3.648   7.947 -1.4514 -2.0997 -2.5273
   91CHL1  H11B 9176   2.291   3.699   7.880  1.8565 -0.8169 -1.9520
   91CHL1    C9 9177   2.451   3.831   7.821  0.1729  0.1581  0.4875
   91CHL1    H9 9178   2.378   3.913   7.810 -1.0280 -0.4095  3.3640
   91CHL1   C10 9179   2.475   3.764   7.680  0.5701 -0.4887 -0.4084
   91CHL1   C19 9180   2.559   3.638   7.700 -0.0995  0.0996  0.4192
   91CHL1  H19A 9181   2.588   3.582   7.608  2.0487  2.1857 -0.2665
   91CHL1  H19B 9182   2.644   3.675   7.760  0.2478  1.0723 -0.6371
   91CHL1  H19C 9183   2.500   3.566   7.761  0.0136 -0.2379  0.1352
   91CHL1    C1 9184   2.342   3.734   7.605  0.1122  0.8043 -0.7956
   91CHL1   H1A 9185   2.274   3.676   7.672  2.4020  0.9237  1.7930
   91CHL1   H1B 9186   2.296   3.832   7.583  1.2109  1.3889 -0.5406
   91CHL1    C2 9187   2.354   3.658   7.471  0.4010 -0.6585  0.1790
   91CHL1   H2A 9188   2.257   3.651   7.419  0.2534  0.7978  0.2025
   91CHL1   H2B 9189   2.393   3.555   7.487 -2.4119 -1.5292  2.2869
   91CHL1   C20 9190   2.458   3.930   8.371  0.2753  0.0664 -0.3751
   91CHL1   H20 9191   2.550   3.869   8.385  1.2640  1.8873  1.5872
   91CHL1   C21 9192   2.339   3.836   8.401  0.1336 -0.3393  0.4462
   91CHL1  H21A 9193   2.333   3.814   8.509 -1.2759 -1.0140  0.2471
   91CHL1  H21B 9194   2.346   3.740   8.347 -3.3483 -1.8749  2.4081
   91CHL1  H21C 9195   2.240   3.878   8.372 -0.0922  0.4114  2.1598
   91CHL1   C22 9196   2.484   4.039   8.483  0.2554 -0.6045 -0.0521
   91CHL1  H22A 9197   2.474   3.985   8.580  1.8292 -0.8810 -0.0260
   91CHL1  H22B 9198   2.584   4.086   8.481 -0.5745  1.2258 -0.2504
   91CHL1   C23 9199   2.387   4.158   8.491  0.2068  0.6688  0.0824
   91CHL1  H23A 9200   2.371   4.193   8.387  0.6452 -0.4318 -0.3584
   91CHL1  H23B 9201   2.299   4.127   8.552  1.8391 -0.7684  1.8419
   91CHL1   C24 9202   2.459   4.277   8.549 -0.3835 -0.5350 -0.2002
   91CHL1  H24A 9203   2.556   4.282   8.494 -1.4922 -1.2197 -2.3272
   91CHL1  H24B 9204   2.393   4.362   8.520 -2.1444 -1.3329  1.2766
   91CHL1   C25 9205   2.465   4.273   8.705 -0.0536 -0.1551 -0.0261
   91CHL1   H25 9206   2.509   4.178   8.742  3.2031  1.5266  0.8147
   91CHL1   C26 9207   2.544   4.391   8.762 -0.6189  0.1228 -0.0028
   91CHL1  H26A 9208   2.500   4.484   8.718  0.2021 -0.0954 -1.3588
   91CHL1  H26B 9209   2.541   4.386   8.873  2.8470 -0.7779  0.1346
   91CHL1  H26C 9210   2.652   4.377   8.745 -0.0608  1.8656  1.7588
   91CHL1   C27 9211   2.320   4.284   8.762 -0.0944 -0.2198 -0.2780
   91CHL1  H27A 9212   2.256   4.206   8.716 -0.4860 -0.4180  0.5804
   91CHL1  H27B 9213   2.316   4.272   8.873 -0.6060  0.4153 -0.2147
   91CHL1  H27C 9214   2.277   4.384   8.737  0.2800  0.1465  0.5075
   92CHL1    C3 9215   5.846   5.922   7.147  0.2343 -0.2368 -0.4969
   92CHL1    H3 9216   5.936   5.984   7.163 -0.0950  0.3000 -0.7022
   92CHL1    O3 9217   5.796   5.941   7.015  0.0776 -0.0920 -0.0016
   92CHL1   H3' 9218   5.743   5.865   6.990  1.2072 -1.4233  1.3984
   92CHL1    C4 9219   5.889   5.777   7.165  0.0086  0.0045  0.0578
   92CHL1   H4A 9220   5.806   5.704   7.154 -0.9608  0.9649  0.7723
   92CHL1   H4B 9221   5.959   5.755   7.081  3.3313 -0.5932  2.7423
   92CHL1    C5 9222   5.959   5.751   7.297 -0.2840 -0.1340 -0.4285
   92CHL1    C6 9223   6.081   5.703   7.305 -0.9599 -0.3031 -0.4239
   92CHL1    H6 9224   6.130   5.682   7.209 -2.0422  0.0002 -1.0658
   92CHL1    C7 9225   6.160   5.673   7.429 -0.2028  0.2261  0.6245
   92CHL1   H7A 9226   6.179   5.564   7.420 -0.0827  0.3830 -1.4360
   92CHL1   H7B 9227   6.261   5.719   7.425 -0.4334  0.6685 -0.5543
   92CHL1    C8 9228   6.080   5.711   7.554 -0.1996 -0.1916 -0.2417
   92CHL1    H8 9229   6.023   5.620   7.583  0.9703 -0.6333  0.7903
   92CHL1   C14 9230   6.172   5.736   7.671 -0.0253  0.6187  0.0887
   92CHL1   H14 9231   6.235   5.824   7.646  0.2443  0.5020  0.3447
   92CHL1   C15 9232   6.280   5.622   7.697  0.1564 -0.1217 -0.3153
   92CHL1  H15A 9233   6.230   5.524   7.685  1.7598 -1.3688  2.3422
   92CHL1  H15B 9234   6.363   5.638   7.624  0.7313  2.8027  0.8581
   92CHL1   C16 9235   6.335   5.669   7.832  1.0391  0.1824  0.4157
   92CHL1  H16A 9236   6.312   5.590   7.907 -0.0729 -0.5021 -0.6154
   92CHL1  H16B 9237   6.444   5.683   7.845  1.2602 -2.4455  2.0486
   92CHL1   C17 9238   6.248   5.792   7.873 -0.4603  0.1863  0.0872
   92CHL1   H17 9239   6.308   5.878   7.833 -1.5318  0.0016 -2.0818
   92CHL1   C13 9240   6.114   5.782   7.798 -0.2030  0.1051  0.1222
   92CHL1   C18 9241   6.031   5.670   7.866 -0.8053 -0.0281  0.7125
   92CHL1  H18A 9242   5.941   5.639   7.809 -0.9831 -2.0005  1.9737
   92CHL1  H18B 9243   6.088   5.576   7.886  1.2582  0.9708 -0.1657
   92CHL1  H18C 9244   5.990   5.693   7.967 -1.1446  0.3299  0.4948
   92CHL1   C12 9245   6.035   5.911   7.767 -0.1601  0.1942 -0.1399
   92CHL1  H12A 9246   5.988   5.953   7.859 -0.0018  1.1719 -0.4911
   92CHL1  H12B 9247   6.109   5.983   7.726  0.4373 -0.1670  0.2824
   92CHL1   C11 9248   5.926   5.897   7.660  0.4511 -0.6617  0.0662
   92CHL1  H11A 9249   5.846   5.831   7.700  0.3695 -0.8405 -0.3838
   92CHL1  H11B 9250   5.895   6.002   7.641  0.2810 -0.7525 -0.1648
   92CHL1    C9 9251   5.981   5.833   7.533 -0.6496  0.9366 -0.1611
   92CHL1    H9 9252   6.060   5.903   7.498 -1.5880  1.3256 -1.5975
   92CHL1   C10 9253   5.882   5.811   7.418  0.6061  0.4027 -0.5378
   92CHL1   C19 9254   5.778   5.702   7.452 -0.1566  0.2661 -0.0930
   92CHL1  H19A 9255   5.837   5.608   7.460  2.5980  1.9388  0.6436
   92CHL1  H19B 9256   5.714   5.730   7.538 -0.8946  0.8101 -0.8049
   92CHL1  H19C 9257   5.705   5.684   7.370 -1.8759 -0.5364  1.5422
   92CHL1    C1 9258   5.809   5.948   7.392  0.3075 -0.3874  0.3066
   92CHL1   H1A 9259   5.735   5.970   7.472 -0.2565 -0.5865 -0.1532
   92CHL1   H1B 9260   5.881   6.033   7.390 -0.0466 -0.0398  1.4077
   92CHL1    C2 9261   5.736   5.944   7.259  0.4045 -0.6067  0.4101
   92CHL1   H2A 9262   5.682   6.037   7.231  1.4885 -0.6671 -2.1980
   92CHL1   H2B 9263   5.659   5.864   7.251 -0.5380  0.3104  0.0502
   92CHL1   C20 9264   6.246   5.815   8.028  0.3005 -0.1291  1.3450
   92CHL1   H20 9265   6.186   5.737   8.081 -1.4859  0.0329 -0.3309
   92CHL1   C21 9266   6.183   5.947   8.060  0.3166  0.3832  0.6814
   92CHL1  H21A 9267   6.235   6.021   7.997  0.7725 -0.2885  0.2547
   92CHL1  H21B 9268   6.172   5.984   8.164 -0.4481  1.4022  0.2498
   92CHL1  H21C 9269   6.077   5.945   8.025  0.7953 -1.1116 -0.8318
   92CHL1   C22 9270   6.383   5.821   8.095  0.4202  0.3976  0.1612
   92CHL1  H22A 9271   6.459   5.843   8.017 -0.0122  2.0349  0.1633
   92CHL1  H22B 9272   6.401   5.916   8.151 -1.3886  1.8992 -1.6252
   92CHL1   C23 9273   6.418   5.700   8.183 -0.1545  0.3175 -0.0708
   92CHL1  H23A 9274   6.361   5.611   8.149 -0.0950  0.4865 -0.6173
   92CHL1  H23B 9275   6.523   5.666   8.166  0.7591  2.0256  1.7247
   92CHL1   C24 9276   6.395   5.721   8.330 -0.6226  0.0317  1.3604
   92CHL1  H24A 9277   6.466   5.799   8.363 -1.7895  2.1272 -0.7720
   92CHL1  H24B 9278   6.298   5.770   8.355 -1.4367 -1.2232  0.7715
   92CHL1   C25 9279   6.406   5.589   8.411 -0.2304 -0.2978  0.7097
   92CHL1   H25 9280   6.312   5.532   8.400 -0.0392 -0.7344  1.2925
   92CHL1   C26 9281   6.523   5.495   8.368  0.4815  0.1009  0.8189
   92CHL1  H26A 9282   6.527   5.402   8.429  0.6871  0.0250  0.6926
   92CHL1  H26B 9283   6.511   5.464   8.262  0.7013  1.0555  0.5039
   92CHL1  H26C 9284   6.622   5.547   8.370  0.2014  0.6145  1.8310
   92CHL1   C27 9285   6.423   5.628   8.565  0.1825 -0.4791  0.9181
   92CHL1  H27A 9286   6.340   5.699   8.588 -0.3467  0.9831 -4.2677
   92CHL1  H27B 9287   6.417   5.545   8.639  1.1091 -0.3488  1.1460
   92CHL1  H27C 9288   6.521   5.680   8.568  0.6499 -1.3232  0.5983
   93CHL1    C3 9289   3.331   2.860   7.219  0.1104  0.0565 -0.4326
   93CHL1    H3 9290   3.304   2.756   7.245 -1.1771  0.9292  2.0901
   93CHL1    O3 9291   3.371   2.884   7.083 -0.4378 -0.0129 -0.0354
   93CHL1   H3' 9292   3.436   2.815   7.064 -0.5806 -0.6260  1.5679
   93CHL1    C4 9293   3.205   2.942   7.264 -0.4146 -0.0574  0.3392
   93CHL1   H4A 9294   3.249   3.040   7.236  4.3269 -1.7430  0.8273
   93CHL1   H4B 9295   3.135   2.905   7.186  0.3819 -0.3526 -0.2516
   93CHL1    C5 9296   3.163   2.927   7.403 -0.1667 -0.5636 -0.3768
   93CHL1    C6 9297   3.035   2.902   7.442  0.5512 -0.4551 -0.1173
   93CHL1    H6 9298   2.959   2.892   7.362  1.0149 -3.1595 -0.2847
   93CHL1    C7 9299   2.981   2.902   7.581  0.7923  0.0333  0.2254
   93CHL1   H7A 9300   2.889   2.963   7.588  0.3492 -0.7029  0.9965
   93CHL1   H7B 9301   2.955   2.795   7.596 -0.6056  0.4799  1.2075
   93CHL1    C8 9302   3.083   2.951   7.687  0.9047 -0.8934  0.3847
   93CHL1    H8 9303   3.085   3.062   7.685  2.3065 -0.8639  1.9999
   93CHL1   C14 9304   3.054   2.883   7.822  1.0223 -0.2720 -0.3339
   93CHL1   H14 9305   3.072   2.774   7.813 -2.3539 -1.0260  0.7752
   93CHL1   C15 9306   2.911   2.883   7.875 -0.6848  0.0438  0.2325
   93CHL1  H15A 9307   2.872   2.984   7.852 -1.5863 -0.4980 -0.7147
   93CHL1  H15B 9308   2.856   2.806   7.817  0.5624 -1.7374  1.3263
   93CHL1   C16 9309   2.921   2.860   8.027  0.0762  0.2062 -0.3775
   93CHL1  H16A 9310   2.874   2.944   8.082 -0.1927 -0.9820  1.2811
   93CHL1  H16B 9311   2.875   2.762   8.054  2.2603 -1.3754 -1.9695
   93CHL1   C17 9312   3.070   2.854   8.055  0.0066  0.3715 -0.1731
   93CHL1   H17 9313   3.093   2.747   8.036  1.3759  0.6183 -0.0121
   93CHL1   C13 9314   3.140   2.937   7.939  0.2387  0.0710  0.0412
   93CHL1   C18 9315   3.122   3.090   7.969 -0.8336 -0.2137 -0.9843
   93CHL1  H18A 9316   3.017   3.113   7.993 -1.3346 -1.6748 -1.6454
   93CHL1  H18B 9317   3.177   3.119   8.062 -0.2165 -1.7189 -0.8468
   93CHL1  H18C 9318   3.168   3.163   7.898  0.2168  2.1899  1.9600
   93CHL1   C12 9319   3.285   2.901   7.900 -0.4924  0.1719 -0.2454
   93CHL1  H12A 9320   3.363   2.936   7.970  1.3057  0.5063 -2.3301
   93CHL1  H12B 9321   3.297   2.792   7.883 -0.1590  0.5039 -2.4010
   93CHL1   C11 9322   3.319   2.973   7.770  0.0931  0.3511  0.1472
   93CHL1  H11A 9323   3.314   3.084   7.772 -2.1504  0.2912  0.3737
   93CHL1  H11B 9324   3.421   2.935   7.746 -0.3317  0.3604 -1.8087
   93CHL1    C9 9325   3.226   2.920   7.652 -0.2791 -0.0499  0.6465
   93CHL1    H9 9326   3.247   2.811   7.657  2.0207  0.3814  2.0250
   93CHL1   C10 9327   3.269   2.964   7.505  0.0424 -0.7768 -0.1316
   93CHL1   C19 9328   3.292   3.118   7.507 -0.3047 -0.0527 -0.6478
   93CHL1  H19A 9329   3.353   3.152   7.420  1.3752  0.3823  0.6312
   93CHL1  H19B 9330   3.202   3.179   7.528  0.0309  0.9974 -2.0729
   93CHL1  H19C 9331   3.362   3.150   7.587 -0.7403  0.6386 -0.5368
   93CHL1    C1 9332   3.415   2.901   7.459  0.3927  0.1366  0.1539
   93CHL1   H1A 9333   3.491   2.956   7.519  0.5302 -0.3318  0.4096
   93CHL1   H1B 9334   3.410   2.795   7.492  0.1260 -0.3865 -1.4695
   93CHL1    C2 9335   3.446   2.906   7.312 -0.3637  0.9082 -0.2226
   93CHL1   H2A 9336   3.524   2.830   7.290  1.2374  2.7063 -0.9273
   93CHL1   H2B 9337   3.490   3.003   7.281  1.7088 -0.3136 -1.3231
   93CHL1   C20 9338   3.118   2.892   8.204  0.1173 -0.2938  0.0801
   93CHL1   H20 9339   3.114   3.000   8.227  1.3089 -0.7196  2.5279
   93CHL1   C21 9340   3.256   2.834   8.230 -0.0551 -0.4945 -0.3813
   93CHL1  H21A 9341   3.245   2.725   8.218 -2.8644 -0.2960 -0.3396
   93CHL1  H21B 9342   3.276   2.848   8.339 -1.8583  2.5926 -0.3073
   93CHL1  H21C 9343   3.338   2.858   8.159  1.0063 -2.6577  0.0457
   93CHL1   C22 9344   3.013   2.835   8.305 -0.5296 -0.4147 -0.0852
   93CHL1  H22A 9345   2.919   2.894   8.296 -1.4343 -1.7606  0.2148
   93CHL1  H22B 9346   2.982   2.730   8.286 -1.3740 -0.6877  2.4391
   93CHL1   C23 9347   3.042   2.856   8.452  0.1039  0.1293 -0.0390
   93CHL1  H23A 9348   3.130   2.791   8.468 -0.4965 -0.7022 -0.0570
   93CHL1  H23B 9349   3.077   2.960   8.472  0.8384  0.0076 -0.6365
   93CHL1   C24 9350   2.930   2.802   8.544  0.4366 -0.3999 -0.3344
   93CHL1  H24A 9351   2.833   2.819   8.491 -1.5083 -1.3318  2.6477
   93CHL1  H24B 9352   2.946   2.692   8.549  1.3879 -0.3418 -1.5987
   93CHL1   C25 9353   2.927   2.864   8.681  0.2098  0.2021  0.1385
   93CHL1   H25 9354   3.029   2.849   8.723  0.5512  1.4586 -0.2045
   93CHL1   C26 9355   2.895   3.013   8.675  0.0925  0.1704  0.3442
   93CHL1  H26A 9356   2.901   3.059   8.776 -2.0254 -0.3181  0.7524
   93CHL1  H26B 9357   2.962   3.059   8.599 -1.0728 -0.4263 -1.0924
   93CHL1  H26C 9358   2.791   3.036   8.642  0.4208  0.3066 -0.6196
   93CHL1   C27 9359   2.835   2.788   8.774  0.1670  0.2476 -0.6378
   93CHL1  H27A 9360   2.732   2.788   8.732 -0.8147  1.0340  1.6272
   93CHL1  H27B 9361   2.880   2.686   8.783  0.3652  0.1591 -2.2085
   93CHL1  H27C 9362   2.835   2.842   8.870 -0.5153 -0.2672 -0.3360
   94CHL1    C3 9363   1.248   4.568   7.272 -0.1949 -0.1596  0.1163
   94CHL1    H3 9364   1.147   4.611   7.259 -0.6953 -1.0447  0.9048
   94CHL1    O3 9365   1.285   4.505   7.149 -0.5514  0.0450 -0.1707
   94CHL1   H3' 9366   1.360   4.450   7.176 -1.5219 -1.2846 -0.0732
   94CHL1    C4 9367   1.355   4.676   7.312 -0.4731  0.5211 -0.0381
   94CHL1   H4A 9368   1.453   4.626   7.301 -1.2632 -1.1102  0.0559
   94CHL1   H4B 9369   1.348   4.759   7.237  3.1315  0.0909 -1.0474
   94CHL1    C5 9370   1.334   4.739   7.450 -0.5622  0.3596 -0.1892
   94CHL1    C6 9371   1.318   4.865   7.478  0.4436  0.3050 -0.0403
   94CHL1    H6 9372   1.321   4.929   7.389 -0.8914 -0.7033 -0.8456
   94CHL1    C7 9373   1.295   4.925   7.612  0.2210 -0.1843  0.0347
   94CHL1   H7A 9374   1.354   5.016   7.638 -0.5129  0.2543  0.2066
   94CHL1   H7B 9375   1.197   4.976   7.623  0.2233  0.4613 -2.3758
   94CHL1    C8 9376   1.321   4.826   7.727  0.2412 -0.5740  0.2794
   94CHL1    H8 9377   1.429   4.812   7.750  0.0858 -1.1554  0.7084
   94CHL1   C14 9378   1.250   4.884   7.850  0.4539  0.0833  0.1021
   94CHL1   H14 9379   1.143   4.892   7.824  0.1097 -0.3230  1.3302
   94CHL1   C15 9380   1.271   5.028   7.901 -0.0795  0.2626 -0.1876
   94CHL1  H15A 9381   1.380   5.050   7.905 -0.1040  0.2973  0.3575
   94CHL1  H15B 9382   1.222   5.105   7.838  0.3293  0.3398 -0.4104
   94CHL1   C16 9383   1.217   5.023   8.048 -0.6659  0.2976 -0.0138
   94CHL1  H16A 9384   1.303   5.049   8.113 -0.0741  0.6636 -0.9218
   94CHL1  H16B 9385   1.141   5.101   8.066 -1.8128 -0.5632 -0.9718
   94CHL1   C17 9386   1.175   4.879   8.071 -0.1135 -0.2205 -0.1319
   94CHL1   H17 9387   1.068   4.868   8.042 -0.7262  0.3226  1.7978
   94CHL1   C13 9388   1.255   4.792   7.972 -0.0127 -0.5940 -0.7209
   94CHL1   C18 9389   1.392   4.758   8.029 -0.5257 -0.3212  0.1946
   94CHL1  H18A 9390   1.432   4.853   8.069 -0.3244 -0.3743  0.1224
   94CHL1  H18B 9391   1.387   4.682   8.111 -0.6097 -2.0480 -1.3358
   94CHL1  H18C 9392   1.467   4.716   7.958 -0.8009 -0.0090 -0.2824
   94CHL1   C12 9393   1.181   4.657   7.925  0.5736 -0.1518  0.2694
   94CHL1  H12A 9394   1.157   4.584   8.005 -0.9391  0.8845  0.8235
   94CHL1  H12B 9395   1.084   4.699   7.890 -0.2337 -1.6783  0.5602
   94CHL1   C11 9396   1.259   4.596   7.817 -0.4449  0.5548  0.1891
   94CHL1  H11A 9397   1.357   4.561   7.856 -0.8478  1.1194  1.8111
   94CHL1  H11B 9398   1.195   4.508   7.795 -0.6908  0.8801 -0.4023
   94CHL1    C9 9399   1.267   4.688   7.695  0.2746  0.0929  0.5950
   94CHL1    H9 9400   1.158   4.704   7.680 -0.4060 -2.6969  1.8833
   94CHL1   C10 9401   1.321   4.627   7.560 -0.3492  0.5389 -0.1785
   94CHL1   C19 9402   1.464   4.574   7.573 -0.1088  0.7091 -0.4259
   94CHL1  H19A 9403   1.499   4.524   7.480  2.7248  0.3235  0.7438
   94CHL1  H19B 9404   1.529   4.660   7.597 -0.6552  1.2328 -0.7774
   94CHL1  H19C 9405   1.466   4.503   7.659  0.9949  0.3913 -0.7073
   94CHL1    C1 9406   1.221   4.515   7.519 -0.0589 -0.9715  1.0173
   94CHL1   H1A 9407   1.239   4.433   7.592  0.8283 -1.0856  0.6787
   94CHL1   H1B 9408   1.117   4.552   7.532  0.1378 -0.7288  2.0116
   94CHL1    C2 9409   1.245   4.456   7.376  0.6500  0.1315  0.7593
   94CHL1   H2A 9410   1.175   4.376   7.345 -1.5791  1.2366  2.6635
   94CHL1   H2B 9411   1.340   4.399   7.388 -0.5104 -2.2314 -0.5727
   94CHL1   C20 9412   1.178   4.836   8.216 -0.6600  0.6496 -0.0688
   94CHL1   H20 9413   1.282   4.823   8.254 -0.4790 -0.6981 -0.9694
   94CHL1   C21 9414   1.110   4.698   8.238 -0.5723 -0.1182 -0.6213
   94CHL1  H21A 9415   1.100   4.692   8.349  2.1860  2.4666 -0.1014
   94CHL1  H21B 9416   1.169   4.608   8.209  3.2725  2.3027 -0.9944
   94CHL1  H21C 9417   1.008   4.693   8.195 -1.0388 -1.7398  0.5855
   94CHL1   C22 9418   1.125   4.944   8.316 -0.1524 -0.0457  0.1425
   94CHL1  H22A 9419   1.185   5.035   8.293  1.2470 -0.8398  0.4922
   94CHL1  H22B 9420   1.018   4.966   8.298 -0.6106 -1.4393  1.0031
   94CHL1   C23 9421   1.155   4.916   8.460 -0.7167 -0.1466 -0.4260
   94CHL1  H23A 9422   1.119   4.821   8.506 -0.4975 -0.0025  0.0495
   94CHL1  H23B 9423   1.265   4.927   8.462 -0.8258  1.8099 -2.2106
   94CHL1   C24 9424   1.098   5.034   8.543  0.6532  0.0566  0.0138
   94CHL1  H24A 9425   1.144   5.128   8.508 -0.6029  1.1759  1.2277
   94CHL1  H24B 9426   0.992   5.059   8.521  1.0943  1.4820 -0.5945
   94CHL1   C25 9427   1.125   5.022   8.698 -0.3649  0.1808  1.0106
   94CHL1   H25 9428   1.065   4.934   8.731 -0.0834  0.3328  1.9518
   94CHL1   C26 9429   1.268   4.990   8.739 -0.8735  0.8738  0.5639
   94CHL1  H26A 9430   1.269   4.963   8.847  0.8851  1.6903  0.7885
   94CHL1  H26B 9431   1.311   4.902   8.687  0.7264  0.8480  1.8471
   94CHL1  H26C 9432   1.329   5.082   8.724 -2.5963  1.8493 -0.8056
   94CHL1   C27 9433   1.085   5.148   8.764  0.3440 -0.1680  0.6058
   94CHL1  H27A 9434   1.148   5.231   8.725  1.0420 -0.4564  1.0994
   94CHL1  H27B 9435   0.982   5.174   8.731  0.6037  1.1801  0.7605
   94CHL1  H27C 9436   1.089   5.143   8.875  0.9932  1.7843  0.7142
   95CHL1    C3 9437   5.966   4.457   6.816 -0.7854 -0.9146 -0.1831
   95CHL1    H3 9438   6.028   4.549   6.817 -1.9097 -0.1292 -0.3372
   95CHL1    O3 9439   5.905   4.444   6.690  0.2906 -0.2901  0.4955
   95CHL1   H3' 9440   5.862   4.358   6.693  1.4101 -1.0316 -1.8607
   95CHL1    C4 9441   6.046   4.336   6.854  0.6981  0.0534 -0.0731
   95CHL1   H4A 9442   5.995   4.238   6.857  0.4694  0.1699  2.4586
   95CHL1   H4B 9443   6.127   4.328   6.779  0.6131  0.2114 -0.1831
   95CHL1    C5 9444   6.102   4.353   6.997  0.2412 -0.2164 -0.3834
   95CHL1    C6 9445   6.234   4.361   7.020  0.3281 -0.0214 -0.6119
   95CHL1    H6 9446   6.304   4.372   6.937  0.9124 -2.6442 -0.5677
   95CHL1    C7 9447   6.290   4.377   7.163  0.1595  0.0155 -0.0217
   95CHL1   H7A 9448   6.379   4.313   7.181 -0.2133  0.1033  2.5725
   95CHL1   H7B 9449   6.312   4.482   7.193  1.6212 -0.4817  0.7283
   95CHL1    C8 9450   6.190   4.319   7.258 -0.3898 -0.3268  0.2622
   95CHL1    H8 9451   6.181   4.209   7.246  1.1070 -0.6239  1.6065
   95CHL1   C14 9452   6.237   4.343   7.400 -0.4010  0.3837 -0.9576
   95CHL1   H14 9453   6.260   4.451   7.406  1.1131 -0.0057  1.3629
   95CHL1   C15 9454   6.376   4.282   7.439  1.3069 -0.2716 -0.5062
   95CHL1  H15A 9455   6.399   4.177   7.412  0.6933 -0.3250 -0.8352
   95CHL1  H15B 9456   6.447   4.347   7.383  1.7242 -0.2241  0.0718
   95CHL1   C16 9457   6.376   4.281   7.593  0.3825 -0.4547  1.0622
   95CHL1  H16A 9458   6.384   4.176   7.630 -0.9145 -1.3642 -1.0507
   95CHL1  H16B 9459   6.455   4.351   7.628 -0.3789  0.0525  1.8214
   95CHL1   C17 9460   6.235   4.339   7.634 -0.0886 -0.0653 -0.2946
   95CHL1   H17 9461   6.266   4.446   7.631  1.7532 -0.5446  0.7255
   95CHL1   C13 9462   6.142   4.316   7.512  0.4817 -0.5738 -0.4357
   95CHL1   C18 9463   6.108   4.168   7.508  0.3556 -0.4637  0.3763
   95CHL1  H18A 9464   6.051   4.137   7.418  1.8082 -1.8946 -0.0944
   95CHL1  H18B 9465   6.194   4.097   7.509 -0.3091 -1.2955  0.1044
   95CHL1  H18C 9466   6.046   4.148   7.598 -0.0977 -2.2670 -0.2920
   95CHL1   C12 9467   6.014   4.403   7.489  0.3340  0.6510  0.2888
   95CHL1  H12A 9468   5.936   4.371   7.561 -1.0020  0.6650 -1.0773
   95CHL1  H12B 9469   6.033   4.512   7.500  2.0498  0.1782  2.6182
   95CHL1   C11 9470   5.956   4.371   7.354  0.7682 -0.4407  0.3337
   95CHL1  H11A 9471   5.920   4.267   7.367  0.7470 -0.3613  0.9106
   95CHL1  H11B 9472   5.867   4.436   7.339  0.7278 -0.5243  0.2111
   95CHL1    C9 9473   6.049   4.389   7.234 -0.6115 -0.0673  0.7164
   95CHL1    H9 9474   6.081   4.495   7.236 -3.1666  0.7751  2.9330
   95CHL1   C10 9475   5.992   4.360   7.104  0.0000 -0.4923  0.4277
   95CHL1   C19 9476   5.905   4.233   7.109 -0.8554 -0.4321  0.3676
   95CHL1  H19A 9477   5.975   4.154   7.145  1.5122  0.8044 -1.3000
   95CHL1  H19B 9478   5.818   4.243   7.178 -0.6801 -1.0634  0.6946
   95CHL1  H19C 9479   5.864   4.194   7.014 -1.5620 -0.4864  0.6862
   95CHL1    C1 9480   5.901   4.483   7.062  0.0020 -0.0160  0.6145
   95CHL1   H1A 9481   5.818   4.498   7.134 -0.5577  1.3412 -0.2812
   95CHL1   H1B 9482   5.953   4.581   7.072  0.3257 -0.1371  0.1502
   95CHL1    C2 9483   5.850   4.476   6.913  0.0224 -0.0147 -0.5544
   95CHL1   H2A 9484   5.799   4.572   6.893 -1.5027 -0.8956 -1.0394
   95CHL1   H2B 9485   5.773   4.396   6.913  1.8345 -1.8825  0.8744
   95CHL1   C20 9486   6.197   4.297   7.775  0.4235  0.1407 -0.0429
   95CHL1   H20 9487   6.172   4.191   7.754  1.8185 -0.5000  1.3073
   95CHL1   C21 9488   6.079   4.384   7.826  0.0368  0.6557  0.0355
   95CHL1  H21A 9489   6.001   4.375   7.748  1.4921 -1.1150 -1.2899
   95CHL1  H21B 9490   6.111   4.488   7.850  1.2340  0.5067 -0.7987
   95CHL1  H21C 9491   6.032   4.341   7.917 -2.0337 -1.4809 -1.9337
   95CHL1   C22 9492   6.316   4.287   7.883 -0.4741  0.3332  0.2818
   95CHL1  H22A 9493   6.395   4.225   7.836 -1.2634  0.3595 -1.1406
   95CHL1  H22B 9494   6.351   4.392   7.897 -0.9919  0.7369 -1.2936
   95CHL1   C23 9495   6.285   4.233   8.022  0.2687  0.5777 -0.8250
   95CHL1  H23A 9496   6.383   4.237   8.075 -0.4347 -2.2476  0.8600
   95CHL1  H23B 9497   6.212   4.301   8.071 -0.0123 -0.6729  0.5819
   95CHL1   C24 9498   6.239   4.091   8.027  0.3203  0.0779  0.2783
   95CHL1  H24A 9499   6.145   4.071   7.973  0.3690 -0.1728  0.2843
   95CHL1  H24B 9500   6.314   4.028   7.974 -0.5404 -0.8177  0.1097
   95CHL1   C25 9501   6.214   4.053   8.172 -0.3381  0.4624 -0.5319
   95CHL1   H25 9502   6.169   4.139   8.225  1.3655  1.0584  0.0082
   95CHL1   C26 9503   6.122   3.933   8.183 -0.4866 -0.0825 -0.4538
   95CHL1  H26A 9504   6.111   3.906   8.291 -0.6238  2.3634  0.1965
   95CHL1  H26B 9505   6.031   3.939   8.119  0.4454  0.6523 -1.7338
   95CHL1  H26C 9506   6.190   3.855   8.143  0.8480  2.0005 -2.4155
   95CHL1   C27 9507   6.353   4.005   8.229 -0.2627 -0.0842  0.2719
   95CHL1  H27A 9508   6.345   3.993   8.339 -1.3821  0.4265  0.2577
   95CHL1  H27B 9509   6.381   3.911   8.178 -0.4816 -0.4138  0.7561
   95CHL1  H27C 9510   6.423   4.090   8.211  0.1497 -0.3726  0.4985
   96CHL1    C3 9511   5.725   2.534   6.940 -0.2668 -0.0445  0.2090
   96CHL1    H3 9512   5.750   2.642   6.930  0.0940  0.1063  2.3985
   96CHL1    O3 9513   5.747   2.479   6.809  0.1265 -0.1124  0.0614
   96CHL1   H3' 9514   5.841   2.488   6.793  0.6848 -0.1541  2.8188
   96CHL1    C4 9515   5.825   2.463   7.029 -0.8510 -0.5268  0.2709
   96CHL1   H4A 9516   5.803   2.354   7.025 -0.3344 -0.6387  0.4071
   96CHL1   H4B 9517   5.926   2.472   6.983 -0.4732 -2.4623  0.6126
   96CHL1    C5 9518   5.808   2.508   7.176 -0.6627 -0.2144  0.1851
   96CHL1    C6 9519   5.916   2.568   7.236  0.7616  0.2249 -0.7329
   96CHL1    H6 9520   6.017   2.577   7.193  0.9680 -0.2115 -0.3483
   96CHL1    C7 9521   5.899   2.601   7.381 -0.0602 -0.4104  0.1555
   96CHL1   H7A 9522   5.990   2.573   7.438 -0.8949 -2.6805  0.4528
   96CHL1   H7B 9523   5.889   2.711   7.391  0.0594 -0.5741  2.6571
   96CHL1    C8 9524   5.779   2.529   7.456  0.1024 -0.1153 -0.2702
   96CHL1    H8 9525   5.804   2.421   7.461 -1.5590 -0.4604  1.5053
   96CHL1   C14 9526   5.773   2.587   7.595  0.6219  0.4035 -0.5942
   96CHL1   H14 9527   5.750   2.695   7.591 -1.0672  0.2166  1.9923
   96CHL1   C15 9528   5.891   2.588   7.687 -0.0404 -0.6450  0.2801
   96CHL1  H15A 9529   5.942   2.490   7.693 -0.1419 -0.6367  1.9975
   96CHL1  H15B 9530   5.974   2.657   7.660  0.3282 -1.2171 -0.0617
   96CHL1   C16 9531   5.832   2.612   7.830 -0.0332 -0.0365  0.7861
   96CHL1  H16A 9532   5.847   2.517   7.885 -0.6391  0.6792  2.2368
   96CHL1  H16B 9533   5.866   2.702   7.886 -3.0245  1.7008  0.0660
   96CHL1   C17 9534   5.675   2.608   7.817 -0.4246  0.6070  0.7141
   96CHL1   H17 9535   5.631   2.709   7.800  1.8706  1.5518  0.0028
   96CHL1   C13 9536   5.656   2.537   7.679  0.4674  0.0658 -0.5437
   96CHL1   C18 9537   5.679   2.386   7.703 -0.0586 -0.3806 -0.7253
   96CHL1  H18A 9538   5.597   2.353   7.771 -1.6010  1.1502 -1.7876
   96CHL1  H18B 9539   5.660   2.334   7.607  0.5534 -0.5650 -0.7543
   96CHL1  H18C 9540   5.782   2.364   7.740 -0.3522 -0.2458  0.2001
   96CHL1   C12 9541   5.524   2.564   7.603  0.6444  0.2732  0.1149
   96CHL1  H12A 9542   5.436   2.520   7.653  0.0897  1.2423  0.0225
   96CHL1  H12B 9543   5.506   2.674   7.604  0.2348  0.2107  1.2227
   96CHL1   C11 9544   5.523   2.515   7.453  0.1226 -0.2332 -0.0163
   96CHL1  H11A 9545   5.523   2.404   7.452 -1.4008 -0.2533 -2.0205
   96CHL1  H11B 9546   5.428   2.545   7.404 -0.0725 -0.4611  0.2174
   96CHL1    C9 9547   5.653   2.554   7.373  0.5083  0.0322 -0.1100
   96CHL1    H9 9548   5.659   2.664   7.366  2.2155  0.2128  2.8401
   96CHL1   C10 9549   5.667   2.490   7.231  0.4930  0.1862 -0.2030
   96CHL1   C19 9550   5.651   2.334   7.246 -1.0509  0.1710 -0.4636
   96CHL1  H19A 9551   5.554   2.301   7.288  0.1094 -0.7700  1.6226
   96CHL1  H19B 9552   5.654   2.283   7.148 -0.6239 -2.1875  0.7155
   96CHL1  H19C 9553   5.733   2.294   7.309 -1.4746  0.8813  0.5656
   96CHL1    C1 9554   5.554   2.549   7.131  0.6419 -0.0636 -0.5882
   96CHL1   H1A 9555   5.457   2.506   7.162  0.4674  0.6284 -0.1630
   96CHL1   H1B 9556   5.568   2.657   7.156  1.8334 -0.4272  0.4305
   96CHL1    C2 9557   5.577   2.514   6.988 -0.1511  0.4642  0.2071
   96CHL1   H2A 9558   5.515   2.570   6.914  0.4218  0.7462 -0.0681
   96CHL1   H2B 9559   5.562   2.406   6.967  0.3109  0.8350 -2.3678
   96CHL1   C20 9560   5.599   2.560   7.942 -0.0476 -0.4882  0.4200
   96CHL1   H20 9561   5.601   2.449   7.949 -1.5196 -0.6766 -1.3275
   96CHL1   C21 9562   5.445   2.589   7.930 -0.2450 -0.2651 -0.5455
   96CHL1  H21A 9563   5.417   2.688   7.890 -0.3615 -0.6897 -1.5382
   96CHL1  H21B 9564   5.396   2.576   8.029  0.5084  3.1202  0.3917
   96CHL1  H21C 9565   5.405   2.519   7.853 -0.2237  1.2585 -1.9951
   96CHL1   C22 9566   5.659   2.631   8.070 -0.0711  0.6192  0.0812
   96CHL1  H22A 9567   5.767   2.612   8.091 -0.6444 -1.0274  1.8658
   96CHL1  H22B 9568   5.651   2.740   8.051  1.9817  0.9701  0.8867
   96CHL1   C23 9569   5.604   2.595   8.206  0.4222 -0.4305 -0.0049
   96CHL1  H23A 9570   5.672   2.640   8.280  0.8388  0.3751 -0.8553
   96CHL1  H23B 9571   5.496   2.620   8.215  1.0374  2.1807  0.7073
   96CHL1   C24 9572   5.625   2.443   8.242  0.4496 -0.8756 -1.5462
   96CHL1  H24A 9573   5.590   2.382   8.156  0.0327 -1.3082 -1.0744
   96CHL1  H24B 9574   5.733   2.427   8.258 -0.0808 -1.6390  2.3415
   96CHL1   C25 9575   5.551   2.392   8.377 -0.5425  0.0669  0.6296
   96CHL1   H25 9576   5.576   2.286   8.395 -0.9844 -0.5368 -1.8521
   96CHL1   C26 9577   5.599   2.480   8.496  0.3058 -0.3181 -0.0365
   96CHL1  H26A 9578   5.708   2.464   8.513  0.3978 -1.1268 -1.2713
   96CHL1  H26B 9579   5.587   2.589   8.480  2.8984 -0.1087 -1.0505
   96CHL1  H26C 9580   5.534   2.457   8.583 -1.1710  2.9800 -0.1116
   96CHL1   C27 9581   5.400   2.400   8.359  0.3860 -0.1632  0.1697
   96CHL1  H27A 9582   5.347   2.340   8.435 -1.2556 -2.2717 -2.4616
   96CHL1  H27B 9583   5.369   2.506   8.371  1.2972  0.1331  0.0146
   96CHL1  H27C 9584   5.361   2.371   8.259 -1.7156 -0.2919  0.9949
   97OSM      N 9585   3.994   4.890  11.326  0.7059 -0.5253 -0.0676
   97OSM    C15 9586   3.891   4.979  11.273  0.4541  0.4993  0.2561
   97OSM   H15A 9587   3.900   4.996  11.167 -0.9392 -0.2977 -0.0154
   97OSM   H15B 9588   3.894   5.080  11.312 -3.0844  1.0845 -0.6091
   97OSM   H15C 9589   3.790   4.940  11.282 -0.3335  2.3131 -0.2562
   97OSM    C14 9590   4.005   4.769  11.245  0.2222  0.4041 -0.4621
   97OSM   H14A 9591   4.003   4.775  11.137 -3.3361 -0.0596 -0.5228
   97OSM   H14B 9592   3.920   4.709  11.275  1.7060 -0.7547  1.7374
   97OSM   H14C 9593   4.094   4.716  11.278 -0.8937 -0.2041  1.7676
   97OSM    C13 9594   4.126   4.957  11.325 -0.1965 -0.4939 -0.2914
   97OSM   H13A 9595   4.168   4.968  11.226  3.1123 -1.7943  0.8405
   97OSM   H13B 9596   4.204   4.903  11.375  0.2737 -0.5785 -1.0896
   97OSM   H13C 9597   4.116   5.060  11.354  1.6229 -0.1184 -0.8663
   97OSM    C12 9598   3.950   4.862  11.471 -0.5291 -0.3356  0.8254
   97OSM   H12A 9599   3.886   4.942  11.506 -0.1326 -0.8809  2.9324
   97OSM   H12B 9600   4.039   4.869  11.531  1.0590  1.1137 -1.5600
   97OSM    C11 9601   3.894   4.723  11.515  0.0112 -0.3210  0.8014
   97OSM   H11A 9602   3.875   4.729  11.624  0.5966 -0.5269  0.9209
   97OSM   H11B 9603   3.977   4.649  11.506 -0.5505 -0.9354  0.5761
   97OSM      P 9604   3.639   4.675  11.473 -0.3329  0.2559 -0.0925
   97OSM    O13 9605   3.613   4.565  11.571  0.7626  0.2046 -0.0827
   97OSM    O14 9606   3.594   4.810  11.512  0.4632 -0.1828 -0.3461
   97OSM    O11 9607   3.576   4.632  11.333 -0.2665  0.2760 -0.1686
   97OSM    O12 9608   3.789   4.683  11.433  0.1492 -0.3707  0.1961
   97OSM    C1S 9609   3.596   4.709  11.212  0.0669  0.6754 -0.2658
   97OSM    H1S 9610   3.706   4.714  11.197  0.1444  2.9074  0.6766
   97OSM    H1T 9611   3.574   4.817  11.214 -0.2581  0.6097 -0.2415
   97OSM     NF 9612   3.580   4.723  10.969 -0.4030 -0.0147 -0.0849
   97OSM    HNF 9613   3.531   4.805  10.938  0.6150  0.5522 -0.2249
   97OSM    C2S 9614   3.523   4.654  11.077 -0.0143  0.8084 -0.4719
   97OSM    H2S 9615   3.549   4.546  11.077 -1.9277  0.3071 -0.5060
   97OSM    C3S 9616   3.374   4.675  11.093 -0.6142  0.3778  0.1270
   97OSM    H3S 9617   3.356   4.784  11.107  1.5003  0.7751  0.1541
   97OSM     O3 9618   3.319   4.617  11.212 -0.2024 -0.6205  0.2365
   97OSM    HO3 9619   3.398   4.586  11.256 -0.4795 -0.7969  0.6152
   97OSM    C4S 9620   3.302   4.636  10.970 -0.2608 -0.3448 -0.1171
   97OSM    H4S 9621   3.282   4.721  10.903  0.9377 -0.6206 -0.8583
   97OSM    C5S 9622   3.258   4.518  10.932  0.4218 -0.0763 -0.4293
   97OSM    H5S 9623   3.288   4.432  10.995 -1.2173  1.0489  2.0327
   97OSM    C6S 9624   3.174   4.484  10.815  0.3018  1.1508 -0.0618
   97OSM    H6S 9625   3.087   4.425  10.851  1.0434 -0.1520 -0.3590
   97OSM    H6T 9626   3.241   4.413  10.762  0.2798  1.1120 -0.0379
   97OSM    C7S 9627   3.116   4.602  10.734  0.4807  0.3351 -1.1745
   97OSM    H7S 9628   3.201   4.658  10.689 -0.1982  0.5367 -2.2289
   97OSM    H7T 9629   3.061   4.676  10.797  1.2397 -0.8682  1.0193
   97OSM    C8S 9630   3.030   4.560  10.621  0.2007  0.6654 -0.2666
   97OSM    H8S 9631   2.926   4.535  10.652  0.5766 -0.0055  0.4914
   97OSM    H8T 9632   3.069   4.463  10.584  0.8984  1.0010 -0.4322
   97OSM    C9S 9633   3.024   4.652  10.503  0.2221 -0.6332  0.2981
   97OSM    H9S 9634   3.126   4.649  10.459  0.1439 -0.8558  0.1317
   97OSM    H9T 9635   3.003   4.754  10.544 -1.2432 -1.9249  3.0257
   97OSM   C10S 9636   2.916   4.606  10.408  0.2981  0.2296 -0.1579
   97OSM   H10S 9637   2.816   4.627  10.449  0.3701 -2.2246  1.5081
   97OSM   H10T 9638   2.926   4.496  10.392 -0.9467  0.3137 -1.8852
   97OSM   C11S 9639   2.934   4.673  10.275 -0.1971  0.2467  0.2988
   97OSM   H11S 9640   3.039   4.675  10.237 -0.5033 -0.6457 -0.6333
   97OSM   H11T 9641   2.914   4.782  10.287  0.9430  0.4973  0.1016
   97OSM   C12S 9642   2.833   4.607  10.176 -0.1946  0.7327  0.1282
   97OSM   H12S 9643   2.845   4.499  10.155  0.8174  0.4835  1.7902
   97OSM   H12T 9644   2.838   4.650  10.074 -0.8563  0.3329 -0.0782
   97OSM   C13S 9645   2.685   4.606  10.217 -0.9019  0.2043 -0.2317
   97OSM   H13S 9646   2.658   4.706  10.257  0.9309  0.9580 -0.7679
   97OSM   H13T 9647   2.657   4.525  10.288 -1.3776 -0.5470 -1.2566
   97OSM   C14S 9648   2.585   4.593  10.101  0.2001 -0.4692  0.0464
   97OSM   H14S 9649   2.614   4.499  10.049 -0.0153 -1.5825  1.8316
   97OSM   H14T 9650   2.591   4.675  10.027  0.9352 -2.5884 -2.3694
   97OSM   C15S 9651   2.439   4.572  10.153  0.2878  0.4687  0.9586
   97OSM   H15S 9652   2.405   4.639  10.235  2.3157  4.4450 -1.1866
   97OSM   H15T 9653   2.426   4.468  10.190 -1.1629  1.0530  2.2092
   97OSM   C16S 9654   2.337   4.577  10.036 -0.3174 -0.2301  0.1352
   97OSM   H16S 9655   2.374   4.499   9.965  1.9520  0.1985  0.7587
   97OSM   H16T 9656   2.352   4.682  10.004  0.3943 -1.0443 -2.4924
   97OSM   C17S 9657   2.192   4.556  10.082 -0.0512  0.5356  0.3795
   97OSM   H17S 9658   2.136   4.584   9.990  2.8057  0.5631 -1.4830
   97OSM   H17T 9659   2.159   4.622  10.166  1.8283 -0.5389  2.0443
   97OSM   C18S 9660   2.163   4.412  10.133 -0.2908 -0.1097  0.4892
   97OSM   H18S 9661   2.208   4.378  10.229 -0.7443 -3.5071 -0.3713
   97OSM   H18T 9662   2.190   4.333  10.060 -1.4876 -1.4983  1.4900
   97OSM   H18U 9663   2.052   4.407  10.147 -0.4337  2.7598  1.0312
   97OSM    C1F 9664   3.704   4.698  10.929  0.2006  0.3373  0.2709
   97OSM     OF 9665   3.769   4.612  10.986  0.1051 -0.1001 -0.6699
   97OSM    C2F 9666   3.758   4.797  10.833 -0.3216  0.6206  0.1208
   97OSM    H2F 9667   3.863   4.827  10.854  0.0503  1.9437 -3.0687
   97OSM    H2G 9668   3.703   4.892  10.854  1.0328  1.4118  0.2279
   97OSM    C3F 9669   3.756   4.728  10.692  0.4055 -0.5433 -0.1749
   97OSM    H3F 9670   3.660   4.674  10.681 -1.1559  1.9169  0.6465
   97OSM    H3G 9671   3.839   4.655  10.703  2.5057  1.7525  0.0798
   97OSM    C4F 9672   3.780   4.815  10.568  0.1307 -0.2343  0.4499
   97OSM    H4F 9673   3.883   4.855  10.569 -1.0675  3.3708  3.0997
   97OSM    H4G 9674   3.720   4.907  10.587  1.5483  0.4932  1.5427
   97OSM    C5F 9675   3.741   4.735  10.443  0.8947  0.7511 -0.9962
   97OSM    H5F 9676   3.632   4.745  10.423  0.1417 -1.9105  1.1560
   97OSM    H5G 9677   3.752   4.625  10.456  0.8572  0.9308  0.7464
   97OSM    C6F 9678   3.803   4.774  10.307 -0.5399 -0.1893  0.2575
   97OSM    H6F 9679   3.783   4.687  10.241 -1.6507  0.4776 -0.3122
   97OSM    H6G 9680   3.913   4.786  10.320 -0.3670 -0.3987 -0.9578
   97OSM    C7F 9681   3.729   4.893  10.247  0.5444 -0.1095 -0.3347
   97OSM    H7F 9682   3.746   4.976  10.318 -1.3524  0.7383 -0.7986
   97OSM    H7G 9683   3.618   4.879  10.248  0.2731  1.7929  0.6940
   97OSM    C8F 9684   3.774   4.950  10.116 -0.2105 -0.2065  0.1629
   97OSM    H8F 9685   3.882   4.978  10.110  0.5331 -2.5836  0.9907
   97OSM    H8G 9686   3.714   5.041  10.099  3.3063  2.3114  0.0724
   97OSM    C9F 9687   3.730   4.845  10.022 -0.4866 -0.2670 -0.1701
   97OSM    H9F 9688   3.756   4.741  10.046 -1.0227 -0.5169 -0.6346
   97OSM   C10F 9689   3.653   4.854   9.916  0.2122 -0.6134  0.3956
   97OSM   H10F 9690   3.640   4.761   9.859  0.6655 -0.8263  0.6305
   97OSM   C11F 9691   3.589   4.973   9.855 -0.0262  0.3902 -0.2940
   97OSM   H11F 9692   3.553   5.051   9.925  1.3291 -0.3485  1.2729
   97OSM   H11G 9693   3.502   4.921   9.809 -1.5896  2.6052 -0.0087
   97OSM   C12F 9694   3.679   5.038   9.746  0.4276  0.0486 -0.0560
   97OSM   H12F 9695   3.769   5.090   9.785  0.4685 -0.1151  0.0706
   97OSM   H12G 9696   3.612   5.110   9.694 -0.1105 -1.3046 -1.2990
   97OSM   C13F 9697   3.746   4.934   9.649  0.1425 -0.4791 -0.6936
   97OSM   H13F 9698   3.661   4.866   9.626 -0.7147 -0.0078  0.9268
   97OSM   H13G 9699   3.828   4.876   9.695  0.3664  0.6367  0.3729
   97OSM   C14F 9700   3.797   4.995   9.513 -0.5923  0.3462  0.1765
   97OSM   H14F 9701   3.891   5.052   9.525  0.4913 -1.5958  1.4667
   97OSM   H14G 9702   3.722   5.071   9.483  1.1980  0.6853 -4.0866
   97OSM   C15F 9703   3.812   4.886   9.400  0.3782  0.3433  0.0015
   97OSM   H15F 9704   3.895   4.820   9.434  1.1204  1.4056  0.3021
   97OSM   H15G 9705   3.850   4.939   9.311  0.4226  0.1697 -0.0830
   97OSM   C16F 9706   3.690   4.798   9.365 -0.0203  0.0818  0.4896
   97OSM   H16F 9707   3.606   4.863   9.333 -1.8039 -1.4874  1.7868
   97OSM   H16G 9708   3.662   4.743   9.458 -0.2625  0.5940  0.7219
   97OSM   C17F 9709   3.717   4.704   9.248  0.2927  0.0405  0.7481
   97OSM   H17F 9710   3.664   4.608   9.268 -0.2478  0.3905  1.0073
   97OSM   H17G 9711   3.827   4.686   9.249  0.4073  0.6631  0.1540
   97OSM   C18F 9712   3.694   4.756   9.108 -0.0207 -1.0229  0.6128
   97OSM   H18F 9713   3.739   4.682   9.040  1.7605 -0.6454  1.3208
   97OSM   H18G 9714   3.740   4.856   9.094 -2.8421  0.7264  2.6006
   97OSM   H18H 9715   3.588   4.780   9.087 -0.3205  0.9513  3.7214
   98OSM      N 9716   4.335   4.929  11.712  0.7527 -0.3469 -0.2133
   98OSM    C15 9717   4.206   4.995  11.669  0.3129  0.0880  0.6864
   98OSM   H15A 9718   4.210   5.101  11.685  0.7038  0.2700 -0.5089
   98OSM   H15B 9719   4.118   4.965  11.725 -0.9144  1.7783 -0.2575
   98OSM   H15C 9720   4.187   4.970  11.565 -1.0114  0.8516  0.7170
   98OSM    C14 9721   4.445   5.016  11.667 -0.2255  0.1007  0.0866
   98OSM   H14A 9722   4.540   4.979  11.701  0.1243  1.0956  0.2251
   98OSM   H14B 9723   4.433   5.116  11.707  0.8749 -0.3788  1.6929
   98OSM   H14C 9724   4.435   5.018  11.559 -1.6896  2.6945  0.1653
   98OSM    C13 9725   4.338   4.928  11.864  0.4123 -0.3416 -0.1219
   98OSM   H13A 9726   4.255   4.869  11.901 -2.0358  1.8750 -1.6594
   98OSM   H13B 9727   4.331   5.029  11.901 -3.1634 -1.2236  2.0919
   98OSM   H13C 9728   4.428   4.882  11.902  0.5599 -0.9554 -1.1670
   98OSM    C12 9729   4.343   4.785  11.654 -0.1103  0.0993  0.2894
   98OSM   H12A 9730   4.273   4.729  11.714 -2.0073  1.7339 -0.3283
   98OSM   H12B 9731   4.446   4.753  11.666  0.2951  1.2476 -0.0070
   98OSM    C11 9732   4.324   4.754  11.499 -0.2730  0.1112 -0.1597
   98OSM   H11A 9733   4.218   4.741  11.468 -0.1495 -0.8139 -0.2395
   98OSM   H11B 9734   4.369   4.652  11.492  0.6694  0.5976 -1.7847
   98OSM      P 9735   4.539   4.829  11.358  0.0919  0.1408  0.0436
   98OSM    O13 9736   4.585   4.958  11.301  0.1962  0.5687  0.6838
   98OSM    O14 9737   4.621   4.773  11.469 -0.1700  0.9967 -0.0952
   98OSM    O11 9738   4.530   4.727  11.237 -0.1243 -0.6702 -0.1892
   98OSM    O12 9739   4.386   4.843  11.408 -0.3651  0.5746  0.3714
   98OSM    C1S 9740   4.416   4.742  11.156  0.2792 -0.2877  1.1992
   98OSM    H1S 9741   4.421   4.838  11.100 -0.9227  0.0389  1.5953
   98OSM    H1T 9742   4.314   4.761  11.198 -2.1698 -0.2689 -3.9472
   98OSM     NF 9743   4.312   4.655  10.936  0.0079  0.2730  0.1951
   98OSM    HNF 9744   4.213   4.643  10.941 -0.3044  0.6241 -3.0667
   98OSM    C2S 9745   4.390   4.622  11.058 -0.3441  0.6260 -0.3048
   98OSM    H2S 9746   4.490   4.588  11.022 -0.2471  2.2478 -1.6645
   98OSM    C3S 9747   4.337   4.498  11.145 -0.2514 -0.3427  0.7453
   98OSM    H3S 9748   4.235   4.523  11.180 -1.4646 -2.1910 -1.2461
   98OSM     O3 9749   4.425   4.472  11.250 -0.1799  0.0023 -0.2345
   98OSM    HO3 9750   4.474   4.555  11.254  0.8640 -0.6237  1.4331
   98OSM    C4S 9751   4.335   4.378  11.066  0.5506 -0.0379  0.3078
   98OSM    H4S 9752   4.432   4.368  11.015  0.0721  2.9415 -1.4363
   98OSM    C5S 9753   4.244   4.279  11.059 -0.5365  0.8008 -0.4860
   98OSM    H5S 9754   4.156   4.292  11.124  0.4559 -2.3409  1.7276
   98OSM    C6S 9755   4.252   4.155  10.972  0.1735 -0.1066 -0.1709
   98OSM    H6S 9756   4.226   4.065  11.031  1.1769 -0.0033  0.4485
   98OSM    H6T 9757   4.361   4.142  10.953 -0.0298  0.6998 -2.2161
   98OSM    C7S 9758   4.172   4.170  10.839  0.0957  0.0138  0.7111
   98OSM    H7S 9759   4.202   4.077  10.786 -2.5599  0.0485 -1.0098
   98OSM    H7T 9760   4.218   4.258  10.789  1.9039 -0.8084  0.8261
   98OSM    C8S 9761   4.023   4.152  10.858  0.2167 -0.3000  0.0155
   98OSM    H8S 9762   3.985   4.239  10.916 -1.7775 -0.8315 -0.3983
   98OSM    H8T 9763   3.992   4.070  10.926  2.1604 -1.5757 -0.5405
   98OSM    C9S 9764   3.936   4.147  10.733 -0.6460  0.6639 -0.4626
   98OSM    H9S 9765   3.920   4.243  10.680 -1.3501  0.2415 -1.0348
   98OSM    H9T 9766   3.832   4.134  10.771 -0.1700  1.2784  1.1460
   98OSM   C10S 9767   3.971   4.037  10.633  0.0833  0.4245  0.3032
   98OSM   H10S 9768   4.070   4.039  10.584 -0.8854  0.6682 -1.7368
   98OSM   H10T 9769   3.891   4.020  10.558 -0.1548  0.1506  0.6162
   98OSM   C11S 9770   3.975   3.904  10.710  0.5825 -0.1010 -0.2710
   98OSM   H11S 9771   3.895   3.896  10.786  0.3650 -0.0518 -0.4944
   98OSM   H11T 9772   4.067   3.895  10.771  1.4121 -0.2373 -1.5051
   98OSM   C12S 9773   3.966   3.791  10.610  0.3979  0.0640  0.1469
   98OSM   H12S 9774   4.062   3.775  10.557  0.2874 -1.7683  0.4493
   98OSM   H12T 9775   3.895   3.810  10.527  0.9251  0.7967 -0.1403
   98OSM   C13S 9776   3.922   3.667  10.683 -0.7908  0.9526  0.4524
   98OSM   H13S 9777   3.996   3.633  10.758 -1.0059  0.6970  0.5496
   98OSM   H13T 9778   3.909   3.590  10.604  0.2179 -1.7270  2.6994
   98OSM   C14S 9779   3.794   3.675  10.763  0.6189  0.3138 -0.5413
   98OSM   H14S 9780   3.701   3.695  10.706  0.2605  1.2471  0.3582
   98OSM   H14T 9781   3.805   3.746  10.847  0.9235  0.0796 -0.3825
   98OSM   C15S 9782   3.786   3.542  10.838 -0.2953  0.0621 -0.4091
   98OSM   H15S 9783   3.863   3.529  10.917  0.0775  1.0191 -0.6006
   98OSM   H15T 9784   3.807   3.459  10.767 -0.3520  1.8306 -2.6289
   98OSM   C16S 9785   3.654   3.504  10.909 -0.6370 -0.4238 -0.4842
   98OSM   H16S 9786   3.651   3.396  10.935 -0.1442  0.0939  2.0134
   98OSM   H16T 9787   3.565   3.515  10.844 -2.3156  1.1425  1.9027
   98OSM   C17S 9788   3.622   3.590  11.032 -0.3108  0.1604 -0.5269
   98OSM   H17S 9789   3.631   3.694  10.994 -1.1705  0.1162 -0.8804
   98OSM   H17T 9790   3.701   3.577  11.109  1.7079 -0.1607 -2.5601
   98OSM   C18S 9791   3.486   3.578  11.091 -0.0301 -0.4707  0.0584
   98OSM   H18S 9792   3.448   3.681  11.109 -0.8621 -0.5832 -0.9310
   98OSM   H18T 9793   3.480   3.518  11.184 -1.0160  0.2670  0.4977
   98OSM   H18U 9794   3.417   3.529  11.018 -0.6590 -1.7168  1.4464
   98OSM    C1F 9795   4.371   4.721  10.839 -0.4180  0.0568 -0.1780
   98OSM     OF 9796   4.488   4.761  10.853  0.5510  0.0725  0.8472
   98OSM    C2F 9797   4.296   4.759  10.713 -0.3749  0.9306  0.0622
   98OSM    H2F 9798   4.361   4.809  10.639 -1.0348 -1.0970 -2.0037
   98OSM    H2G 9799   4.220   4.837  10.732 -1.2667  0.3400 -0.9311
   98OSM    C3F 9800   4.220   4.639  10.660 -0.4236 -0.3435 -0.1660
   98OSM    H3F 9801   4.135   4.617  10.729  0.1120  1.3495  1.1044
   98OSM    H3G 9802   4.283   4.548  10.657 -1.9278 -1.4079 -1.2191
   98OSM    C4F 9803   4.175   4.650  10.515  0.8110  0.3591 -0.6410
   98OSM    H4F 9804   4.109   4.734  10.485 -1.2001 -1.1941 -0.8068
   98OSM    H4G 9805   4.111   4.563  10.490  1.9110 -0.0409 -2.2110
   98OSM    C5F 9806   4.283   4.644  10.403 -0.1917 -0.0971 -0.6853
   98OSM    H5F 9807   4.340   4.549  10.414  0.0754  0.0782 -0.5191
   98OSM    H5G 9808   4.346   4.734  10.421  0.9108 -1.1518  0.9940
   98OSM    C6F 9809   4.224   4.660  10.262 -0.3295  0.0353 -0.1367
   98OSM    H6F 9810   4.304   4.669  10.185 -0.2064 -2.8901 -0.4456
   98OSM    H6G 9811   4.168   4.756  10.255 -1.7253 -0.7587 -0.3077
   98OSM    C7F 9812   4.119   4.550  10.224  0.0466 -0.1592  0.0524
   98OSM    H7F 9813   4.029   4.569  10.287  0.2907 -2.9427  1.3987
   98OSM    H7G 9814   4.148   4.451  10.267 -1.4926 -0.0412  1.4857
   98OSM    C8F 9815   4.098   4.545  10.071  0.2809 -0.3210 -0.0839
   98OSM    H8F 9816   4.025   4.462  10.061 -0.3456  0.2538 -0.3484
   98OSM    H8G 9817   4.190   4.511  10.018  0.4730 -0.1276  0.1254
   98OSM    C9F 9818   4.032   4.674  10.005 -0.4643  0.2071  0.2758
   98OSM    H9F 9819   3.985   4.749  10.070 -2.4487  0.0768 -0.9026
   98OSM   C10F 9820   4.022   4.684   9.871 -0.0227 -0.3961  0.0262
   98OSM   H10F 9821   3.961   4.764   9.827  1.4566  0.4514 -0.5721
   98OSM   C11F 9822   4.076   4.590   9.768 -0.4798  1.0435  0.2007
   98OSM   H11F 9823   4.067   4.484   9.800 -1.2758  1.1798  0.4432
   98OSM   H11G 9824   4.187   4.601   9.760 -0.4692  0.7869 -0.0300
   98OSM   C12F 9825   4.012   4.603   9.625 -0.0768 -0.0592  0.1698
   98OSM   H12F 9826   4.055   4.533   9.550 -1.3431 -0.3913 -0.2729
   98OSM   H12G 9827   4.039   4.701   9.581  1.1436 -0.7045 -0.5871
   98OSM   C13F 9828   3.863   4.582   9.620  0.3038  0.7613  0.0708
   98OSM   H13F 9829   3.829   4.599   9.515  1.1248 -2.6473 -0.8674
   98OSM   H13G 9830   3.821   4.664   9.682  0.0793  1.6050 -1.1476
   98OSM   C14F 9831   3.810   4.438   9.670 -0.2556 -0.6890  0.1602
   98OSM   H14F 9832   3.700   4.433   9.661 -0.4622  3.2680 -1.5112
   98OSM   H14G 9833   3.819   4.433   9.781 -0.6926 -0.0247  0.2339
   98OSM   C15F 9834   3.883   4.321   9.609 -0.2908 -0.1059 -0.4008
   98OSM   H15F 9835   3.833   4.229   9.643  2.0625 -0.7767  1.5369
   98OSM   H15G 9836   3.991   4.325   9.636 -0.7517  0.2302  1.4939
   98OSM   C16F 9837   3.867   4.320   9.453 -0.4966 -0.4207  0.0398
   98OSM   H16F 9838   3.936   4.239   9.422 -1.0654 -0.3068 -1.6265
   98OSM   H16G 9839   3.903   4.417   9.412  0.4664  0.5260  2.8495
   98OSM   C17F 9840   3.724   4.290   9.412  0.2496  0.2476  0.4519
   98OSM   H17F 9841   3.663   4.371   9.456 -0.3480 -0.1415  0.3477
   98OSM   H17G 9842   3.680   4.201   9.462  0.2857 -0.5100 -0.8345
   98OSM   C18F 9843   3.715   4.282   9.260 -0.1007 -0.1661  0.2941
   98OSM   H18F 9844   3.768   4.355   9.195 -1.2654 -0.6575 -1.2536
   98OSM   H18G 9845   3.607   4.284   9.234 -0.0413  0.4375  0.0771
   98OSM   H18H 9846   3.759   4.186   9.227  1.1188  0.8046 -1.0843
   99OSM      N 9847   5.851   4.341  11.208 -0.0468 -0.7208  0.3451
   99OSM    C15 9848   5.753   4.374  11.321 -0.3641 -0.3925  0.3188
   99OSM   H15A 9849   5.800   4.434  11.397  1.9928 -0.4924 -0.9508
   99OSM   H15B 9850   5.710   4.284  11.362 -3.8019  1.7222  1.7780
   99OSM   H15C 9851   5.674   4.434  11.278 -0.5889 -1.5278 -0.9108
   99OSM    C14 9852   5.875   4.469  11.136 -0.4125 -0.3353  0.2837
   99OSM   H14A 9853   5.954   4.456  11.063 -2.2567  0.9588 -2.0917
   99OSM   H14B 9854   5.901   4.549  11.203  2.8730 -0.3877 -0.7579
   99OSM   H14C 9855   5.789   4.507  11.083  1.3812  0.9002 -1.9036
   99OSM    C13 9856   5.970   4.290  11.282  0.3756 -1.1935  0.4790
   99OSM   H13A 9857   5.947   4.221  11.362 -0.4449 -0.8085  0.5861
   99OSM   H13B 9858   6.022   4.370  11.332 -0.1527 -0.6439  0.1746
   99OSM   H13C 9859   6.044   4.244  11.218 -0.2770  0.2372 -1.4023
   99OSM    C12 9860   5.789   4.229  11.121  0.0663 -0.9570  0.8622
   99OSM   H12A 9861   5.702   4.269  11.072 -1.2373 -1.2137  2.8282
   99OSM   H12B 9862   5.752   4.150  11.186 -0.4646  1.3428  3.5681
   99OSM    C11 9863   5.877   4.176  11.005 -0.4594 -0.1801 -0.0172
   99OSM   H11A 9864   5.911   4.253  10.932  1.7648  0.6697  1.8016
   99OSM   H11B 9865   5.810   4.109  10.947  2.2682 -3.1609 -0.0046
   99OSM      P 9866   6.048   3.980  11.000 -0.4090 -0.1203  0.5811
   99OSM    O13 9867   6.197   3.990  11.005 -0.3855  0.7038  0.1451
   99OSM    O14 9868   5.984   3.865  11.075 -0.1907 -0.3108  0.1459
   99OSM    O11 9869   6.007   3.985  10.851 -0.4190 -1.0791  0.3249
   99OSM    O12 9870   5.998   4.120  11.051  0.0066 -0.3592 -0.1851
   99OSM    C1S 9871   6.094   4.072  10.769  0.4660 -0.0024  0.7665
   99OSM    H1S 9872   6.204   4.052  10.775  1.2529  3.2911 -0.2424
   99OSM    H1T 9873   6.084   4.178  10.802  0.4694  0.3928 -0.4425
   99OSM     NF 9874   6.128   4.171  10.549 -0.3325  0.3450 -0.4867
   99OSM    HNF 9875   6.082   4.259  10.540 -0.4614  0.1344 -2.1308
   99OSM    C2S 9876   6.049   4.063  10.618 -0.1933 -0.4167  0.0637
   99OSM    H2S 9877   6.077   3.963  10.580 -2.2113 -0.5673 -1.1825
   99OSM    C3S 9878   5.896   4.064  10.593  0.4986 -0.3381  0.6419
   99OSM    H3S 9879   5.862   4.169  10.601 -1.0205 -0.8207  0.9400
   99OSM     O3 9880   5.807   4.004  10.689  0.2576  0.3904 -0.1694
   99OSM    HO3 9881   5.866   3.976  10.760  1.4650  1.5407 -0.6725
   99OSM    C4S 9882   5.872   4.013  10.451  0.0805  0.0721 -1.0558
   99OSM    H4S 9883   5.907   3.912  10.429  2.4996  0.9015 -1.3168
   99OSM    C5S 9884   5.800   4.077  10.353  1.0151 -0.0790 -0.2698
   99OSM    H5S 9885   5.736   4.165  10.375 -0.8646 -1.6826  1.0210
   99OSM    C6S 9886   5.779   4.025  10.215  0.1574 -0.6650  1.0792
   99OSM    H6S 9887   5.671   4.002  10.204  0.2070  0.4240 -3.0744
   99OSM    H6T 9888   5.820   3.925  10.192 -1.8742 -0.6129 -3.9899
   99OSM    C7S 9889   5.811   4.129  10.106  1.3022  0.4572  0.0325
   99OSM    H7S 9890   5.914   4.167  10.122  1.2191  0.4959  0.4940
   99OSM    H7T 9891   5.741   4.215  10.115 -0.8698 -1.0776 -1.3029
   99OSM    C8S 9892   5.799   4.075   9.963 -0.9186  0.4373 -0.5119
   99OSM    H8S 9893   5.690   4.054   9.954 -0.5721 -0.5594 -3.3024
   99OSM    H8T 9894   5.868   3.990   9.945  2.9392  3.2735 -0.2956
   99OSM    C9S 9895   5.835   4.182   9.858  0.2873  0.2532 -0.0120
   99OSM    H9S 9896   5.932   4.230   9.881  0.8014 -1.0285  0.6203
   99OSM    H9T 9897   5.745   4.245   9.839  1.2875  2.2808  1.5569
   99OSM   C10S 9898   5.884   4.112   9.720 -0.3268 -0.0014 -0.1468
   99OSM   H10S 9899   5.811   4.039   9.677  1.6387  0.1042 -4.1777
   99OSM   H10T 9900   5.970   4.058   9.765 -0.3441  0.7537  0.8343
   99OSM   C11S 9901   5.926   4.217   9.618  0.3522  0.3869  0.4109
   99OSM   H11S 9902   5.987   4.293   9.671 -0.5033  1.2154  0.2417
   99OSM   H11T 9903   5.834   4.265   9.577 -0.0830 -0.3832  0.4561
   99OSM   C12S 9904   6.005   4.161   9.503 -0.2307  0.0550  0.4716
   99OSM   H12S 9905   6.095   4.114   9.549  0.1095 -0.4577 -0.6873
   99OSM   H12T 9906   5.931   4.102   9.446  0.6456  1.6130 -2.5397
   99OSM   C13S 9907   6.058   4.270   9.409  0.0533  0.0256 -0.2737
   99OSM   H13S 9908   6.153   4.298   9.459 -1.1700  0.1202  2.1353
   99OSM   H13T 9909   5.993   4.360   9.403  2.1460  1.6492  0.1827
   99OSM   C14S 9910   6.097   4.222   9.265  0.9352 -0.4282  0.2319
   99OSM   H14S 9911   6.065   4.297   9.189  0.0701 -0.6033  0.4126
   99OSM   H14T 9912   6.048   4.125   9.243 -1.1459 -0.0163  2.4874
   99OSM   C15S 9913   6.244   4.200   9.258  0.2568 -0.0357 -0.0900
   99OSM   H15S 9914   6.260   4.131   9.173  0.3007  1.0664 -1.0082
   99OSM   H15T 9915   6.285   4.160   9.353 -0.0539 -0.8407 -0.2870
   99OSM   C16S 9916   6.331   4.328   9.253 -0.4400 -0.0225 -0.6235
   99OSM   H16S 9917   6.439   4.300   9.251 -0.4191  0.0079 -0.0654
   99OSM   H16T 9918   6.319   4.387   9.346  0.3627  0.6794 -0.9496
   99OSM   C17S 9919   6.289   4.419   9.131 -0.5702 -0.1385 -0.0492
   99OSM   H17S 9920   6.344   4.516   9.137  0.1289 -0.6029  1.5722
   99OSM   H17T 9921   6.184   4.455   9.127 -1.1588 -1.2934  2.6930
   99OSM   C18S 9922   6.310   4.356   8.990  0.0434  0.0476 -0.1327
   99OSM   H18S 9923   6.231   4.279   8.972  1.1208 -1.0999 -0.0901
   99OSM   H18T 9924   6.403   4.295   8.983 -1.4527 -2.8338  2.4598
   99OSM   H18U 9925   6.309   4.433   8.911  2.8612  0.9713  0.6464
   99OSM    C1F 9926   6.260   4.160  10.528 -0.8186 -0.4102 -0.5708
   99OSM     OF 9927   6.319   4.062  10.561  0.1245 -0.5338  0.0404
   99OSM    C2F 9928   6.332   4.275  10.486  0.0209  0.4053  0.4890
   99OSM    H2F 9929   6.386   4.320  10.573  1.2766  1.1038 -0.6142
   99OSM    H2G 9930   6.264   4.355  10.451  1.2635  0.0165 -3.2412
   99OSM    C3F 9931   6.429   4.245  10.369  0.6314 -0.2447 -0.1363
   99OSM    H3F 9932   6.509   4.322  10.362  0.3444  0.1557  0.8214
   99OSM    H3G 9933   6.482   4.151  10.392  1.4737  0.5195  1.1505
   99OSM    C4F 9934   6.349   4.242  10.240 -0.1686 -0.7162 -0.5866
   99OSM    H4F 9935   6.303   4.342  10.223  3.0230  0.5835 -2.4647
   99OSM    H4G 9936   6.268   4.167  10.250 -0.7580 -0.0926 -0.5312
   99OSM    C5F 9937   6.435   4.212  10.121  0.6263 -0.3506  0.2717
   99OSM    H5F 9938   6.488   4.118  10.150  0.5049 -0.4456  0.1875
   99OSM    H5G 9939   6.518   4.285  10.110  0.3669  0.3648  2.6286
   99OSM    C6F 9940   6.358   4.180   9.990 -0.1214  0.4357 -0.4279
   99OSM    H6F 9941   6.326   4.275   9.943  0.5599  0.5195 -0.7236
   99OSM    H6G 9942   6.275   4.110  10.013 -0.4885  1.3544  1.2005
   99OSM    C7F 9943   6.446   4.108   9.881 -0.6010 -0.1805 -0.4179
   99OSM    H7F 9944   6.495   4.028   9.941 -0.8746  0.2465  0.3908
   99OSM    H7G 9945   6.530   4.161   9.832  1.6640 -2.9865  0.1243
   99OSM    C8F 9946   6.367   4.030   9.779  0.2386 -0.4030 -0.4260
   99OSM    H8F 9947   6.322   4.089   9.697  2.3193  1.2329 -0.4748
   99OSM    H8G 9948   6.271   4.003   9.828  0.3762  3.0699  2.2082
   99OSM    C9F 9949   6.452   3.918   9.729  0.0419 -0.2562 -0.6093
   99OSM    H9F 9950   6.457   3.840   9.807  3.0181  1.5429  1.1901
   99OSM   C10F 9951   6.529   3.911   9.621 -0.5463 -0.3089  0.4580
   99OSM   H10F 9952   6.581   3.816   9.598  0.2517  0.8172 -3.0095
   99OSM   C11F 9953   6.543   4.019   9.513  0.4992 -0.0823 -0.0689
   99OSM   H11F 9954   6.609   4.095   9.558 -1.7060  0.3891  2.6535
   99OSM   H11G 9955   6.444   4.068   9.502  0.9511  0.7830 -0.3407
   99OSM   C12F 9956   6.586   3.967   9.378  0.6081  0.2777 -0.1950
   99OSM   H12F 9957   6.687   3.923   9.392  0.8211  1.5396  2.8903
   99OSM   H12G 9958   6.611   4.047   9.306  4.4871  0.0698  0.7233
   99OSM   C13F 9959   6.498   3.865   9.304  0.3969  0.6216  0.1819
   99OSM   H13F 9960   6.411   3.921   9.265  1.3685  1.4837 -0.8080
   99OSM   H13G 9961   6.456   3.789   9.374  1.3801 -1.1917 -1.1221
   99OSM   C14F 9962   6.575   3.796   9.196 -0.7660  0.1687 -0.3174
   99OSM   H14F 9963   6.521   3.708   9.155  0.4424 -2.2260  2.7837
   99OSM   H14G 9964   6.672   3.755   9.231 -0.4261  1.7274  0.7008
   99OSM   C15F 9965   6.592   3.889   9.072 -0.0156  0.7492 -0.7201
   99OSM   H15F 9966   6.653   3.977   9.101  3.5840 -1.7545 -0.0245
   99OSM   H15G 9967   6.489   3.914   9.037 -0.5924 -1.8913 -1.1265
   99OSM   C16F 9968   6.667   3.814   8.957 -0.4852 -0.3049  0.0623
   99OSM   H16F 9969   6.629   3.711   8.939 -0.8985 -0.7684  2.9888
   99OSM   H16G 9970   6.766   3.780   8.994 -0.5374 -0.2029  0.2977
   99OSM   C17F 9971   6.685   3.905   8.833 -0.4317  0.4417 -0.1343
   99OSM   H17F 9972   6.609   3.983   8.851  0.3301  0.9118  1.2114
   99OSM   H17G 9973   6.672   3.856   8.734 -0.1478  1.3808 -0.6415
   99OSM   C18F 9974   6.820   3.971   8.840  0.5958  0.0823 -0.6628
   99OSM   H18F 9975   6.840   4.037   8.927  0.1565  0.5706 -0.9282
   99OSM   H18G 9976   6.813   4.034   8.750 -1.7247  1.5908  0.4627
   99OSM   H18H 9977   6.898   3.892   8.837  2.4854  1.6649  2.2553
  100OSM      N 9978   0.305   5.911  11.429 -0.3288  0.5576  0.0490
  100OSM    C15 9979   0.160   5.908  11.454  0.1372  0.1694  0.2181
  100OSM   H15A 9980   0.106   5.829  11.404  0.6356 -1.7229  2.4664
  100OSM   H15B 9981   0.115   6.002  11.425  0.8740 -0.3195 -2.8527
  100OSM   H15C 9982   0.154   5.883  11.559  3.2881 -1.0041  0.2269
  100OSM    C14 9983   0.360   6.013  11.518 -0.8943  0.1944  0.0997
  100OSM   H14A 9984   0.322   6.108  11.482  1.9626  1.1332 -0.6926
  100OSM   H14B 9985   0.465   6.033  11.499 -0.8728  0.9470  0.9439
  100OSM   H14C 9986   0.340   6.003  11.623 -3.1554  0.4552 -0.2611
  100OSM    C13 9987   0.370   5.782  11.472  0.3651 -0.2484 -0.3105
  100OSM   H13A 9988   0.330   5.702  11.412  0.8128 -1.2135  0.6329
  100OSM   H13B 9989   0.355   5.773  11.579 -1.7125  0.5206 -0.4968
  100OSM   H13C 9990   0.476   5.789  11.453  0.4872  2.9340  0.8809
  100OSM    C12 9991   0.348   5.945  11.284  0.4433  0.0646 -0.2731
  100OSM   H12A 9992   0.455   5.938  11.277  0.2992 -2.1941 -1.0955
  100OSM   H12B 9993   0.301   6.039  11.258  2.1308  0.5758 -1.6884
  100OSM    C11 9994   0.290   5.852  11.167 -0.3647 -0.5437 -0.3289
  100OSM   H11A 9995   0.331   5.754  11.197  1.8887  1.1061  2.4722
  100OSM   H11B 9996   0.338   5.877  11.070 -0.1193 -0.8949 -0.2994
  100OSM      P 9997   0.081   5.979  11.098 -0.1151 -0.3518  0.2102
  100OSM    O13 9998  -0.051   5.992  11.154  0.0350  0.0021  0.1127
  100OSM    O14 9999   0.166   6.106  11.103  0.5377  0.6219  0.7375
  100OSM    O1110000   0.082   5.925  10.950 -0.4347  0.3215 -0.3456
  100OSM    O1210001   0.155   5.854  11.158  0.1001 -0.0526 -0.4656
  100OSM    C1S10002  -0.005   5.828  10.901 -0.6602  0.4358  0.1381
  100OSM    H1S10003  -0.111   5.861  10.897 -0.5650  0.6616 -0.6440
  100OSM    H1T10004   0.006   5.727  10.946 -0.6214  0.7482  0.8514
  100OSM     NF10005  -0.074   5.742  10.678  0.7013  0.0425  0.0890
  100OSM    HNF10006  -0.076   5.647  10.649 -2.8948  0.1528 -0.5404
  100OSM    C2S10007   0.044   5.794  10.755  1.0464  0.5361 -0.4428
  100OSM    H2S10008   0.071   5.893  10.713 -1.1747  1.7898  0.9129
  100OSM    C3S10009   0.177   5.700  10.756  0.0382  0.4267  0.1726
  100OSM    H3S10010   0.141   5.601  10.792  0.0809  0.2755 -0.1900
  100OSM     O310011   0.277   5.736  10.853 -0.0238  0.4464 -0.6203
  100OSM    HO310012   0.233   5.806  10.901 -0.6283 -0.6241  0.4308
  100OSM    C4S10013   0.221   5.698  10.608  0.4304  0.2729  0.9950
  100OSM    H4S10014   0.262   5.794  10.573  1.4948  0.0779  1.6492
  100OSM    C5S10015   0.216   5.590  10.526  0.4900  0.3019 -0.4823
  100OSM    H5S10016   0.203   5.491  10.572 -0.7241  0.5269 -0.3060
  100OSM    C6S10017   0.266   5.585  10.383  0.1381  0.4500 -0.0751
  100OSM    H6S10018   0.175   5.559  10.323 -1.1647 -4.1301  3.3238
  100OSM    H6T10019   0.324   5.492  10.365 -1.2847 -0.8251  1.6069
  100OSM    C7S10020   0.319   5.721  10.322 -0.3273 -0.1139  0.3421
  100OSM    H7S10021   0.409   5.750  10.380 -0.7887 -0.5140  1.2836
  100OSM    H7T10022   0.239   5.799  10.329  0.2478  0.5266 -0.1776
  100OSM    C8S10023   0.355   5.699  10.181  0.1838  0.1836  0.2427
  100OSM    H8S10024   0.337   5.791  10.121 -0.1177  0.7835  1.2307
  100OSM    H8T10025   0.295   5.614  10.141 -0.0725  0.8004 -0.7319
  100OSM    C9S10026   0.497   5.655  10.175 -0.3678 -0.2703 -0.4608
  100OSM    H9S10027   0.510   5.578  10.254 -3.6653 -0.2854  0.1878
  100OSM    H9T10028   0.564   5.738  10.205 -0.1080 -0.4345 -0.5766
  100OSM   C10S10029   0.528   5.589  10.033  0.0673 -0.9011 -0.0791
  100OSM   H10S10030   0.456   5.505  10.024  1.9817 -2.4065 -2.2067
  100OSM   H10T10031   0.633   5.558  10.017  0.6891  0.8358  0.3729
  100OSM   C11S10032   0.511   5.689   9.912 -0.2011  0.1448  0.5709
  100OSM   H11S10033   0.585   5.772   9.906 -1.8999  1.6872  0.0187
  100OSM   H11T10034   0.411   5.736   9.924 -1.0754 -1.6805  0.6824
  100OSM   C12S10035   0.517   5.621   9.774  0.3915  0.7157 -0.5199
  100OSM   H12S10036   0.453   5.530   9.767  1.1262 -0.0021  1.2036
  100OSM   H12T10037   0.622   5.587   9.760  0.1106 -0.4830  0.1237
  100OSM   C13S10038   0.493   5.713   9.652 -0.5787  0.0426  0.2673
  100OSM   H13S10039   0.573   5.790   9.644 -0.0966 -0.5143 -0.4604
  100OSM   H13T10040   0.390   5.755   9.643 -0.3484  0.2478 -1.7990
  100OSM   C14S10041   0.522   5.639   9.515  0.5985 -0.5508 -0.9781
  100OSM   H14S10042   0.445   5.561   9.498  0.6859 -0.5606 -1.3514
  100OSM   H14T10043   0.626   5.598   9.513  0.7650 -0.1257 -1.0307
  100OSM   C15S10044   0.498   5.725   9.388  0.0373  0.4221 -0.2519
  100OSM   H15S10045   0.558   5.818   9.388  0.8421 -0.0588 -2.0892
  100OSM   H15T10046   0.392   5.760   9.387  0.2594  1.1008 -0.8221
  100OSM   C16S10047   0.523   5.652   9.251 -0.4679  0.2573  1.2599
  100OSM   H16S10048   0.633   5.664   9.238 -0.8483  1.4158 -1.4814
  100OSM   H16T10049   0.468   5.710   9.174  1.4143  1.3284  0.6574
  100OSM   C17S10050   0.496   5.506   9.258  1.3063  0.1816  0.4886
  100OSM   H17S10051   0.388   5.490   9.278  0.8290  0.4088 -1.6641
  100OSM   H17T10052   0.554   5.448   9.333  2.5039  1.0688  0.2651
  100OSM   C18S10053   0.511   5.445   9.117 -0.3659  0.2944 -0.1893
  100OSM   H18S10054   0.521   5.334   9.113  0.6903  0.3527  0.4185
  100OSM   H18T10055   0.595   5.488   9.058 -2.9203  1.1661 -3.5212
  100OSM   H18U10056   0.414   5.481   9.075 -1.6554 -0.1146  2.2569
  100OSM    C1F10057  -0.180   5.822  10.648 -0.1329 -0.1800 -0.3867
  100OSM     OF10058  -0.161   5.944  10.633  0.3679 -0.0396 -0.0715
  100OSM    C2F10059  -0.314   5.751  10.628  0.5553 -0.1248 -0.1814
  100OSM    H2F10060  -0.362   5.778  10.724  1.9944 -0.5378  0.6868
  100OSM    H2G10061  -0.310   5.643  10.601 -0.9362 -0.3525  0.3857
  100OSM    C3F10062  -0.411   5.818  10.531 -0.4080  0.0908 -0.5488
  100OSM    H3F10063  -0.413   5.929  10.542 -1.6148 -0.0047  0.3569
  100OSM    H3G10064  -0.518   5.791  10.540 -0.3104 -0.1632 -0.1335
  100OSM    C4F10065  -0.361   5.792  10.383 -0.0465 -0.5112  0.3106
  100OSM    H4F10066  -0.334   5.684  10.373 -0.0627 -0.3995 -1.0759
  100OSM    H4G10067  -0.265   5.847  10.369 -0.0014 -0.8715 -0.8975
  100OSM    C5F10068  -0.455   5.849  10.273  0.3637 -0.2761 -0.1940
  100OSM    H5F10069  -0.479   5.953  10.304 -2.1865 -0.6783 -0.6216
  100OSM    H5G10070  -0.544   5.783  10.272 -0.1268  0.3601 -1.7559
  100OSM    C6F10071  -0.372   5.834  10.146 -0.3118 -0.4128  0.9390
  100OSM    H6F10072  -0.361   5.724  10.134 -2.0654 -0.4670 -0.7622
  100OSM    H6G10073  -0.269   5.875  10.151  0.2413 -1.3859 -1.2949
  100OSM    C7F10074  -0.433   5.898  10.017 -0.5014 -0.0636 -0.3106
  100OSM    H7F10075  -0.410   6.006  10.012  0.3199 -0.1794  0.4946
  100OSM    H7G10076  -0.544   5.898  10.026 -0.5504 -0.7184 -0.8321
  100OSM    C8F10077  -0.381   5.836   9.884 -0.2528  0.0042 -0.6164
  100OSM    H8F10078  -0.270   5.837   9.890 -0.3210  0.3285  1.4088
  100OSM    H8G10079  -0.412   5.921   9.819  1.8480 -0.1247 -1.8712
  100OSM    C9F10080  -0.446   5.701   9.852 -0.4065  0.6586  0.0285
  100OSM    H9F10081  -0.423   5.614   9.915  0.5256 -0.5323 -1.8537
  100OSM   C10F10082  -0.530   5.691   9.749  0.7937 -0.7710 -0.1787
  100OSM   H10F10083  -0.584   5.600   9.721 -0.2821  0.6829 -3.3454
  100OSM   C11F10084  -0.570   5.807   9.654 -0.5251  0.0965  0.0052
  100OSM   H11F10085  -0.529   5.909   9.669 -1.4841  0.4197  0.4893
  100OSM   H11G10086  -0.680   5.818   9.660 -0.8099 -1.1880 -1.9692
  100OSM   C12F10087  -0.526   5.767   9.511 -0.4939 -0.0691  0.5120
  100OSM   H12F10088  -0.415   5.765   9.509 -0.4953 -1.7616  0.1912
  100OSM   H12G10089  -0.558   5.845   9.440 -0.2861 -1.3258 -1.0120
  100OSM   C13F10090  -0.574   5.631   9.469  0.4596  0.3922 -0.1503
  100OSM   H13F10091  -0.676   5.597   9.496  0.1579  0.5159 -1.1020
  100OSM   H13G10092  -0.500   5.556   9.503 -0.3660 -0.1005  0.5989
  100OSM   C14F10093  -0.592   5.621   9.321 -0.6898 -0.0023 -0.2550
  100OSM   H14F10094  -0.488   5.637   9.284  0.2005  1.1507  2.4487
  100OSM   H14G10095  -0.654   5.707   9.286  0.3427  0.8287 -0.1182
  100OSM   C15F10096  -0.646   5.488   9.269 -0.2176  0.1942 -0.1003
  100OSM   H15F10097  -0.745   5.471   9.317 -0.1673 -1.3115 -0.4731
  100OSM   H15G10098  -0.578   5.406   9.300 -2.5218 -0.6579  3.2679
  100OSM   C16F10099  -0.637   5.490   9.114 -0.2348 -0.1023 -0.0731
  100OSM   H16F10100  -0.532   5.457   9.098  0.2011  2.2493 -2.8140
  100OSM   H16G10101  -0.642   5.597   9.084 -2.4400 -0.3676 -0.8083
  100OSM   C17F10102  -0.752   5.414   9.046  0.0754 -0.3494 -0.5730
  100OSM   H17F10103  -0.746   5.406   8.935 -0.7649 -1.9786 -0.5325
  100OSM   H17G10104  -0.853   5.460   9.059  0.5970  0.6692  0.0312
  100OSM   C18F10105  -0.773   5.269   9.102  0.1795 -0.4613 -0.2693
  100OSM   H18F10106  -0.758   5.280   9.211  0.3027  3.8726 -0.5278
  100OSM   H18G10107  -0.707   5.193   9.055  1.4389 -0.3113  1.1660
  100OSM   H18H10108  -0.877   5.241   9.077  0.5068 -1.6335 -0.3462
  101OSM      N10109   3.572   6.005  11.395  0.2873  0.4235  0.4305
  101OSM    C1510110   3.570   5.896  11.503  0.3413 -1.2283 -0.2795
  101OSM   H15A10111   3.538   5.939  11.598 -2.2038 -0.2002 -1.5043
  101OSM   H15B10112   3.672   5.860  11.506  0.6520 -0.3429  0.9436
  101OSM   H15C10113   3.523   5.803  11.476  0.2960 -2.3614  3.1394
  101OSM    C1410114   3.664   6.112  11.436 -0.3146  0.0106  0.6033
  101OSM   H14A10115   3.680   6.191  11.364 -0.9959  0.3983  0.8653
  101OSM   H14B10116   3.767   6.082  11.448  1.0549  3.0888 -1.8555
  101OSM   H14C10117   3.644   6.153  11.533  0.4614 -1.6192  1.4888
  101OSM    C1310118   3.623   5.944  11.267 -0.8600  0.2909  0.3209
  101OSM   H13A10119   3.728   5.917  11.267 -0.3134  2.0367 -2.4345
  101OSM   H13B10120   3.631   6.018  11.189  2.6966 -0.4017 -0.1664
  101OSM   H13C10121   3.570   5.852  11.247  2.3128 -2.0201  1.6612
  101OSM    C1210122   3.439   6.069  11.373  0.0388 -0.0108 -0.4434
  101OSM   H12A10123   3.451   6.164  11.323  0.2957  0.4651  0.5053
  101OSM   H12B10124   3.403   6.089  11.473 -0.6622  2.1309 -1.0628
  101OSM    C1110125   3.337   5.991  11.288 -0.0142  0.6453  0.0537
  101OSM   H11A10126   3.235   6.030  11.305  0.2803  2.2029 -1.4888
  101OSM   H11B10127   3.334   5.888  11.330  0.7566  0.9786  0.9935
  101OSM      P10128   3.320   6.132  11.073  0.0045  0.3909 -0.2633
  101OSM    O1310129   3.177   6.139  11.101  0.1836 -0.2341  0.0949
  101OSM    O1410130   3.399   6.251  11.112 -0.5380  1.1909  0.8110
  101OSM    O1110131   3.338   6.108  10.916  0.7046 -0.3852 -0.6559
  101OSM    O1210132   3.367   5.996  11.147 -0.1463  0.1885  0.4117
  101OSM    C1S10133   3.458   6.125  10.850 -0.1616  0.6179 -0.3950
  101OSM    H1S10134   3.547   6.084  10.902 -0.9115 -1.1423 -0.4185
  101OSM    H1T10135   3.481   6.232  10.832  2.6743  0.4387  1.5706
  101OSM     NF10136   3.594   6.035  10.664  0.2290 -0.0586 -0.6669
  101OSM    HNF10137   3.629   6.101  10.598  1.5812  0.8960  0.9156
  101OSM    C2S10138   3.461   6.046  10.719  0.3937 -1.0390  0.1329
  101OSM    H2S10139   3.423   5.945  10.743  2.0703 -1.0621  3.0795
  101OSM    C3S10140   3.361   6.115  10.622 -0.0852 -0.2575 -0.0592
  101OSM    H3S10141   3.409   6.215  10.607  0.0540 -0.1035  1.3241
  101OSM     O310142   3.229   6.131  10.675 -0.5001 -0.6109  0.2541
  101OSM    HO310143   3.234   6.121  10.770  0.6254 -1.7305  0.0980
  101OSM    C4S10144   3.341   6.040  10.493  0.2878 -0.6164 -0.2129
  101OSM    H4S10145   3.270   5.956  10.494  1.7138 -1.8550  0.0723
  101OSM    C5S10146   3.395   6.080  10.376 -0.5028 -0.7054 -0.0140
  101OSM    H5S10147   3.469   6.161  10.378  0.0749 -1.1706 -1.1108
  101OSM    C6S10148   3.377   6.008  10.240  0.2521  0.4805 -0.0718
  101OSM    H6S10149   3.408   5.902  10.242 -3.9477 -0.9464 -0.1752
  101OSM    H6T10150   3.432   6.063  10.161  3.0248 -2.3708 -0.2980
  101OSM    C7S10151   3.232   6.014  10.201 -0.4504 -0.6101 -0.0038
  101OSM    H7S10152   3.197   6.118  10.188  0.2543  0.0392  2.7082
  101OSM    H7T10153   3.165   5.966  10.276 -0.1053 -1.7357 -0.3942
  101OSM    C8S10154   3.205   5.956  10.057 -0.0533  0.7500  0.2989
  101OSM    H8S10155   3.100   5.920  10.055 -0.0407  0.6929  0.6167
  101OSM    H8T10156   3.264   5.862  10.054  2.2775  2.1184  0.3123
  101OSM    C9S10157   3.247   6.029   9.933 -0.2264 -0.0187  0.3883
  101OSM    H9S10158   3.356   6.037   9.919 -0.3709  1.0604 -0.1791
  101OSM    H9T10159   3.209   6.133   9.946 -0.3747 -0.1302  0.8838
  101OSM   C10S10160   3.189   5.986   9.792 -0.1886  0.3065  0.0424
  101OSM   H10S10161   3.079   5.972   9.798  0.0975 -2.7300 -0.3586
  101OSM   H10T10162   3.235   5.886   9.782  0.3960  0.3669  1.7281
  101OSM   C11S10163   3.228   6.076   9.676 -0.2410 -0.8276 -0.0086
  101OSM   H11S10164   3.336   6.066   9.653 -0.0740 -1.0298  0.8363
  101OSM   H11T10165   3.196   6.179   9.704 -2.3336 -0.5691 -2.8372
  101OSM   C12S10166   3.166   6.011   9.554  0.1375  0.1167  0.5357
  101OSM   H12S10167   3.056   6.017   9.560 -0.0783 -1.4414 -1.1241
  101OSM   H12T10168   3.183   5.901   9.558 -0.3084  0.0696  1.6276
  101OSM   C13S10169   3.218   6.069   9.422 -0.2837 -0.1509  0.1650
  101OSM   H13S10170   3.163   6.004   9.351  0.4269  0.4525 -0.9799
  101OSM   H13T10171   3.328   6.055   9.413 -0.0810  1.4721 -0.1729
  101OSM   C14S10172   3.182   6.218   9.407  0.5681 -0.6177 -0.8185
  101OSM   H14S10173   3.245   6.281   9.475 -1.3594  0.3404  0.1568
  101OSM   H14T10174   3.082   6.244   9.447  1.0674 -0.1895  0.2063
  101OSM   C15S10175   3.208   6.270   9.264 -0.8033 -0.4181 -0.4059
  101OSM   H15S10176   3.308   6.249   9.222 -0.6096 -3.4025  1.2807
  101OSM   H15T10177   3.196   6.380   9.274 -2.7750 -0.6518  0.3070
  101OSM   C16S10178   3.108   6.209   9.158 -0.4047  0.5968  0.5203
  101OSM   H16S10179   3.004   6.232   9.189 -1.0745  0.4152 -1.3931
  101OSM   H16T10180   3.105   6.098   9.162 -0.1698  0.4461 -1.9079
  101OSM   C17S10181   3.133   6.251   9.013  0.4081 -0.2290 -0.0718
  101OSM   H17S10182   3.241   6.273   9.007  0.2284  0.5363 -0.6880
  101OSM   H17T10183   3.076   6.346   9.009 -2.5564 -1.7726  1.5667
  101OSM   C18S10184   3.090   6.142   8.910 -0.4412 -0.5990 -0.2266
  101OSM   H18S10185   3.093   6.176   8.805 -0.0784  0.7812  0.2166
  101OSM   H18T10186   2.987   6.103   8.927 -1.3563  0.7657 -2.2385
  101OSM   H18U10187   3.165   6.060   8.908  1.7079  1.1418  2.1932
  101OSM    C1F10188   3.676   5.943  10.706  0.2294  0.3852 -0.1480
  101OSM     OF10189   3.632   5.853  10.777  0.5166 -0.3756  0.4462
  101OSM    C2F10190   3.821   5.944  10.672 -0.7259 -0.1965  0.5662
  101OSM    H2F10191   3.892   5.965  10.754  0.8711 -1.0070 -0.5708
  101OSM    H2G10192   3.848   6.016  10.592 -0.5553  0.1571  0.9348
  101OSM    C3F10193   3.852   5.804  10.616  0.7394  0.0033 -0.0006
  101OSM    H3F10194   3.841   5.722  10.689 -1.2846 -0.2825 -0.5894
  101OSM    H3G10195   3.961   5.819  10.595  0.5599  0.3630 -0.6946
  101OSM    C4F10196   3.769   5.762  10.502  0.5832  0.7596  0.1063
  101OSM    H4F10197   3.665   5.744  10.537  0.9438 -0.2567  0.7120
  101OSM    H4G10198   3.813   5.663  10.476  0.3418  0.5706  0.4159
  101OSM    C5F10199   3.793   5.858  10.378  0.2402  1.1728  0.2862
  101OSM    H5F10200   3.904   5.868  10.378  0.5185 -1.0300 -1.1194
  101OSM    H5G10201   3.745   5.955  10.398  1.9497  2.0733  0.2022
  101OSM    C6F10202   3.740   5.800  10.243 -0.1113 -0.0806  0.6825
  101OSM    H6F10203   3.770   5.695  10.225  3.1269  0.7090  0.7817
  101OSM    H6G10204   3.630   5.801  10.250 -0.0875 -0.1304  1.1280
  101OSM    C7F10205   3.770   5.891  10.122 -0.2402 -0.0016  0.6925
  101OSM    H7F10206   3.879   5.907  10.111  0.0353 -1.0948  1.6137
  101OSM    H7G10207   3.724   5.989  10.147 -0.4801 -0.8015  3.8073
  101OSM    C8F10208   3.715   5.828   9.993 -0.3285 -0.1029  0.6809
  101OSM    H8F10209   3.604   5.840   9.986 -0.5495 -1.1666  1.9800
  101OSM    H8G10210   3.729   5.718  10.003  0.9071  0.1117  1.4983
  101OSM    C9F10211   3.785   5.878   9.864  0.4226 -0.1233 -0.9220
  101OSM    H9F10212   3.891   5.897   9.884 -0.2625  0.1819  3.4629
  101OSM   C10F10213   3.737   5.921   9.745  0.9151  0.2853 -0.0488
  101OSM   H10F10214   3.806   5.958   9.668  0.0325 -0.3359 -1.1559
  101OSM   C11F10215   3.589   5.929   9.710 -0.1162 -0.2886  0.0683
  101OSM   H11F10216   3.568   6.031   9.673  0.1037  0.8132  2.7553
  101OSM   H11G10217   3.521   5.912   9.797  0.0597 -1.5303 -0.0139
  101OSM   C12F10218   3.543   5.835   9.597  0.2954 -0.3802 -1.1445
  101OSM   H12F10219   3.433   5.847   9.589  0.2018 -0.0401  0.3806
  101OSM   H12G10220   3.565   5.727   9.611 -1.7778 -0.5481  1.5820
  101OSM   C13F10221   3.603   5.873   9.467 -0.4222  0.4474  0.8479
  101OSM   H13F10222   3.713   5.865   9.479 -0.2416  2.5800  0.9036
  101OSM   H13G10223   3.570   5.976   9.441  1.1403  0.8606  0.3760
  101OSM   C14F10224   3.550   5.783   9.354  0.1143  0.2663  0.2138
  101OSM   H14F10225   3.448   5.748   9.379  0.6719 -2.3503 -0.8667
  101OSM   H14G10226   3.606   5.687   9.352  1.2011  0.8703 -1.9153
  101OSM   C15F10227   3.556   5.839   9.211  0.2170  0.1215 -0.5766
  101OSM   H15F10228   3.658   5.868   9.178 -0.0847  1.2859 -0.5284
  101OSM   H15G10229   3.500   5.934   9.203  1.0212  0.5826 -0.8670
  101OSM   C16F10230   3.485   5.742   9.109  0.3389 -0.5105 -0.1196
  101OSM   H16F10231   3.536   5.644   9.120 -1.3210 -1.4940 -0.9062
  101OSM   H16G10232   3.504   5.784   9.009  0.9440  1.8647  0.9284
  101OSM   C17F10233   3.328   5.731   9.120 -0.9455  0.1973 -0.2163
  101OSM   H17F10234   3.304   5.710   9.226  1.3364 -2.0166 -0.0428
  101OSM   H17G10235   3.296   5.647   9.054 -0.9167 -0.6450  0.8169
  101OSM   C18F10236   3.255   5.846   9.065  0.0545 -0.4629  0.0290
  101OSM   H18F10237   3.147   5.826   9.047 -0.0380 -0.1344  0.2018
  101OSM   H18G10238   3.297   5.875   8.967  2.1548  0.2605  1.0875
  101OSM   H18H10239   3.275   5.938   9.125  1.6690  0.7572 -2.2577
  102OSM      N10240   0.407   0.810  11.173  0.6418  0.7499 -0.3153
  102OSM    C1510241   0.341   0.932  11.216 -1.0559  0.1770 -0.7110
  102OSM   H15A10242   0.262   0.947  11.144 -0.4134  2.8686 -0.9460
  102OSM   H15B10243   0.415   1.010  11.216  1.0738 -1.7431 -1.5917
  102OSM   H15C10244   0.296   0.927  11.314  0.7836  0.5775  0.2079
  102OSM    C1410245   0.528   0.790  11.257 -0.1643 -0.3817  0.2043
  102OSM   H14A10246   0.516   0.774  11.363  1.1987 -0.1367  0.4211
  102OSM   H14B10247   0.596   0.872  11.239 -1.8781  0.9977 -0.3151
  102OSM   H14C10248   0.588   0.708  11.221 -0.5971  0.2069 -2.0472
  102OSM    C1310249   0.313   0.700  11.190 -0.2870 -0.1288  0.2136
  102OSM   H13A10250   0.271   0.684  11.289 -1.8898 -0.1635 -0.4383
  102OSM   H13B10251   0.354   0.603  11.167 -2.7622 -0.8029 -1.8534
  102OSM   H13C10252   0.244   0.707  11.107  0.7037  2.8686 -0.4746
  102OSM    C1210253   0.462   0.818  11.024  0.3273  0.0541  0.2069
  102OSM   H12A10254   0.525   0.731  11.013 -1.8783 -1.9358  2.1346
  102OSM   H12B10255   0.515   0.911  11.016 -2.3630  1.7003  0.1998
  102OSM    C1110256   0.360   0.812  10.907  0.3173  0.0142 -0.1161
  102OSM   H11A10257   0.305   0.717  10.924  1.7597 -0.8349 -0.0529
  102OSM   H11B10258   0.404   0.821  10.806 -2.4502 -0.9303 -1.4862
  102OSM      P10259   0.300   1.071  10.897  0.3076 -0.3544 -0.3169
  102OSM    O1310260   0.182   1.156  10.940 -0.7579  0.2502  0.6775
  102OSM    O1410261   0.425   1.106  10.971  0.6992 -0.2350 -0.7633
  102OSM    O1110262   0.330   1.081  10.737 -0.0234  0.1187 -0.1145
  102OSM    O1210263   0.263   0.918  10.924  0.2629 -0.9607 -0.0754
  102OSM    C1S10264   0.234   1.043  10.639  0.3378 -0.1237  0.5328
  102OSM    H1S10265   0.142   1.103  10.656 -0.8483 -2.2281  2.0078
  102OSM    H1T10266   0.193   0.942  10.659 -0.4040  0.3347  1.4250
  102OSM     NF10267   0.206   1.004  10.385 -0.0911  0.5886 -0.7411
  102OSM    HNF10268   0.236   0.919  10.345  1.5389  0.8852 -0.2078
  102OSM    C2S10269   0.298   1.049  10.493 -0.5165  0.2890 -0.8677
  102OSM    H2S10270   0.325   1.152  10.463  2.9759 -1.0636 -3.0687
  102OSM    C3S10271   0.429   0.970  10.481 -0.5620  0.7491 -1.1616
  102OSM    H3S10272   0.411   0.860  10.481  0.4561  0.5705 -0.5965
  102OSM     O310273   0.529   0.995  10.583 -0.2848 -0.3906 -0.3606
  102OSM    HO310274   0.485   1.029  10.661  2.9131 -0.0869  1.4954
  102OSM    C4S10275   0.479   0.996  10.347  0.5912 -0.9969  0.5000
  102OSM    H4S10276   0.433   0.935  10.268  1.8948 -2.7757  1.0581
  102OSM    C5S10277   0.565   1.096  10.305 -1.3258 -0.0471  0.3379
  102OSM    H5S10278   0.613   1.166  10.375  0.9294  0.2104 -1.3554
  102OSM    C6S10279   0.600   1.132  10.166  0.2395  0.1229  0.0201
  102OSM    H6S10280   0.708   1.125  10.140  0.1381  0.1982 -0.4355
  102OSM    H6T10281   0.580   1.241  10.156 -0.3122 -0.0451 -0.8407
  102OSM    C7S10282   0.514   1.075  10.045 -0.4670  0.6398 -0.2647
  102OSM    H7S10283   0.412   1.094  10.085 -0.5580  2.9753 -1.4442
  102OSM    H7T10284   0.532   0.965  10.041 -0.8373  0.5697 -0.1298
  102OSM    C8S10285   0.534   1.141   9.907 -0.5449  0.9517 -0.5605
  102OSM    H8S10286   0.637   1.151   9.868 -0.6142  0.3842 -0.8996
  102OSM    H8T10287   0.498   1.244   9.927 -1.0442  0.6269  0.2935
  102OSM    C9S10288   0.434   1.085   9.799 -0.0827 -0.2049 -1.0790
  102OSM    H9S10289   0.401   1.175   9.743  0.6666  0.5903 -0.2777
  102OSM    H9T10290   0.340   1.043   9.842  0.7865 -2.7418 -1.4830
  102OSM   C10S10291   0.493   0.993   9.705 -0.5320  0.4702 -0.0291
  102OSM   H10S10292   0.525   0.898   9.752 -0.8488  1.0726  1.4700
  102OSM   H10T10293   0.584   1.042   9.664 -0.6525  1.3473  0.7012
  102OSM   C11S10294   0.399   0.944   9.596 -0.5060 -0.1666  0.0444
  102OSM   H11S10295   0.310   0.908   9.652  1.3064 -1.4906  2.2663
  102OSM   H11T10296   0.444   0.860   9.540 -1.9869  0.5767 -2.4273
  102OSM   C12S10297   0.367   1.054   9.501  0.2483 -1.0296  0.6133
  102OSM   H12S10298   0.449   1.123   9.472 -0.2309 -1.1610 -1.1891
  102OSM   H12T10299   0.294   1.129   9.539  0.6800 -0.6402  0.6858
  102OSM   C13S10300   0.308   0.999   9.374  0.2334 -0.3573  0.0506
  102OSM   H13S10301   0.220   0.934   9.394 -0.7481  0.3889 -1.6223
  102OSM   H13T10302   0.392   0.940   9.330  1.7165  0.0114  2.2163
  102OSM   C14S10303   0.258   1.116   9.291  0.3141  0.3797 -0.2031
  102OSM   H14S10304   0.337   1.194   9.283  0.6646 -0.1419 -3.0415
  102OSM   H14T10305   0.191   1.185   9.346  2.5780  2.0031  0.6898
  102OSM   C15S10306   0.213   1.084   9.152  0.4120 -0.2355  0.7333
  102OSM   H15S10307   0.110   1.043   9.165  0.1629 -0.0396 -0.4735
  102OSM   H15T10308   0.272   0.996   9.118 -1.5011 -1.0739 -0.6545
  102OSM   C16S10309   0.209   1.210   9.055 -0.1098  0.3164  0.3883
  102OSM   H16S10310   0.309   1.252   9.030 -0.2522 -0.2972 -1.3396
  102OSM   H16T10311   0.151   1.289   9.107 -1.2446 -0.7445  0.7938
  102OSM   C17S10312   0.151   1.170   8.915 -0.6507  0.1817 -0.8579
  102OSM   H17S10313   0.130   1.266   8.864  0.2852  1.5363  1.1657
  102OSM   H17T10314   0.057   1.110   8.919 -0.9547  0.6466 -0.9946
  102OSM   C18S10315   0.259   1.095   8.837  1.1058  0.3919  0.6716
  102OSM   H18S10316   0.346   1.163   8.825 -0.3747  2.3154  0.2550
  102OSM   H18T10317   0.214   1.083   8.736  2.2318  1.8066 -0.0285
  102OSM   H18U10318   0.287   0.995   8.875 -2.9325 -1.1177  0.2571
  102OSM    C1F10319   0.086   1.048  10.360  0.1419  0.5376  0.0012
  102OSM     OF10320   0.053   1.149  10.421  0.1623 -0.1253 -0.4860
  102OSM    C2F10321  -0.000   0.964  10.281  0.0726  0.7901 -0.4495
  102OSM    H2F10322  -0.102   0.950  10.323  0.7169  1.6264  1.5365
  102OSM    H2G10323   0.042   0.861  10.282  1.1704  1.2239  0.8311
  102OSM    C3F10324   0.004   1.004  10.130 -0.3771  0.3001 -0.0989
  102OSM    H3F10325  -0.048   0.918  10.083 -0.8485  0.0856  0.7768
  102OSM    H3G10326   0.106   1.012  10.087  0.1482 -0.3330  0.9760
  102OSM    C4F10327  -0.079   1.137  10.105  0.7083 -0.1551 -0.2183
  102OSM    H4F10328  -0.059   1.220  10.175  3.3448 -0.4108 -0.5840
  102OSM    H4G10329  -0.185   1.103  10.107 -0.0484  2.1065  0.5629
  102OSM    C5F10330  -0.061   1.196   9.961  0.1969 -0.2585  0.4891
  102OSM    H5F10331   0.045   1.229   9.956 -0.1074  0.7460  0.5871
  102OSM    H5G10332  -0.126   1.285   9.952  1.1297  0.5506  1.5578
  102OSM    C6F10333  -0.091   1.097   9.845  0.0112  0.6366  0.1076
  102OSM    H6F10334  -0.199   1.072   9.851 -0.0353  0.8970  0.3760
  102OSM    H6G10335  -0.031   1.004   9.854 -0.1315 -0.1581 -4.7625
  102OSM    C7F10336  -0.027   1.146   9.717  0.3744 -0.5899 -0.3899
  102OSM    H7F10337   0.082   1.133   9.734 -0.0198 -0.4493  2.9999
  102OSM    H7G10338  -0.050   1.255   9.722 -2.3619 -1.0777 -0.8733
  102OSM    C8F10339  -0.073   1.084   9.584 -0.1829  1.2456 -0.6665
  102OSM    H8F10340  -0.092   0.977   9.610 -4.3137  2.3600  1.9957
  102OSM    H8G10341   0.018   1.102   9.523  1.9375  0.2927  1.9960
  102OSM    C9F10342  -0.198   1.147   9.536  0.0830  0.0097 -0.5100
  102OSM    H9F10343  -0.264   1.194   9.610 -2.2630  0.1709 -2.5622
  102OSM   C10F10344  -0.234   1.156   9.409  0.6850  0.5302  0.1411
  102OSM   H10F10345  -0.316   1.225   9.385 -0.3237 -1.5338 -2.9608
  102OSM   C11F10346  -0.178   1.095   9.283 -0.7037 -0.0900  0.1411
  102OSM   H11F10347  -0.259   1.027   9.249 -2.4160  3.0537 -2.6729
  102OSM   H11G10348  -0.086   1.038   9.306 -1.5332 -0.3453  3.4043
  102OSM   C12F10349  -0.159   1.203   9.168 -1.1400 -0.3988  0.5058
  102OSM   H12F10350  -0.073   1.179   9.102  0.1880  0.1406  1.9723
  102OSM   H12G10351  -0.133   1.301   9.214  0.6773 -0.9417  0.6986
  102OSM   C13F10352  -0.291   1.228   9.094 -0.0031  0.5678  0.2535
  102OSM   H13F10353  -0.375   1.242   9.165  1.5562  0.9404  2.1097
  102OSM   H13G10354  -0.317   1.133   9.043  1.7521 -0.0382  0.4269
  102OSM   C14F10355  -0.279   1.326   8.977  1.2382 -0.6189  0.4394
  102OSM   H14F10356  -0.207   1.278   8.907 -0.4424 -1.4769 -0.7929
  102OSM   H14G10357  -0.236   1.423   9.009 -2.0493  1.3539 -0.6937
  102OSM   C15F10358  -0.416   1.354   8.899  0.3881  0.2131  0.1670
  102OSM   H15F10359  -0.380   1.408   8.809  0.5142  0.8511  0.5985
  102OSM   H15G10360  -0.465   1.434   8.959 -0.5367 -0.0411 -0.2230
  102OSM   C16F10361  -0.503   1.237   8.863 -0.7258  0.3564 -0.4445
  102OSM   H16F10362  -0.529   1.184   8.957 -0.8294 -1.6330 -1.5297
  102OSM   H16G10363  -0.442   1.173   8.795 -2.4196 -0.6753 -1.0676
  102OSM   C17F10364  -0.629   1.274   8.787  0.3425 -0.3759 -0.3256
  102OSM   H17F10365  -0.678   1.177   8.763  0.7948 -0.9322  0.9004
  102OSM   H17G10366  -0.603   1.320   8.690 -0.3006 -0.8775 -0.7407
  102OSM   C18F10367  -0.722   1.366   8.873  0.6558  0.9247 -0.1343
  102OSM   H18F10368  -0.817   1.383   8.818 -0.0900  0.7274  1.0333
  102OSM   H18G10369  -0.679   1.467   8.887  0.9708  0.8607 -0.6455
  102OSM   H18H10370  -0.743   1.315   8.970  1.5352 -1.2103 -1.0045
  103OSM      N10371   4.898   3.777  11.313 -0.0672 -0.4849 -1.1215
  103OSM    C1510372   4.977   3.902  11.334  0.0935 -0.4723 -0.2047
  103OSM   H15A10373   5.002   3.922  11.437  0.5339 -0.7789 -0.2443
  103OSM   H15B10374   4.913   3.980  11.298  1.7196  1.2097  0.3851
  103OSM   H15C10375   5.070   3.896  11.278  0.2447 -0.3414  0.0313
  103OSM    C1410376   4.771   3.789  11.397  0.8400  0.5102  1.0042
  103OSM   H14A10377   4.728   3.692  11.374  0.0899  1.1026 -0.1713
  103OSM   H14B10378   4.708   3.870  11.363 -1.1057 -0.0020  3.1305
  103OSM   H14C10379   4.796   3.794  11.502 -1.7343 -0.2254  1.7433
  103OSM    C1310380   4.871   3.758  11.167 -0.4046  0.0293  0.2147
  103OSM   H13A10381   4.966   3.732  11.123  0.4131  1.6643  0.9263
  103OSM   H13B10382   4.838   3.853  11.128 -0.2716  0.0971  0.2691
  103OSM   H13C10383   4.790   3.690  11.141 -0.1122 -0.5873  0.8736
  103OSM    C1210384   4.990   3.663  11.364  0.4032 -0.1416  0.0111
  103OSM   H12A10385   4.939   3.568  11.355  1.9142 -1.2175  2.0233
  103OSM   H12B10386   5.014   3.673  11.469  0.6453 -1.4388  0.0931
  103OSM    C1110387   5.122   3.636  11.295  0.2472 -0.3531  0.2022
  103OSM   H11A10388   5.178   3.559  11.352  1.5359 -0.8252 -1.5888
  103OSM   H11B10389   5.183   3.728  11.304  2.8882 -1.9504 -0.0890
  103OSM      P10390   5.067   3.457  11.112  0.2185  0.1017  0.0388
  103OSM    O1310391   5.188   3.387  11.079  0.4807  0.4523 -0.0212
  103OSM    O1410392   4.970   3.393  11.211 -0.4010 -0.7600 -0.4087
  103OSM    O1110393   4.984   3.476  10.971 -0.1766  0.0551  0.1516
  103OSM    O1210394   5.112   3.610  11.158  0.6280  0.1572  0.0360
  103OSM    C1S10395   5.038   3.579  10.892  0.3430  0.2897  0.2188
  103OSM    H1S10396   5.148   3.570  10.882  0.2531 -0.4002 -0.2502
  103OSM    H1T10397   5.015   3.682  10.927 -1.2293  0.3060 -0.7533
  103OSM     NF10398   5.034   3.663  10.658 -0.1118  0.5660 -0.4485
  103OSM    HNF10399   4.972   3.737  10.636 -0.5328  0.2142 -0.4648
  103OSM    C2S10400   4.980   3.558  10.750 -0.2884 -0.0194 -0.4443
  103OSM    H2S10401   5.018   3.458  10.720  1.4916 -0.0803  1.7469
  103OSM    C3S10402   4.826   3.570  10.747 -1.0211  0.1277  0.0818
  103OSM    H3S10403   4.794   3.674  10.765  0.2471  0.5157  0.1957
  103OSM     O310404   4.758   3.484  10.835  0.2584  0.0985  0.1557
  103OSM    HO310405   4.826   3.452  10.895  1.8630  3.3045  0.3218
  103OSM    C4S10406   4.785   3.530  10.602  0.2904 -0.5526  0.8526
  103OSM    H4S10407   4.855   3.459  10.554 -0.4186 -0.4813 -0.3334
  103OSM    C5S10408   4.668   3.567  10.543  0.6039  0.2139  0.8303
  103OSM    H5S10409   4.594   3.621  10.603  0.0209 -0.7476  0.9962
  103OSM    C6S10410   4.637   3.536  10.393  0.0029  0.7796 -0.6041
  103OSM    H6S10411   4.530   3.513  10.378 -1.0231  3.3565  2.0367
  103OSM    H6T10412   4.695   3.450  10.352 -0.4354  1.4034 -2.6337
  103OSM    C7S10413   4.673   3.654  10.307  0.7322 -0.7281  0.1115
  103OSM    H7S10414   4.782   3.674  10.313  0.7116 -0.4252 -0.4807
  103OSM    H7T10415   4.618   3.744  10.343  0.5324 -0.4242 -0.9129
  103OSM    C8S10416   4.624   3.637  10.158 -0.3668  1.1103 -0.1893
  103OSM    H8S10417   4.519   3.599  10.153 -0.9559  2.3193  1.9235
  103OSM    H8T10418   4.686   3.559  10.109 -1.1761 -0.5141  1.2412
  103OSM    C9S10419   4.633   3.762  10.077  0.0233 -0.8594 -0.4695
  103OSM    H9S10420   4.734   3.808  10.080  0.0123 -0.9068  1.8713
  103OSM    H9T10421   4.557   3.837  10.108  0.5040 -0.3355 -0.5467
  103OSM   C10S10422   4.609   3.719   9.931 -0.8363 -0.5064  0.2053
  103OSM   H10S10423   4.690   3.652   9.895  0.2553  0.0644  1.4942
  103OSM   H10T10424   4.616   3.823   9.891 -0.5801  0.6344  3.0175
  103OSM   C11S10425   4.465   3.664   9.911 -0.1560 -0.0261 -0.7803
  103OSM   H11S10426   4.401   3.729   9.974 -1.0543 -0.8929 -0.7720
  103OSM   H11T10427   4.439   3.562   9.946  0.3473 -0.0493 -0.4707
  103OSM   C12S10428   4.430   3.685   9.761  0.3755  0.2267  0.5229
  103OSM   H12S10429   4.499   3.621   9.702 -0.7179 -1.9591  1.5022
  103OSM   H12T10430   4.449   3.791   9.734  0.3614  0.0158 -0.3429
  103OSM   C13S10431   4.288   3.629   9.732  0.0231  0.4761 -0.3231
  103OSM   H13S10432   4.212   3.657   9.809 -0.6971 -2.0817 -0.0213
  103OSM   H13T10433   4.284   3.518   9.732  0.7695  0.2891 -4.5281
  103OSM   C14S10434   4.235   3.677   9.600  0.6457 -0.1398  0.2919
  103OSM   H14S10435   4.295   3.644   9.512 -1.4915  1.7453 -2.0643
  103OSM   H14T10436   4.228   3.788   9.603  1.2569 -0.0697 -0.4004
  103OSM   C15S10437   4.084   3.634   9.589 -0.4809 -0.1364 -0.1884
  103OSM   H15S10438   4.017   3.672   9.669 -0.7484 -0.3185 -0.3243
  103OSM   H15T10439   4.064   3.524   9.594 -0.2633 -0.2854 -2.0198
  103OSM   C16S10440   4.032   3.670   9.449 -0.5358  0.3074  0.2359
  103OSM   H16S10441   4.097   3.621   9.373 -0.7160  0.7286 -0.1956
  103OSM   H16T10442   4.043   3.779   9.429  1.9259 -0.1325 -1.1672
  103OSM   C17S10443   3.890   3.634   9.414 -0.1749  0.7062 -0.2440
  103OSM   H17S10444   3.829   3.640   9.507 -0.7324  0.7157 -0.6058
  103OSM   H17T10445   3.889   3.529   9.380  0.5513  0.2495  1.0714
  103OSM   C18S10446   3.832   3.737   9.316 -0.1037 -1.0900 -0.2159
  103OSM   H18S10447   3.896   3.738   9.225 -0.9169  0.5959 -0.8088
  103OSM   H18T10448   3.840   3.840   9.356  1.7304 -0.5385 -1.8257
  103OSM   H18U10449   3.726   3.715   9.292  0.0954 -0.5209 -1.7307
  103OSM    C1F10450   5.151   3.654  10.607 -0.9006 -0.4068 -0.1792
  103OSM     OF10451   5.215   3.554  10.620  0.1889  0.9239  0.5894
  103OSM    C2F10452   5.202   3.772  10.525  0.6608 -0.1230 -0.2189
  103OSM    H2F10453   5.175   3.855  10.594 -0.6995 -1.5468  1.0537
  103OSM    H2G10454   5.146   3.784  10.430  1.6769  0.2930 -0.7832
  103OSM    C3F10455   5.356   3.782  10.497 -0.5027 -0.3833 -0.6044
  103OSM    H3F10456   5.400   3.691  10.451 -0.2615  0.1114 -1.3662
  103OSM    H3G10457   5.406   3.802  10.594 -1.6674 -0.5922  0.0719
  103OSM    C4F10458   5.398   3.908  10.415  0.5147 -0.0273 -0.4731
  103OSM    H4F10459   5.508   3.903  10.399  0.7907 -3.9769  1.6300
  103OSM    H4G10460   5.377   3.996  10.480 -0.4331 -0.4891 -0.1301
  103OSM    C5F10461   5.315   3.926  10.285  0.5289  0.3972  0.3675
  103OSM    H5F10462   5.327   4.026  10.240  1.6957 -0.9969 -2.7490
  103OSM    H5G10463   5.205   3.913  10.296  0.3211  1.0076 -0.7496
  103OSM    C6F10464   5.364   3.828  10.168  0.0756 -0.3804 -0.2511
  103OSM    H6F10465   5.340   3.723  10.195  2.8793 -0.8968  0.5870
  103OSM    H6G10466   5.474   3.822  10.152  0.3320 -0.9613  1.5371
  103OSM    C7F10467   5.286   3.862  10.039  0.2320 -0.4604  0.3709
  103OSM    H7F10468   5.179   3.878  10.065  0.3814  1.0874  0.1758
  103OSM    H7G10469   5.289   3.773   9.974  1.1335 -1.2306  1.4340
  103OSM    C8F10470   5.345   3.979   9.955  0.7445  0.6324  0.2721
  103OSM    H8F10471   5.444   3.942   9.920  0.2838  0.8048 -1.2832
  103OSM    H8G10472   5.362   4.074  10.010 -0.9000  0.8016  0.5448
  103OSM    C9F10473   5.263   4.004   9.830 -0.7459  0.0830  1.0318
  103OSM    H9F10474   5.153   3.994   9.839 -0.6933 -1.4714  0.3294
  103OSM   C10F10475   5.313   4.024   9.708 -0.2590 -0.0484  0.7389
  103OSM   H10F10476   5.240   4.036   9.626  1.4818  1.9403 -0.6253
  103OSM   C11F10477   5.461   4.032   9.665 -0.5257  0.2444 -0.4031
  103OSM   H11F10478   5.491   3.945   9.603  0.1274  0.4370 -0.3621
  103OSM   H11G10479   5.528   4.026   9.753 -0.6158  0.4510 -0.3194
  103OSM   C12F10480   5.501   4.171   9.599  0.2740  0.9679  0.1125
  103OSM   H12F10481   5.611   4.173   9.613  0.0094  0.4418  2.9227
  103OSM   H12G10482   5.469   4.254   9.667  3.9430  2.3133  0.3867
  103OSM   C13F10483   5.461   4.189   9.450  0.1279 -0.6562 -0.0474
  103OSM   H13F10484   5.468   4.296   9.423 -1.8520  0.1686  2.2871
  103OSM   H13G10485   5.361   4.148   9.425  0.6932 -1.2963 -1.3260
  103OSM   C14F10486   5.554   4.106   9.359  0.6846  0.4733  0.0503
  103OSM   H14F10487   5.533   4.001   9.388 -1.7879  1.0633  0.7007
  103OSM   H14G10488   5.661   4.135   9.366  0.8351 -0.3750  2.0205
  103OSM   C15F10489   5.529   4.144   9.208 -0.0984  0.8446  0.7217
  103OSM   H15F10490   5.422   4.134   9.183 -0.0875  0.4141  0.8293
  103OSM   H15G10491   5.593   4.062   9.168  1.2936  0.2945  3.7350
  103OSM   C16F10492   5.589   4.279   9.169  0.4761  0.0998 -0.2362
  103OSM   H16F10493   5.691   4.286   9.213 -0.6680  0.2010  2.5929
  103OSM   H16G10494   5.533   4.358   9.223 -2.4231 -2.0228  0.0942
  103OSM   C17F10495   5.585   4.314   9.021  0.1152  0.0778  0.6106
  103OSM   H17F10496   5.476   4.304   8.999 -0.1630  0.9497  1.4835
  103OSM   H17G10497   5.648   4.235   8.976 -1.3657 -0.9607  0.2746
  103OSM   C18F10498   5.623   4.453   8.984  0.0734 -0.4482 -0.2044
  103OSM   H18F10499   5.733   4.450   9.002  0.1939 -0.2547 -0.8874
  103OSM   H18G10500   5.590   4.535   9.052 -0.8646  0.5718 -1.8278
  103OSM   H18H10501   5.603   4.478   8.878  0.8117  0.2971 -0.1790
  104OSM      N10502   6.281   2.148  10.941  0.0179  0.3854 -0.1570
  104OSM    C1510503   6.249   2.073  10.815 -0.2311  0.3418  0.0593
  104OSM   H15A10504   6.184   1.991  10.841 -1.6073  0.5892 -2.3180
  104OSM   H15B10505   6.334   2.043  10.755 -0.2980  1.2305 -0.5020
  104OSM   H15C10506   6.192   2.133  10.745  1.3047 -0.3263 -1.8655
  104OSM    C1410507   6.165   2.208  11.012  0.1833 -0.3741 -0.0241
  104OSM   H14A10508   6.116   2.292  10.964 -1.2499 -0.8148  0.6244
  104OSM   H14B10509   6.205   2.253  11.102 -0.0344 -0.8553  0.3129
  104OSM   H14C10510   6.096   2.129  11.037  0.7451 -1.0527 -0.5889
  104OSM    C1310511   6.332   2.043  11.038  0.5153  0.4457 -0.7049
  104OSM   H13A10512   6.417   1.995  10.991  1.7026  0.1476  1.6005
  104OSM   H13B10513   6.257   1.970  11.066  1.6922 -0.4310  0.3024
  104OSM   H13C10514   6.382   2.088  11.123 -1.4035  2.4861 -0.5600
  104OSM    C1210515   6.385   2.260  10.921 -0.6402 -0.2921  0.0893
  104OSM   H12A10516   6.396   2.312  11.015 -1.6566  0.8093 -0.3821
  104OSM   H12B10517   6.344   2.341  10.862 -0.4495  1.2600  1.9731
  104OSM    C1110518   6.523   2.206  10.881  0.3055  0.1004 -0.3001
  104OSM   H11A10519   6.586   2.297  10.896 -2.4324  2.1911 -0.5989
  104OSM   H11B10520   6.516   2.175  10.775 -0.1137 -1.6455  0.2097
  104OSM      P10521   6.726   2.082  10.987 -0.2281  0.2196  0.0605
  104OSM    O1310522   6.788   2.202  11.051 -0.0936 -0.1803 -0.0953
  104OSM    O1410523   6.732   1.959  11.070 -0.9988  0.5878 -0.2586
  104OSM    O1110524   6.781   2.058  10.847  0.0780  0.0646  0.3588
  104OSM    O1210525   6.574   2.107  10.969  0.0733  0.7026  0.0881
  104OSM    C1S10526   6.721   1.961  10.758 -0.7288  0.2338 -0.0845
  104OSM    H1S10527   6.617   1.934  10.785 -0.5780  0.2593  0.5581
  104OSM    H1T10528   6.786   1.871  10.768 -0.5792  0.3094 -0.3727
  104OSM     NF10529   6.656   1.899  10.524  0.0077  0.4111  0.7139
  104OSM    HNF10530   6.724   1.846  10.475  0.2962  1.1028  0.3620
  104OSM    C2S10531   6.711   2.009  10.607 -0.5615 -0.5477 -0.2816
  104OSM    H2S10532   6.636   2.091  10.604 -1.0884 -0.8614  2.3495
  104OSM    C3S10533   6.840   2.074  10.558 -0.3957 -0.5656 -0.0897
  104OSM    H3S10534   6.909   1.988  10.542  0.5943  0.6705 -3.3511
  104OSM     O310535   6.892   2.180  10.642 -0.5999 -0.2025  0.4016
  104OSM    HO310536   6.863   2.159  10.731  1.3750 -0.2953  1.0629
  104OSM    C4S10537   6.825   2.139  10.425  0.5572  0.1140  0.4662
  104OSM    H4S10538   6.749   2.218  10.430  0.1408 -0.2045 -0.4936
  104OSM    C5S10539   6.899   2.106  10.320  0.2133  0.0075 -0.2527
  104OSM    H5S10540   6.991   2.046  10.335  0.8294  0.9414 -0.1895
  104OSM    C6S10541   6.889   2.174  10.184 -0.7560  0.1877  0.4961
  104OSM    H6S10542   6.985   2.224  10.161 -1.0331  0.7224  0.4835
  104OSM    H6T10543   6.810   2.251  10.169 -0.6999  0.0548 -0.5580
  104OSM    C7S10544   6.868   2.083  10.058  0.2611  0.0345  0.3151
  104OSM    H7S10545   6.772   2.028  10.059  0.2685  0.0260  1.2913
  104OSM    H7T10546   6.948   2.007  10.068  0.9067  0.3653 -1.7796
  104OSM    C8S10547   6.878   2.146   9.915  0.7630  0.0774  0.2831
  104OSM    H8S10548   6.973   2.201   9.897  0.7029 -0.3737 -1.5676
  104OSM    H8T10549   6.804   2.225   9.891  1.3183 -0.3685 -3.5328
  104OSM    C9S10550   6.858   2.033   9.798  0.2904  0.0022 -0.0564
  104OSM    H9S10551   6.749   2.009   9.799 -0.3074  2.3846 -1.4436
  104OSM    H9T10552   6.922   1.943   9.814  1.0644  0.8577  1.9706
  104OSM   C10S10553   6.868   2.083   9.653 -0.9127 -0.9022 -0.5849
  104OSM   H10S10554   6.968   2.129   9.636 -0.8520 -1.3287 -1.4272
  104OSM   H10T10555   6.799   2.166   9.626 -0.1411  1.0952  2.8897
  104OSM   C11S10556   6.847   1.965   9.562 -0.1592 -0.0915  0.0509
  104OSM   H11S10557   6.746   1.925   9.586 -0.7487  1.5144  0.3314
  104OSM   H11T10558   6.922   1.884   9.575  0.3652  0.4301  0.3154
  104OSM   C12S10559   6.831   2.007   9.417  0.5795  0.6192  0.4699
  104OSM   H12S10560   6.917   1.960   9.364  0.1652 -1.4719  1.5343
  104OSM   H12T10561   6.831   2.118   9.413 -0.0625  0.5791 -1.8405
  104OSM   C13S10562   6.696   1.956   9.366 -0.4224 -0.2617  0.1704
  104OSM   H13S10563   6.609   1.991   9.426 -0.2981 -0.4365  0.4535
  104OSM   H13T10564   6.691   1.845   9.370 -0.7183 -0.2109  1.8061
  104OSM   C14S10565   6.673   1.988   9.222  0.4037 -0.7331  0.6166
  104OSM   H14S10566   6.709   2.092   9.205  0.2057 -0.5242  1.4253
  104OSM   H14T10567   6.567   1.983   9.190  0.2590  1.7207  0.5083
  104OSM   C15S10568   6.757   1.916   9.110  0.2214 -0.4920 -0.0962
  104OSM   H15S10569   6.703   1.820   9.095  1.7210 -1.2243 -1.1231
  104OSM   H15T10570   6.859   1.886   9.144  0.4473  0.3697  0.0103
  104OSM   C16S10571   6.774   1.995   8.975  0.2843 -0.3251  0.1117
  104OSM   H16S10572   6.832   2.089   8.987  1.2917 -1.0954  1.5307
  104OSM   H16T10573   6.674   2.008   8.929  1.6179 -0.3678 -3.0416
  104OSM   C17S10574   6.846   1.921   8.862 -0.1597  0.4367  0.9559
  104OSM   H17S10575   6.792   1.824   8.856 -0.9052  0.8533  0.8309
  104OSM   H17T10576   6.949   1.902   8.900 -0.2737 -1.3780  0.4641
  104OSM   C18S10577   6.854   1.992   8.725  0.2825 -0.0593  0.8872
  104OSM   H18S10578   6.760   2.025   8.675  0.3079 -0.9925  0.2032
  104OSM   H18T10579   6.917   1.929   8.659  0.4661  1.3232 -0.2999
  104OSM   H18U10580   6.911   2.087   8.732 -1.4722  0.9929  1.6100
  104OSM    C1F10581   6.525   1.860  10.540 -0.3089 -0.7511 -0.0438
  104OSM     OF10582   6.444   1.913  10.612  0.6583 -0.8034  0.2689
  104OSM    C2F10583   6.479   1.740  10.459 -0.6265 -0.5424 -0.5854
  104OSM    H2F10584   6.375   1.716  10.489 -0.4138 -0.5081  0.1845
  104OSM    H2G10585   6.543   1.653  10.486 -0.7655 -0.0235  1.5775
  104OSM    C3F10586   6.490   1.777  10.305  0.3568  0.9486 -0.2401
  104OSM    H3F10587   6.469   1.684  10.247  1.4594  1.5409 -1.6522
  104OSM    H3G10588   6.593   1.803  10.275 -0.0149  0.9793 -1.5782
  104OSM    C4F10589   6.400   1.894  10.269  0.4098  0.1915 -0.1440
  104OSM    H4F10590   6.395   1.974  10.346 -0.6883 -1.1070  1.2055
  104OSM    H4G10591   6.296   1.856  10.275  1.1665 -2.0961 -0.5935
  104OSM    C5F10592   6.419   1.951  10.132  0.0900  0.4050  0.1172
  104OSM    H5F10593   6.518   1.993  10.105  0.8829 -0.1541  2.0153
  104OSM    H5G10594   6.346   2.034  10.122 -3.6645 -2.3995  1.8278
  104OSM    C6F10595   6.375   1.852  10.016 -0.0381 -0.1916 -0.1394
  104OSM    H6F10596   6.267   1.835  10.035 -0.3089  0.0697 -1.3648
  104OSM    H6G10597   6.437   1.760  10.014 -0.2583 -0.3366 -0.2876
  104OSM    C7F10598   6.402   1.916   9.876 -0.4049 -0.2229  0.6333
  104OSM    H7F10599   6.509   1.945   9.878 -0.3336 -0.4947  0.9461
  104OSM    H7G10600   6.346   2.011   9.868  2.0754  1.2510 -0.3435
  104OSM    C8F10601   6.373   1.832   9.754 -0.2488  0.0840 -0.4520
  104OSM    H8F10602   6.265   1.808   9.762 -0.1632 -1.2797 -2.6111
  104OSM    H8G10603   6.434   1.740   9.767 -0.0551  0.0105 -1.7680
  104OSM    C9F10604   6.410   1.896   9.617  0.2667  0.1943  0.3664
  104OSM    H9F10605   6.510   1.868   9.581 -0.1151 -0.3557 -0.3029
  104OSM   C10F10606   6.330   1.979   9.541  0.4677  0.9868  0.0998
  104OSM   H10F10607   6.367   2.017   9.444  0.8352 -0.5473 -0.3941
  104OSM   C11F10608   6.186   2.034   9.572 -0.1965  0.1208  0.3503
  104OSM   H11F10609   6.199   2.138   9.608  0.5530 -0.1234  0.8076
  104OSM   H11G10610   6.130   1.986   9.655 -2.7739  0.5515 -1.0449
  104OSM   C12F10611   6.095   2.021   9.451  0.1567 -0.5747 -0.9149
  104OSM   H12F10612   6.058   1.917   9.452 -0.1656 -0.4744  0.4982
  104OSM   H12G10613   6.143   2.038   9.353  3.1327  1.8645  0.7552
  104OSM   C13F10614   5.974   2.122   9.446  0.4113  0.6810 -0.0089
  104OSM   H13F10615   5.928   2.139   9.546 -0.4264  2.6739 -0.6871
  104OSM   H13G10616   5.893   2.079   9.383 -0.5986  0.5743  1.3070
  104OSM   C14F10617   6.011   2.263   9.409  0.4473  0.0475  0.4092
  104OSM   H14F10618   6.096   2.298   9.470 -0.0963  0.5825  0.8703
  104OSM   H14G10619   5.922   2.325   9.432  0.7574 -0.1701  2.3161
  104OSM   C15F10620   6.047   2.277   9.256  0.2874 -0.4040  0.9404
  104OSM   H15F10621   6.050   2.170   9.224  2.0323  0.1510 -0.9811
  104OSM   H15G10622   6.144   2.325   9.234  1.1843 -1.1432  3.0178
  104OSM   C16F10623   5.937   2.342   9.181 -0.2570 -0.1288 -0.3680
  104OSM   H16F10624   5.945   2.453   9.182  0.7852 -0.1860  1.1075
  104OSM   H16G10625   5.848   2.312   9.240  0.3674 -1.1768  0.0702
  104OSM   C17F10626   5.918   2.311   9.034  0.1138  0.6389 -0.1351
  104OSM   H17F10627   5.918   2.203   9.007 -0.3195  1.0970 -2.1537
  104OSM   H17G10628   6.013   2.346   8.990  1.7708 -1.6658  1.3859
  104OSM   C18F10629   5.798   2.376   8.969 -0.3914 -1.1438  0.1006
  104OSM   H18F10630   5.760   2.329   8.875 -3.0547 -1.3794  1.2087
  104OSM   H18G10631   5.827   2.479   8.941  0.3352 -1.6601 -1.1370
  104OSM   H18H10632   5.721   2.383   9.048 -1.6000  0.0052 -1.1363
  105OSM      N10633   2.323   6.361  11.110 -0.2956  0.0107  0.2294
  105OSM    C1510634   2.258   6.312  10.982 -0.0608 -0.1652 -0.2817
  105OSM   H15A10635   2.162   6.272  11.009 -0.4436  0.7968 -0.1668
  105OSM   H15B10636   2.318   6.243  10.925 -1.0173 -1.3611  0.1267
  105OSM   H15C10637   2.242   6.397  10.916 -0.1131  1.1077  1.3040
  105OSM    C1410638   2.240   6.454  11.200  0.0830 -0.5449 -0.2882
  105OSM   H14A10639   2.214   6.542  11.143  1.4911  0.4206  0.4900
  105OSM   H14B10640   2.302   6.498  11.277  2.2379 -1.0742 -1.6254
  105OSM   H14C10641   2.151   6.407  11.238  0.7145 -0.9073  0.7749
  105OSM    C1310642   2.362   6.251  11.198  0.0103  0.4407 -0.1917
  105OSM   H13A10643   2.412   6.281  11.289 -0.0212 -2.5093  0.9093
  105OSM   H13B10644   2.434   6.186  11.151  1.6515  3.2162 -1.7981
  105OSM   H13C10645   2.282   6.184  11.223  0.1192  0.5425  0.4700
  105OSM    C1210646   2.450   6.432  11.074  0.3170 -0.0618 -0.6063
  105OSM   H12A10647   2.512   6.442  11.162  0.7736 -0.0207 -0.9275
  105OSM   H12B10648   2.416   6.529  11.040 -0.9451 -0.6723 -1.1424
  105OSM    C1110649   2.549   6.364  10.968  0.6678 -0.5775 -0.4921
  105OSM   H11A10650   2.620   6.447  10.944 -1.6700  1.9290  0.6980
  105OSM   H11B10651   2.502   6.342  10.870 -0.1636  0.8202 -0.4471
  105OSM      P10652   2.740   6.253  11.104 -0.3029 -0.3781  0.1677
  105OSM    O1310653   2.736   6.366  11.201  0.5528  0.5973  0.4133
  105OSM    O1410654   2.761   6.124  11.166  0.3829  0.2330  0.0879
  105OSM    O1110655   2.843   6.296  10.994  0.5399  0.2415  0.7485
  105OSM    O1210656   2.602   6.245  11.019 -0.0422 -0.0102 -0.1961
  105OSM    C1S10657   2.869   6.196  10.891 -0.4049 -0.1344  0.4852
  105OSM    H1S10658   2.795   6.113  10.885 -0.3344 -0.1002 -1.0617
  105OSM    H1T10659   2.961   6.144  10.924 -0.7239 -0.5600  0.7041
  105OSM     NF10660   2.908   6.177  10.646  0.4568  0.4848 -0.3539
  105OSM    HNF10661   2.993   6.145  10.605 -0.4297 -1.0119 -1.1052
  105OSM    C2S10662   2.889   6.269  10.752  0.3837 -0.2736 -0.1459
  105OSM    H2S10663   2.800   6.333  10.733  0.0700 -0.4077  0.7991
  105OSM    C3S10664   3.006   6.374  10.755 -0.1337  0.7609  0.4977
  105OSM    H3S10665   3.102   6.338  10.799  1.0397  2.8869 -0.1700
  105OSM     O310666   2.978   6.469  10.852 -0.1630 -0.3775  1.0208
  105OSM    HO310667   2.909   6.426  10.904  0.9701 -1.2376  1.8594
  105OSM    C4S10668   3.033   6.445  10.623 -0.3809 -0.2460  0.1582
  105OSM    H4S10669   2.946   6.498  10.583  0.8360  0.2282 -1.9836
  105OSM    C5S10670   3.150   6.440  10.554  0.7039 -0.7156  0.2354
  105OSM    H5S10671   3.238   6.387  10.593  1.1326 -0.0974  0.1310
  105OSM    C6S10672   3.159   6.514  10.424 -0.6568  0.4563  0.2208
  105OSM    H6S10673   3.213   6.610  10.439 -1.8354  0.8223  2.8014
  105OSM    H6T10674   3.061   6.541  10.379 -1.3499  0.7424  1.8285
  105OSM    C7S10675   3.235   6.421  10.326 -0.1858  0.1478 -0.0267
  105OSM    H7S10676   3.181   6.324  10.318  0.2052 -0.1115  0.4068
  105OSM    H7T10677   3.327   6.385  10.376  0.6304  0.7274 -1.0601
  105OSM    C8S10678   3.260   6.478  10.179 -0.0915 -0.0472 -0.0441
  105OSM    H8S10679   3.285   6.586  10.185 -3.4806  0.8327  0.3722
  105OSM    H8T10680   3.156   6.480  10.141 -0.7581 -0.2580  1.6521
  105OSM    C9S10681   3.347   6.389  10.089 -0.4646 -0.5917  0.2330
  105OSM    H9S10682   3.320   6.422   9.986 -0.1009  0.6481  0.5194
  105OSM    H9T10683   3.319   6.282  10.097  1.1769 -0.9898  0.9861
  105OSM   C10S10684   3.497   6.395  10.128 -0.3886 -0.2721  0.1267
  105OSM   H10S10685   3.497   6.383  10.239 -0.5273  0.7959  0.2511
  105OSM   H10T10686   3.538   6.495  10.103  0.5394 -0.4754  0.7942
  105OSM   C11S10687   3.580   6.280  10.057  0.2484 -0.1147 -0.0350
  105OSM   H11S10688   3.531   6.276   9.958 -0.6660  1.9221  0.2810
  105OSM   H11T10689   3.582   6.187  10.117 -1.5147  0.6612  1.3240
  105OSM   C12S10690   3.730   6.325  10.043 -0.1832  0.3236 -0.3579
  105OSM   H12S10691   3.739   6.420   9.986  0.8837 -0.7023 -2.0065
  105OSM   H12T10692   3.783   6.246   9.986  0.1079  0.2095  0.0660
  105OSM   C13S10693   3.803   6.348  10.176  0.0901  0.8825 -0.3044
  105OSM   H13S10694   3.794   6.262  10.245  1.3993  0.3713 -0.7474
  105OSM   H13T10695   3.757   6.440  10.218  2.9926  1.2361  2.4575
  105OSM   C14S10696   3.948   6.389  10.163 -0.2205 -0.5495 -0.7526
  105OSM   H14S10697   3.955   6.460  10.078 -2.6457  2.0990  1.0787
  105OSM   H14T10698   4.010   6.299  10.142 -1.2773 -1.0647 -1.7670
  105OSM   C15S10699   3.994   6.482  10.280 -0.2449 -0.3381 -0.7265
  105OSM   H15S10700   3.990   6.441  10.384 -1.6136  1.4427 -0.0025
  105OSM   H15T10701   3.927   6.571  10.284  0.3859  0.1148  0.0404
  105OSM   C16S10702   4.137   6.527  10.255 -0.7321  0.1541 -0.6133
  105OSM   H16S10703   4.139   6.580  10.158 -0.9542  0.5958 -0.3778
  105OSM   H16T10704   4.205   6.439  10.246 -2.2784 -0.9717 -2.1133
  105OSM   C17S10705   4.191   6.624  10.364  0.2033 -0.0865  0.1794
  105OSM   H17S10706   4.297   6.644  10.341 -0.1217  0.2237 -1.1611
  105OSM   H17T10707   4.174   6.583  10.465 -1.5803 -1.4149 -0.5982
  105OSM   C18S10708   4.121   6.754  10.343 -0.5428 -0.0410  0.9417
  105OSM   H18S10709   4.179   6.832  10.394  1.9007  0.3201 -2.0715
  105OSM   H18T10710   4.011   6.755  10.360 -1.0639 -0.1134 -1.9180
  105OSM   H18U10711   4.142   6.774  10.235  1.3667 -1.9665  0.8760
  105OSM    C1F10712   2.817   6.089  10.605  0.0529  0.0999 -0.3915
  105OSM     OF10713   2.709   6.089  10.657 -0.1589  0.1582 -0.4586
  105OSM    C2F10714   2.857   6.002  10.482 -0.1090 -0.1354  0.5263
  105OSM    H2F10715   2.831   5.895  10.496 -1.2694  0.2237  1.2324
  105OSM    H2G10716   2.968   6.003  10.477 -0.1518 -0.6157 -2.1464
  105OSM    C3F10717   2.795   6.059  10.352 -0.1559 -0.5083 -0.7875
  105OSM    H3F10718   2.690   6.084  10.380  0.1134  1.0602 -1.0917
  105OSM    H3G10719   2.792   5.981  10.272  0.2828 -0.2695 -1.0395
  105OSM    C4F10720   2.873   6.189  10.302  1.0634  0.1787  0.0956
  105OSM    H4F10721   2.982   6.169  10.309  0.6045 -2.0847  1.9078
  105OSM    H4G10722   2.841   6.278  10.360 -1.0711  1.1949 -2.4206
  105OSM    C5F10723   2.833   6.220  10.160 -0.7759 -0.8994 -0.1070
  105OSM    H5F10724   2.726   6.251  10.156 -0.6778 -0.4045  0.8000
  105OSM    H5G10725   2.853   6.133  10.094  4.0782 -0.5691  0.5997
  105OSM    C6F10726   2.907   6.343  10.095  0.1366  1.1454 -0.2508
  105OSM    H6F10727   3.001   6.306  10.049 -0.3743  0.0743 -0.4532
  105OSM    H6G10728   2.931   6.412  10.178  0.4250 -1.1045  1.6281
  105OSM    C7F10729   2.828   6.434   9.997 -0.0445 -0.7568  0.7053
  105OSM    H7F10730   2.899   6.508   9.954 -2.0894 -0.6706 -2.8708
  105OSM    H7G10731   2.749   6.494  10.047 -0.2042 -1.0214  0.7651
  105OSM    C8F10732   2.770   6.367   9.872  0.0502  0.7379  0.1652
  105OSM    H8F10733   2.699   6.432   9.817  0.7721  0.6604 -0.9048
  105OSM    H8G10734   2.708   6.278   9.897  2.5448 -0.8642  1.0444
  105OSM    C9F10735   2.869   6.307   9.771 -0.4588 -0.5390 -0.4064
  105OSM    H9F10736   2.915   6.211   9.796 -1.3289 -0.5721  1.1912
  105OSM   C10F10737   2.905   6.359   9.651  0.3210 -0.7527 -0.3318
  105OSM   H10F10738   2.994   6.313   9.605  0.1597 -2.0128  0.5698
  105OSM   C11F10739   2.860   6.489   9.594  0.6478 -0.1115  0.1013
  105OSM   H11F10740   2.946   6.548   9.558  0.1889 -0.7752 -2.2460
  105OSM   H11G10741   2.816   6.567   9.660  2.9072  1.1674  0.1999
  105OSM   C12F10742   2.765   6.477   9.475  0.6693  0.5299  0.4418
  105OSM   H12F10743   2.707   6.570   9.462  0.2977  0.0901 -1.1989
  105OSM   H12G10744   2.692   6.396   9.498 -2.6073  2.9119 -0.8629
  105OSM   C13F10745   2.828   6.452   9.335  0.1910 -0.2508  0.3766
  105OSM   H13F10746   2.864   6.347   9.338  0.4735 -0.1494  0.5820
  105OSM   H13G10747   2.919   6.512   9.315  0.4598 -0.5315  0.7579
  105OSM   C14F10748   2.727   6.466   9.221  0.5874 -0.1745  0.0885
  105OSM   H14F10749   2.672   6.562   9.232  0.8490 -0.1371  1.3001
  105OSM   H14G10750   2.644   6.396   9.247  0.6303  0.4534  2.1574
  105OSM   C15F10751   2.789   6.447   9.082  0.0431  0.0230  0.6372
  105OSM   H15F10752   2.860   6.363   9.098  1.4873  1.5537  2.7002
  105OSM   H15G10753   2.842   6.540   9.053  1.0838 -1.0838 -1.2607
  105OSM   C16F10754   2.690   6.409   8.965 -0.4321  0.0243 -0.0469
  105OSM   H16F10755   2.604   6.478   8.949 -1.4336 -1.7267 -2.9596
  105OSM   H16G10756   2.641   6.312   8.984 -2.6114  1.2049  0.7082
  105OSM   C17F10757   2.755   6.394   8.828 -0.4056 -0.2350  0.3924
  105OSM   H17F10758   2.698   6.339   8.750  0.2287  0.6782 -0.7593
  105OSM   H17G10759   2.855   6.344   8.828  0.8257  2.0852  0.6829
  105OSM   C18F10760   2.780   6.535   8.774  0.1483  0.4111 -0.5327
  105OSM   H18F10761   2.809   6.539   8.667  1.6190  0.9099 -0.1451
  105OSM   H18G10762   2.868   6.580   8.826 -0.4482  0.5569  0.3650
  105OSM   H18H10763   2.695   6.603   8.796 -0.6209  0.1290 -2.4599
  106OSM      N10764   1.331   6.374  11.220 -0.3616 -0.0041 -0.4128
  106OSM    C1510765   1.482   6.349  11.226  0.4724 -0.3579  0.1720
  106OSM   H15A10766   1.509   6.263  11.166 -0.1345 -0.2675 -0.2440
  106OSM   H15B10767   1.520   6.330  11.325 -1.8978 -3.0747  0.6983
  106OSM   H15C10768   1.525   6.439  11.185  0.2275  0.1383  0.9917
  106OSM    C1410769   1.262   6.287  11.318  0.4631 -0.2182 -0.5709
  106OSM   H14A10770   1.273   6.184  11.289 -3.0170 -0.3106 -2.0176
  106OSM   H14B10771   1.159   6.317  11.331  1.2953  2.3294  0.9787
  106OSM   H14C10772   1.312   6.303  11.413  0.2560  3.4104 -0.9221
  106OSM    C1310773   1.300   6.514  11.268 -0.0389 -0.7768 -0.2042
  106OSM   H13A10774   1.330   6.580  11.189 -2.2698  2.2265  1.2488
  106OSM   H13B10775   1.356   6.534  11.359  2.1566  0.9040 -1.8094
  106OSM   H13C10776   1.194   6.536  11.277  0.0868  0.6776 -1.7671
  106OSM    C1210777   1.269   6.364  11.084  0.0871  0.1651 -0.1311
  106OSM   H12A10778   1.320   6.431  11.016  1.4302  1.1598  1.7572
  106OSM   H12B10779   1.167   6.397  11.099 -0.3389  0.2102 -2.6595
  106OSM    C1110780   1.278   6.224  11.016  0.2847  0.0061  0.1206
  106OSM   H11A10781   1.200   6.219  10.937 -0.9125 -2.6957  1.3691
  106OSM   H11B10782   1.241   6.141  11.080 -1.1975 -0.4998 -1.3197
  106OSM      P10783   1.489   6.278  10.848 -0.0353  0.0322 -0.0985
  106OSM    O1310784   1.448   6.418  10.860  0.1168  0.0167  0.6053
  106OSM    O1410785   1.635   6.243  10.858  0.4899 -0.0512 -0.3129
  106OSM    O1110786   1.425   6.216  10.715  0.1825 -0.4544  0.3190
  106OSM    O1210787   1.412   6.196  10.968 -0.0384 -0.6991 -0.2767
  106OSM    C1S10788   1.398   6.079  10.724 -0.0626  0.2669 -0.1229
  106OSM    H1S10789   1.318   6.055  10.797 -0.9609  0.1134 -1.1430
  106OSM    H1T10790   1.483   6.016  10.759  0.4300 -0.6165 -2.6655
  106OSM     NF10791   1.313   5.895  10.585  0.2191 -0.5506 -0.4562
  106OSM    HNF10792   1.390   5.844  10.550  0.2084 -1.8548  1.2910
  106OSM    C2S10793   1.339   6.038  10.585 -0.0731  0.4280 -0.6743
  106OSM    H2S10794   1.243   6.094  10.577 -1.4165 -1.2096  2.1807
  106OSM    C3S10795   1.439   6.071  10.475 -0.2102 -0.1648  0.4266
  106OSM    H3S10796   1.527   6.007  10.495 -0.9909 -0.6297  2.5903
  106OSM     O310797   1.485   6.203  10.471 -0.7084  0.3782  0.4345
  106OSM    HO310798   1.449   6.239  10.553  0.8794  1.8990  0.5419
  106OSM    C4S10799   1.379   6.046  10.336  0.4191 -0.0112  0.6823
  106OSM    H4S10800   1.276   6.084  10.328  0.2423 -0.6347 -0.0329
  106OSM    C5S10801   1.427   5.972  10.232 -0.1005  0.5416 -0.1941
  106OSM    H5S10802   1.527   5.928  10.233  0.2470  1.2419 -1.6666
  106OSM    C6S10803   1.354   5.948  10.100 -0.6214  0.1971  0.2561
  106OSM    H6S10804   1.254   5.996  10.100 -1.9139 -2.2074 -2.1436
  106OSM    H6T10805   1.347   5.841  10.070 -0.5620  0.4573 -0.7123
  106OSM    C7S10806   1.439   5.996   9.982 -0.0223 -0.6911 -0.1076
  106OSM    H7S10807   1.378   5.990   9.889  0.2835  1.3946 -0.4925
  106OSM    H7T10808   1.531   5.939   9.957  0.6743  0.3036  0.1373
  106OSM    C8S10809   1.486   6.141   9.994 -0.6896  0.3462  0.6623
  106OSM    H8S10810   1.584   6.151  10.045 -0.4249  1.4429 -0.0302
  106OSM    H8T10811   1.408   6.198  10.049  0.0852  1.1852  0.9101
  106OSM    C9S10812   1.509   6.218   9.862  0.0762  0.3198  0.3923
  106OSM    H9S10813   1.565   6.308   9.896  1.7647 -1.0880  1.5031
  106OSM    H9T10814   1.412   6.253   9.820 -0.4779 -1.0509  0.4922
  106OSM   C10S10815   1.581   6.135   9.752  0.5337 -0.3940  0.0667
  106OSM   H10S10816   1.568   6.024   9.748 -0.5591 -0.2437 -1.8323
  106OSM   H10T10817   1.691   6.146   9.766  0.5770  0.0310 -0.5633
  106OSM   C11S10818   1.546   6.183   9.610  0.4223 -0.1060 -0.2808
  106OSM   H11S10819   1.586   6.286   9.619  1.8315 -0.7791  2.2792
  106OSM   H11T10820   1.439   6.160   9.593 -0.2084  1.3702  1.4435
  106OSM   C12S10821   1.637   6.116   9.498 -0.2060  0.1375 -0.1912
  106OSM   H12S10822   1.606   6.010   9.491  0.4576 -0.0335 -0.5518
  106OSM   H12T10823   1.746   6.116   9.516  0.2914  0.1801 -2.8671
  106OSM   C13S10824   1.612   6.181   9.357 -0.1790 -0.0043  0.8798
  106OSM   H13S10825   1.505   6.206   9.350 -0.4797 -0.2785  3.3647
  106OSM   H13T10826   1.624   6.111   9.271  0.6447  3.1189 -1.7188
  106OSM   C14S10827   1.697   6.306   9.328 -0.1740 -0.4329 -0.3033
  106OSM   H14S10828   1.806   6.297   9.306 -0.3092  0.0439 -1.2131
  106OSM   H14T10829   1.682   6.376   9.414 -1.3336  0.9593 -1.5824
  106OSM   C15S10830   1.635   6.377   9.207 -0.4155 -0.2497  0.7762
  106OSM   H15S10831   1.665   6.484   9.205  0.9940 -0.6027 -1.8127
  106OSM   H15T10832   1.526   6.383   9.226 -0.8587 -3.7220 -0.0286
  106OSM   C16S10833   1.669   6.309   9.075  0.4162  0.6172 -0.4023
  106OSM   H16S10834   1.603   6.355   8.998 -3.5559 -2.1532  1.0318
  106OSM   H16T10835   1.650   6.200   9.081  1.5910  0.4725  1.0166
  106OSM   C17S10836   1.804   6.339   9.029 -0.4081 -0.1694 -0.1865
  106OSM   H17S10837   1.875   6.274   9.084 -0.6789 -2.6301 -2.4922
  106OSM   H17T10838   1.835   6.445   9.037 -2.0022  0.1494  4.7411
  106OSM   C18S10839   1.828   6.303   8.877 -0.5930 -0.7404 -0.5379
  106OSM   H18S10840   1.748   6.351   8.817 -0.7001 -0.2111  0.0142
  106OSM   H18T10841   1.812   6.193   8.868  2.7249 -1.1759 -2.7169
  106OSM   H18U10842   1.933   6.329   8.852 -0.2352 -2.4160 -0.9492
  106OSM    C1F10843   1.201   5.848  10.637  0.8567 -0.0752 -0.2709
  106OSM     OF10844   1.121   5.924  10.688 -0.6331  0.3159 -0.2790
  106OSM    C2F10845   1.195   5.704  10.660  0.1582 -0.3311 -0.2179
  106OSM    H2F10846   1.089   5.676  10.679  0.4202 -1.3110 -0.1108
  106OSM    H2G10847   1.245   5.673  10.754 -1.7241 -3.1597 -0.0156
  106OSM    C3F10848   1.235   5.609  10.543 -0.2161  0.0863  0.2051
  106OSM    H3F10849   1.231   5.507  10.587  1.7663 -0.0991  0.0272
  106OSM    H3G10850   1.343   5.626  10.524 -0.1740  1.2656  1.3858
  106OSM    C4F10851   1.137   5.610  10.435  0.5329  0.1249 -0.0541
  106OSM    H4F10852   1.041   5.572  10.476  0.9319 -2.1683 -1.1018
  106OSM    H4G10853   1.174   5.529  10.369 -1.5394 -1.7285  0.9253
  106OSM    C5F10854   1.110   5.728  10.337 -0.7694 -0.1879  0.1313
  106OSM    H5F10855   1.207   5.757  10.292 -1.8642  2.4598 -0.7426
  106OSM    H5G10856   1.078   5.813  10.401 -2.5531 -1.0741  0.4834
  106OSM    C6F10857   1.007   5.698  10.226  0.5844 -0.4990  0.4010
  106OSM    H6F10858   0.908   5.669  10.267 -0.9660  1.6695 -1.5239
  106OSM    H6G10859   1.042   5.607  10.173 -0.6098 -0.0670 -1.1764
  106OSM    C7F10860   0.989   5.803  10.120 -0.4077 -0.2975  0.2091
  106OSM    H7F10861   1.088   5.841  10.087 -0.1313 -0.3928  0.9048
  106OSM    H7G10862   0.942   5.889  10.172  0.7343 -0.1579  1.0636
  106OSM    C8F10863   0.904   5.749   9.995  0.3986 -0.1365 -0.1794
  106OSM    H8F10864   0.808   5.720  10.043  1.1570 -1.9964  0.3110
  106OSM    H8G10865   0.941   5.656   9.945 -0.1190  0.7698 -2.3411
  106OSM    C9F10866   0.869   5.864   9.900  0.3385  0.0129 -0.6849
  106OSM    H9F10867   0.860   5.965   9.944 -1.5156 -1.1355  1.8098
  106OSM   C10F10868   0.850   5.852   9.765 -0.3407 -0.0073  0.1344
  106OSM   H10F10869   0.832   5.943   9.705  1.3431 -1.0791 -2.1498
  106OSM   C11F10870   0.860   5.724   9.683  0.2114 -0.6954 -0.6965
  106OSM   H11F10871   0.771   5.708   9.619 -0.6688 -1.0798  0.5904
  106OSM   H11G10872   0.859   5.635   9.749 -0.8030  0.6346  1.1669
  106OSM   C12F10873   0.988   5.719   9.601  0.4427 -0.1014  0.3779
  106OSM   H12F10874   1.006   5.615   9.566  0.9338  0.0064  0.2993
  106OSM   H12G10875   1.070   5.752   9.669  0.9051  1.3519 -0.8287
  106OSM   C13F10876   0.986   5.812   9.481 -0.0877  0.9604  0.5471
  106OSM   H13F10877   1.090   5.820   9.443 -0.2344 -0.6795 -0.2836
  106OSM   H13G10878   0.949   5.913   9.509  0.8453  1.1522  1.1439
  106OSM   C14F10879   0.894   5.764   9.366  0.1949  0.3052 -0.4165
  106OSM   H14F10880   0.790   5.761   9.403  0.2478 -1.8406 -0.3496
  106OSM   H14G10881   0.927   5.662   9.338  1.4800 -0.1472  2.4376
  106OSM   C15F10882   0.906   5.854   9.248 -0.4859  0.6937  0.1341
  106OSM   H15F10883   1.014   5.850   9.225  0.0695 -0.0606  2.5596
  106OSM   H15G10884   0.892   5.960   9.278  1.1770  0.8608  0.3821
  106OSM   C16F10885   0.834   5.815   9.122  0.1563  0.1969 -0.3316
  106OSM   H16F10886   0.724   5.829   9.130  0.4402  1.7089  1.9792
  106OSM   H16G10887   0.869   5.714   9.094 -0.7281 -0.1389 -0.2530
  106OSM   C17F10888   0.875   5.909   9.005 -0.3996 -0.3538  0.0973
  106OSM   H17F10889   0.831   5.858   8.917  0.1095 -1.0599  0.2409
  106OSM   H17G10890   0.985   5.904   8.991 -0.2500 -0.7958  1.3037
  106OSM   C18F10891   0.825   6.049   9.021  0.1450 -0.5474 -0.1655
  106OSM   H18F10892   0.840   6.107   8.927 -1.2537  0.9652  0.4945
  106OSM   H18G10893   0.876   6.103   9.103 -1.0957 -0.7535  0.7799
  106OSM   H18H10894   0.715   6.047   9.037  0.3087  2.4017  2.2624
  107OSM      N10895   5.008   2.395  11.046  0.6091 -0.3916  0.6431
  107OSM    C1510896   4.852   2.404  11.023 -0.5597 -0.8613 -0.6681
  107OSM   H15A10897   4.827   2.367  10.925 -1.1058 -5.4500  0.9468
  107OSM   H15B10898   4.819   2.506  11.032 -1.4929 -1.1189 -0.9980
  107OSM   H15C10899   4.798   2.343  11.094  0.6181 -0.5861  0.4996
  107OSM    C1410900   5.039   2.445  11.184  0.9732 -0.0899 -0.3582
  107OSM   H14A10901   5.013   2.550  11.177 -1.3574 -0.4297  1.7976
  107OSM   H14B10902   5.143   2.424  11.204  0.9189 -2.1478 -1.8609
  107OSM   H14C10903   4.987   2.398  11.265  1.4067  0.3933  0.2095
  107OSM    C1310904   5.060   2.257  11.029 -0.0992 -0.2230  0.1009
  107OSM   H13A10905   5.167   2.252  11.021 -0.2571 -1.0298 -2.6949
  107OSM   H13B10906   5.030   2.204  10.940  0.6220 -0.7158  0.1478
  107OSM   H13C10907   5.030   2.204  11.118  1.6095  1.8048  2.0070
  107OSM    C1210908   5.073   2.483  10.941  0.1323 -0.1235 -0.8519
  107OSM   H12A10909   5.031   2.455  10.846 -0.0355 -2.0869 -0.2324
  107OSM   H12B10910   5.179   2.463  10.939  0.4770  1.1610  1.2891
  107OSM    C1110911   5.049   2.634  10.968 -0.3039  0.0877  0.1688
  107OSM   H11A10912   4.941   2.647  10.988  0.1445 -0.1267  3.0980
  107OSM   H11B10913   5.082   2.690  10.878  2.4695  1.5671  1.9752
  107OSM      P10914   5.088   2.831  11.137 -0.2501 -0.2482  0.1892
  107OSM    O1310915   4.971   2.806  11.221 -0.0688 -0.0579 -0.4930
  107OSM    O1410916   5.208   2.890  11.199 -0.1051  0.1809 -0.2707
  107OSM    O1110917   5.034   2.918  11.021 -0.6159 -0.2278  0.1146
  107OSM    O1210918   5.132   2.689  11.066  0.3928 -0.0112 -0.6317
  107OSM    C1S10919   5.125   2.985  10.934  0.1957 -0.2959  0.1882
  107OSM    H1S10920   5.215   2.926  10.909 -0.5918 -0.7575 -1.7811
  107OSM    H1T10921   5.163   3.082  10.972  1.1784  0.2973 -2.1244
  107OSM     NF10922   5.144   3.062  10.702  0.3236 -0.3866 -0.3917
  107OSM    HNF10923   5.136   3.152  10.660  2.5404  0.5223  0.9536
  107OSM    C2S10924   5.049   3.018  10.805 -0.7347  0.8791  0.6360
  107OSM    H2S10925   5.006   2.918  10.781  0.1225  0.3836  1.0980
  107OSM    C3S10926   4.940   3.117  10.829  0.6582 -0.4199  0.6148
  107OSM    H3S10927   4.988   3.216  10.842 -0.5254 -0.1095  3.2583
  107OSM     O310928   4.865   3.091  10.949  0.3636 -0.1063  0.7398
  107OSM    HO310929   4.913   3.019  10.990 -0.3362 -0.1552  1.4902
  107OSM    C4S10930   4.858   3.112  10.699 -0.1789 -0.7078  0.6066
  107OSM    H4S10931   4.901   3.173  10.619 -0.2354  0.2914  1.3118
  107OSM    C5S10932   4.746   3.039  10.679 -0.0913  0.9351  0.3906
  107OSM    H5S10933   4.701   2.986  10.764  1.6912  0.8294  1.3226
  107OSM    C6S10934   4.663   3.030  10.556 -0.0982 -0.1464  0.1514
  107OSM    H6S10935   4.560   3.040  10.595  0.9306  0.4041  2.9364
  107OSM    H6T10936   4.672   2.930  10.509  0.5977  0.6667 -1.5807
  107OSM    C7S10937   4.680   3.135  10.448  0.4517 -0.0716 -0.3484
  107OSM    H7S10938   4.782   3.130  10.405 -0.1154 -1.0037 -1.6684
  107OSM    H7T10939   4.656   3.237  10.485 -0.4812 -0.0471 -0.9984
  107OSM    C8S10940   4.591   3.103  10.329  0.1134 -0.0467 -0.2462
  107OSM    H8S10941   4.485   3.105  10.363  1.0413 -0.3507  2.9291
  107OSM    H8T10942   4.625   2.999  10.306 -0.3117 -0.0487 -0.9054
  107OSM    C9S10943   4.620   3.213  10.220 -0.2891 -0.2723  0.0005
  107OSM    H9S10944   4.723   3.254  10.233 -0.7968  0.6985  1.1584
  107OSM    H9T10945   4.555   3.297  10.252 -1.2140 -1.5402  1.6471
  107OSM   C10S10946   4.585   3.181  10.075 -0.1119 -0.3680  0.2334
  107OSM   H10S10947   4.475   3.171  10.064  0.0930 -2.1963 -0.4760
  107OSM   H10T10948   4.639   3.087  10.051 -1.1773 -0.9121 -0.0928
  107OSM   C11S10949   4.629   3.283   9.969 -0.7671 -0.5303  0.6658
  107OSM   H11S10950   4.738   3.305   9.970 -0.3221 -2.3692 -1.3826
  107OSM   H11T10951   4.583   3.384   9.980  1.1712  0.5579 -0.5625
  107OSM   C12S10952   4.600   3.234   9.832 -0.3967 -0.0341 -0.0639
  107OSM   H12S10953   4.503   3.179   9.828 -0.3877  0.0109 -1.8393
  107OSM   H12T10954   4.684   3.166   9.808 -0.5710 -0.7625  1.2546
  107OSM   C13S10955   4.595   3.345   9.726 -0.1108 -0.5502 -0.1518
  107OSM   H13S10956   4.690   3.399   9.745 -1.9525  2.6547  0.9448
  107OSM   H13T10957   4.511   3.415   9.747 -1.8591 -2.1642 -1.3996
  107OSM   C14S10958   4.594   3.292   9.585  0.6003 -0.0133  0.3665
  107OSM   H14S10959   4.508   3.223   9.574 -1.6584  2.7492 -0.9090
  107OSM   H14T10960   4.682   3.228   9.566  2.9550  2.1481  3.0681
  107OSM   C15S10961   4.561   3.409   9.488 -0.4000  0.1925  0.0045
  107OSM   H15S10962   4.644   3.479   9.514 -0.7419  0.2034  1.1569
  107OSM   H15T10963   4.466   3.459   9.518 -0.3999  1.2758 -1.6657
  107OSM   C16S10964   4.571   3.373   9.335  0.2853  1.3727  0.1509
  107OSM   H16S10965   4.480   3.311   9.323 -0.1247  2.0263 -0.1884
  107OSM   H16T10966   4.665   3.317   9.311  1.0256  1.4052  2.7215
  107OSM   C17S10967   4.561   3.496   9.253 -0.5879 -0.3297 -0.4409
  107OSM   H17S10968   4.636   3.564   9.299 -0.0721 -2.1068  1.5085
  107OSM   H17T10969   4.467   3.552   9.272  0.9591  2.0284  0.7893
  107OSM   C18S10970   4.603   3.467   9.111 -0.4831 -0.2590  0.3329
  107OSM   H18S10971   4.580   3.552   9.043 -0.6586 -0.6274 -0.0693
  107OSM   H18T10972   4.543   3.382   9.074  0.0681 -0.7692  0.5870
  107OSM   H18U10973   4.711   3.444   9.097 -0.9754 -1.8732 -1.0971
  107OSM    C1F10974   5.233   2.992  10.631  0.0058 -1.1021 -0.3312
  107OSM     OF10975   5.239   2.874  10.644 -0.1936  0.1071 -0.5961
  107OSM    C2F10976   5.323   3.065  10.537  0.0426  0.4658  0.1407
  107OSM    H2F10977   5.365   3.146  10.601 -2.2869  1.9393 -0.0686
  107OSM    H2G10978   5.267   3.111  10.454  1.3497 -0.8488 -1.5539
  107OSM    C3F10979   5.436   2.979  10.478  0.4744  0.6258  0.0829
  107OSM    H3F10980   5.401   2.880  10.445 -1.4409  1.1183  0.4982
  107OSM    H3G10981   5.517   2.960  10.552  2.1649 -0.6784 -1.9762
  107OSM    C4F10982   5.499   3.045  10.357 -0.0643 -0.3073 -0.0159
  107OSM    H4F10983   5.433   3.068  10.271 -0.8290  0.5288  0.7684
  107OSM    H4G10984   5.577   2.973  10.327  1.9222  1.8404 -0.2708
  107OSM    C5F10985   5.572   3.177  10.383  0.1422  0.4538 -0.0412
  107OSM    H5F10986   5.614   3.189  10.485 -0.4223  0.6346  0.1733
  107OSM    H5G10987   5.500   3.261  10.369  1.8102  1.8705 -0.4306
  107OSM    C6F10988   5.685   3.195  10.278  0.1274  0.1264 -0.0406
  107OSM    H6F10989   5.725   3.298  10.285  3.9400 -1.2828  1.7658
  107OSM    H6G10990   5.643   3.168  10.179 -0.5963  0.5122  0.1562
  107OSM    C7F10991   5.809   3.113  10.308  0.3211  0.8777  0.3858
  107OSM    H7F10992   5.781   3.006  10.310  1.1916  0.4955 -2.8457
  107OSM    H7G10993   5.846   3.138  10.410 -0.6030 -1.9946  1.5156
  107OSM    C8F10994   5.931   3.125  10.211  0.5689  0.1868 -0.3405
  107OSM    H8F10995   5.893   3.075  10.119 -0.8304 -1.0873  0.8645
  107OSM    H8G10996   6.018   3.067  10.250 -0.1251 -1.3064 -0.9259
  107OSM    C9F10997   5.978   3.266  10.189  0.3340  0.0145 -0.1235
  107OSM    H9F10998   5.976   3.324  10.282 -0.6727 -1.8502  1.0891
  107OSM   C10F10999   6.023   3.325  10.077  0.2208 -0.5614  0.5511
  107OSM   H10F11000   6.057   3.430  10.075 -0.0244 -0.4914 -0.1245
  107OSM   C11F11001   6.039   3.262   9.941 -0.1196  0.2870  0.0485
  107OSM   H11F11002   6.015   3.154   9.948 -2.0606  0.5990 -0.8925
  107OSM   H11G11003   6.149   3.263   9.927 -0.4286 -0.0304 -3.0626
  107OSM   C12F11004   5.958   3.305   9.818  0.2299  0.1047  0.7068
  107OSM   H12F11005   5.989   3.408   9.788 -1.2737  0.3677 -0.0501
  107OSM   H12G11006   5.852   3.321   9.848 -0.0019  1.7876 -0.8498
  107OSM   C13F11007   5.974   3.207   9.693  0.5542 -0.6195  0.3309
  107OSM   H13F11008   5.931   3.109   9.724 -0.6788  0.2283  1.4037
  107OSM   H13G11009   6.080   3.179   9.676  1.3017  0.3911  2.9316
  107OSM   C14F11010   5.913   3.261   9.560 -0.4629  0.4039  0.0317
  107OSM   H14F11011   5.941   3.367   9.544  0.2478  0.3152  0.6038
  107OSM   H14G11012   5.802   3.263   9.558 -0.4539  0.5571 -0.3014
  107OSM   C15F11013   5.964   3.184   9.442 -0.3817  0.0714 -0.4480
  107OSM   H15F11014   5.942   3.077   9.462  1.1664 -0.4899 -1.5301
  107OSM   H15G11015   6.075   3.186   9.433 -0.2476 -0.0050  0.9303
  107OSM   C16F11016   5.904   3.214   9.304  0.1033  0.0745  0.2886
  107OSM   H16F11017   5.794   3.217   9.314  0.2105 -0.4431  1.9189
  107OSM   H16G11018   5.938   3.139   9.229 -0.8704  0.7829 -0.8969
  107OSM   C17F11019   5.943   3.347   9.242  0.0466  0.3029  0.0066
  107OSM   H17F11020   5.923   3.421   9.323 -0.8459 -0.8623  0.8990
  107OSM   H17G11021   5.875   3.370   9.158 -1.1844 -0.2400  0.8364
  107OSM   C18F11022   6.085   3.368   9.198 -0.7870  0.6923 -0.3954
  107OSM   H18F11023   6.091   3.321   9.097 -2.9363  0.1135 -0.3042
  107OSM   H18G11024   6.156   3.331   9.275 -1.1115  1.7401  0.4254
  107OSM   H18H11025   6.120   3.473   9.195  2.7296 -0.3646 -0.6033
  108OSM      N11026   0.393   5.175  11.209 -0.6556 -0.3140 -0.4139
  108OSM    C1511027   0.503   5.067  11.216  0.1313  0.1623 -0.7867
  108OSM   H15A11028   0.530   5.025  11.120  1.4695  1.7453 -1.1340
  108OSM   H15B11029   0.466   4.991  11.284  0.6383  1.1554  0.6358
  108OSM   H15C11030   0.591   5.101  11.268 -2.3530  2.4110  2.3217
  108OSM    C1411031   0.268   5.125  11.171  0.7247 -0.0062 -0.5319
  108OSM   H14A11032   0.262   5.102  11.065 -1.6389  2.1271 -0.9679
  108OSM   H14B11033   0.188   5.192  11.199 -0.7181 -1.6858 -0.4803
  108OSM   H14C11034   0.244   5.035  11.224  1.3177 -0.5295 -1.1348
  108OSM    C1311035   0.385   5.234  11.350  0.4768  0.1410 -0.0654
  108OSM   H13A11036   0.301   5.300  11.362  0.3128 -0.1550  0.4759
  108OSM   H13B11037   0.476   5.286  11.375  0.6714  1.1320 -2.5667
  108OSM   H13C11038   0.383   5.157  11.427 -1.2343  2.9361  2.9153
  108OSM    C1211039   0.445   5.288  11.117 -0.1808  0.4114  0.4373
  108OSM   H12A11040   0.533   5.333  11.162  0.2347 -0.3479  0.3941
  108OSM   H12B11041   0.371   5.366  11.109 -0.8127 -0.2977 -0.8623
  108OSM    C1111042   0.485   5.250  10.975 -0.0161  0.0339 -0.0958
  108OSM   H11A11043   0.584   5.199  10.970  0.2077  0.5385 -1.3235
  108OSM   H11B11044   0.501   5.345  10.918  0.3970 -0.4486 -0.8069
  108OSM      P11045   0.427   5.030  10.857  0.3816 -0.1919  0.1527
  108OSM    O1311046   0.343   4.936  10.942 -0.6314 -0.9719  0.1637
  108OSM    O1411047   0.396   5.023  10.712  0.1113  0.5385 -0.2177
  108OSM    O1111048   0.576   4.998  10.881 -0.0087  0.2968  0.0793
  108OSM    O1211049   0.392   5.174  10.898  0.4303 -0.0407 -0.0194
  108OSM    C1S11050   0.633   4.862  10.867 -0.0229 -0.9269  0.2643
  108OSM    H1S11051   0.557   4.784  10.848  0.3197 -1.0499 -0.6421
  108OSM    H1T11052   0.694   4.842  10.957  0.4336  0.5240  0.3163
  108OSM     NF11053   0.779   4.721  10.739  0.7742 -0.4052 -0.3061
  108OSM    HNF11054   0.846   4.708  10.811  0.0108  1.4441  0.8132
  108OSM    C2S11055   0.720   4.855  10.743 -0.0650  0.3502 -0.1502
  108OSM    H2S11056   0.652   4.871  10.657  0.0700  0.1301 -0.2996
  108OSM    C3S11057   0.827   4.964  10.741 -0.3192  0.3707 -0.4874
  108OSM    H3S11058   0.890   4.952  10.832 -1.6511  0.6724  0.5031
  108OSM     O311059   0.774   5.093  10.761 -0.0271 -0.1503  0.4418
  108OSM    HO311060   0.702   5.090  10.824  1.1705  1.5399  2.0191
  108OSM    C4S11061   0.907   4.964  10.615  0.2102  0.3893 -0.1198
  108OSM    H4S11062   0.856   5.006  10.527  0.1831 -0.6887 -0.6322
  108OSM    C5S11063   1.041   4.932  10.605 -0.7451  0.8477  0.3693
  108OSM    H5S11064   1.099   4.903  10.694 -1.8997 -4.3376 -0.2795
  108OSM    C6S11065   1.108   4.937  10.477  0.1622 -0.4397  0.6664
  108OSM    H6S11066   1.185   4.859  10.459 -1.5644 -1.8680 -1.0629
  108OSM    H6T11067   1.158   5.036  10.488  0.2225 -0.7219  3.6538
  108OSM    C7S11068   1.017   4.940  10.348 -0.1955  0.4784 -0.3950
  108OSM    H7S11069   0.935   5.014  10.343  0.0729  1.2723  3.8008
  108OSM    H7T11070   0.959   4.845  10.351  0.0862  0.3198  2.1982
  108OSM    C8S11071   1.108   4.939  10.224 -0.6916  0.3185  0.2856
  108OSM    H8S11072   1.170   4.847  10.211 -1.0035  0.1216  0.1652
  108OSM    H8T11073   1.184   5.019  10.232 -0.0101 -0.4203  1.4350
  108OSM    C9S11074   1.027   4.948  10.087 -1.0750 -0.3060 -0.2311
  108OSM    H9S11075   0.937   5.010  10.107 -0.8270  0.7846 -2.2622
  108OSM    H9T11076   0.997   4.844  10.062 -0.2998 -0.5599 -0.1296
  108OSM   C10S11077   1.111   4.997   9.965 -0.1949 -0.2071  0.2391
  108OSM   H10S11078   1.138   5.102   9.988 -3.1132  1.1143 -1.6944
  108OSM   H10T11079   1.045   4.994   9.876 -0.8388 -0.5377  0.7195
  108OSM   C11S11080   1.240   4.917   9.946 -0.4260  0.4073  0.0352
  108OSM   H11S11081   1.227   4.810   9.973 -0.4759  0.3799 -0.0953
  108OSM   H11T11082   1.310   4.958  10.023 -0.2907 -0.4065  0.3481
  108OSM   C12S11083   1.302   4.937   9.807 -0.5140  0.5723  0.0789
  108OSM   H12S11084   1.409   4.907   9.815 -0.8841 -0.9349 -0.3119
  108OSM   H12T11085   1.302   5.047   9.792 -0.4656  0.5168 -0.3369
  108OSM   C13S11086   1.234   4.879   9.691 -0.5897  0.1282  0.2308
  108OSM   H13S11087   1.128   4.912   9.685 -0.2747  0.8965 -2.0407
  108OSM   H13T11088   1.232   4.769   9.707 -0.2329  0.2063  0.8480
  108OSM   C14S11089   1.306   4.915   9.562  0.1728  0.1038 -0.5000
  108OSM   H14S11090   1.283   4.832   9.492  1.5179 -0.3529 -0.4327
  108OSM   H14T11091   1.417   4.909   9.559  0.1492  0.1555 -1.8482
  108OSM   C15S11092   1.257   5.032   9.487  0.2304 -0.1648  0.8401
  108OSM   H15S11093   1.270   5.131   9.535  2.7045  0.6961 -1.3853
  108OSM   H15T11094   1.147   5.033   9.468  0.3041 -0.7224  0.3638
  108OSM   C16S11095   1.323   5.042   9.354  0.2482 -0.2372  0.6376
  108OSM   H16S11096   1.433   5.035   9.365  0.3516  0.8634  0.4483
  108OSM   H16T11097   1.300   5.143   9.313 -1.6099 -0.8856 -0.0444
  108OSM   C17S11098   1.293   4.936   9.244 -0.4517 -0.8186 -0.7794
  108OSM   H17S11099   1.187   4.940   9.210 -0.7782 -0.7156  0.2052
  108OSM   H17T11100   1.286   4.843   9.305 -2.5793  2.2195  4.2084
  108OSM   C18S11101   1.388   4.925   9.128 -0.2953 -0.7130 -0.6779
  108OSM   H18S11102   1.469   4.859   9.166 -2.0698 -1.1141  2.7537
  108OSM   H18T11103   1.429   5.023   9.096 -0.2667 -0.6620 -0.4835
  108OSM   H18U11104   1.331   4.875   9.047 -0.6987  0.8449 -1.3976
  108OSM    C1F11105   0.716   4.616  10.690 -0.3854  0.5218 -0.0046
  108OSM     OF11106   0.610   4.626  10.631  0.6665 -0.3561 -0.2336
  108OSM    C2F11107   0.788   4.479  10.703 -0.1202 -0.1829  0.0775
  108OSM    H2F11108   0.795   4.441  10.807  0.8325 -0.9525 -0.2512
  108OSM    H2G11109   0.891   4.494  10.664 -0.0563 -2.9146 -1.0258
  108OSM    C3F11110   0.735   4.360  10.625  0.0080  0.1231 -0.1700
  108OSM    H3F11111   0.624   4.363  10.634 -0.0879 -0.0758 -1.2736
  108OSM    H3G11112   0.779   4.265  10.663 -0.5385  0.2787  0.9078
  108OSM    C4F11113   0.768   4.375  10.477 -0.1475  0.3708 -0.0667
  108OSM    H4F11114   0.876   4.355  10.464 -0.2789  0.8457 -2.3078
  108OSM    H4G11115   0.751   4.476  10.435 -1.3587  1.1362  2.0853
  108OSM    C5F11116   0.710   4.261  10.401  0.1049  0.4161 -0.4034
  108OSM    H5F11117   0.600   4.263  10.417  0.0219 -1.5464 -0.4925
  108OSM    H5G11118   0.750   4.159  10.422  0.8704  0.5384 -1.1879
  108OSM    C6F11119   0.724   4.279  10.244 -0.1695 -0.5400 -0.4805
  108OSM    H6F11120   0.831   4.254  10.224  0.0163 -1.1109  1.0633
  108OSM    H6G11121   0.700   4.385  10.221 -2.0175 -0.7871  0.1860
  108OSM    C7F11122   0.627   4.197  10.162 -0.8746  0.3299 -0.1850
  108OSM    H7F11123   0.527   4.232  10.197 -0.2263  0.4802  1.6330
  108OSM    H7G11124   0.630   4.090  10.190 -2.7607 -0.4118 -2.4710
  108OSM    C8F11125   0.614   4.233  10.016 -0.7400 -0.7387 -0.0172
  108OSM    H8F11126   0.593   4.342  10.009 -1.5719 -0.8116  1.0884
  108OSM    H8G11127   0.525   4.187   9.968 -1.5641  2.0434 -1.3439
  108OSM    C9F11128   0.742   4.204   9.941 -0.6118 -0.0092  0.0060
  108OSM    H9F11129   0.834   4.244   9.986  1.1188 -0.8875 -2.5716
  108OSM   C10F11130   0.752   4.127   9.828 -0.2599 -0.7487 -0.3760
  108OSM   H10F11131   0.855   4.118   9.788  0.3292  0.3388  0.8226
  108OSM   C11F11132   0.645   4.044   9.752  0.1483 -0.1030 -0.5587
  108OSM   H11F11133   0.584   3.983   9.821 -0.5329  0.6382 -0.4937
  108OSM   H11G11134   0.701   3.964   9.699  1.0794 -0.2465  0.5997
  108OSM   C12F11135   0.573   4.122   9.645 -0.4225 -0.5689 -0.0356
  108OSM   H12F11136   0.527   4.218   9.676  0.4946 -0.8171  2.3572
  108OSM   H12G11137   0.502   4.055   9.592 -0.8516  1.1490 -1.7118
  108OSM   C13F11138   0.672   4.151   9.521  0.2280  0.1724 -0.4144
  108OSM   H13F11139   0.758   4.081   9.514  0.9981  0.9406  0.9444
  108OSM   H13G11140   0.712   4.252   9.542 -0.8542  0.6293 -0.5039
  108OSM   C14F11141   0.599   4.159   9.386  0.6003  0.4510 -0.5462
  108OSM   H14F11142   0.533   4.247   9.376  0.3271  0.1222 -1.8088
  108OSM   H14G11143   0.546   4.061   9.389  2.6200 -0.7091  1.3211
  108OSM   C15F11144   0.677   4.172   9.258 -0.4208 -0.4948 -0.1076
  108OSM   H15F11145   0.756   4.093   9.252  1.1265  1.1012 -2.1972
  108OSM   H15G11146   0.724   4.272   9.262 -0.4813 -0.4389 -0.6946
  108OSM   C16F11147   0.590   4.171   9.130  0.3212  0.7198 -0.7295
  108OSM   H16F11148   0.526   4.261   9.144 -1.5063 -0.6469  0.0825
  108OSM   H16G11149   0.523   4.083   9.134 -0.3511  1.2323 -0.4865
  108OSM   C17F11150   0.665   4.201   8.995 -0.2661 -0.2506  0.5289
  108OSM   H17F11151   0.590   4.206   8.914 -0.4977 -1.1815  0.6785
  108OSM   H17G11152   0.715   4.109   8.958 -0.8710 -0.1372 -0.6196
  108OSM   C18F11153   0.749   4.330   8.988 -0.4948  0.1256  1.0460
  108OSM   H18F11154   0.827   4.320   9.066 -1.3073  1.5056  2.0708
  108OSM   H18G11155   0.679   4.414   9.004  0.3516  0.4565  3.3252
  108OSM   H18H11156   0.799   4.340   8.889 -2.4992 -0.5534 -0.1093
  109OSM      N11157   0.533   1.921  11.398  0.6570  0.0259 -0.2479
  109OSM    C1511158   0.491   2.051  11.446  0.2243 -0.3000  0.2805
  109OSM   H15A11159   0.478   2.043  11.553 -0.5533 -1.4995  0.1206
  109OSM   H15B11160   0.408   2.101  11.396  0.0487  1.8018  2.4872
  109OSM   H15C11161   0.571   2.120  11.425  0.4624 -0.7008 -0.1348
  109OSM    C1411162   0.609   1.854  11.515 -0.8847  0.0748 -0.0312
  109OSM   H14A11163   0.552   1.877  11.604 -0.4670  0.3559  0.1718
  109OSM   H14B11164   0.709   1.894  11.523 -1.4375  1.7398 -0.8094
  109OSM   H14C11165   0.626   1.748  11.509  0.6754  0.3778 -3.6499
  109OSM    C1311166   0.413   1.838  11.389  0.4907 -0.7279 -0.0945
  109OSM   H13A11167   0.367   1.837  11.291  0.3553  0.1167 -0.0420
  109OSM   H13B11168   0.342   1.864  11.467  0.8562 -1.1126  0.3698
  109OSM   H13C11169   0.432   1.733  11.403 -0.1432 -1.2167 -2.3869
  109OSM    C1211170   0.617   1.934  11.273 -0.2225  0.2733  0.0020
  109OSM   H12A11171   0.662   1.842  11.238 -1.5419 -0.6061  0.5492
  109OSM   H12B11172   0.705   1.993  11.297 -1.1846  2.0832 -0.7773
  109OSM    C1111173   0.562   2.005  11.144  0.8184  0.4616  0.1472
  109OSM   H11A11174   0.479   1.943  11.105 -1.3139  1.8237  2.2238
  109OSM   H11B11175   0.645   2.005  11.070 -0.4689  1.9390 -1.3872
  109OSM      P11176   0.596   2.256  11.156 -0.7409  0.0593 -0.6475
  109OSM    O1311177   0.552   2.360  11.253  0.2087  0.1629  0.3975
  109OSM    O1411178   0.736   2.208  11.173  0.4451 -0.4196  0.3636
  109OSM    O1111179   0.559   2.302  11.013  0.2795 -0.8135  0.3974
  109OSM    O1211180   0.508   2.133  11.172 -0.0208 -0.0289  0.5685
  109OSM    C1S11181   0.420   2.301  10.967  0.2630 -0.4289 -0.5723
  109OSM    H1S11182   0.356   2.353  11.041 -0.8683 -1.3854 -0.8545
  109OSM    H1T11183   0.390   2.195  10.958  1.2215 -0.9665  1.8273
  109OSM     NF11184   0.261   2.380  10.792  0.4043  0.1295  0.6800
  109OSM    HNF11185   0.226   2.314  10.726 -1.3678  1.7023 -0.0464
  109OSM    C2S11186   0.404   2.372  10.825  0.4706  0.1945  0.0110
  109OSM    H2S11187   0.454   2.472  10.824  1.5213 -0.3236 -0.2808
  109OSM    C3S11188   0.484   2.289  10.723  0.2934 -0.5007 -0.2909
  109OSM    H3S11189   0.439   2.188  10.715 -2.3108  0.3653  1.9333
  109OSM     O311190   0.620   2.272  10.765  0.0441  0.1023 -0.0950
  109OSM    HO311191   0.612   2.304  10.856 -1.4682 -0.2335 -0.0811
  109OSM    C4S11192   0.469   2.352  10.587 -0.1288  0.2593  0.6161
  109OSM    H4S11193   0.389   2.311  10.524 -0.7236  0.5364  1.1843
  109OSM    C5S11194   0.539   2.463  10.541  1.4680 -0.2613 -0.0242
  109OSM    H5S11195   0.596   2.526  10.610  4.0271 -0.6292 -1.6705
  109OSM    C6S11196   0.521   2.540  10.410  0.2525 -0.3301 -0.3944
  109OSM    H6S11197   0.616   2.531  10.352  0.2721  1.7549 -0.7505
  109OSM    H6T11198   0.505   2.648  10.432 -0.8884 -0.3234 -1.1970
  109OSM    C7S11199   0.410   2.510  10.310  0.4320 -0.1835 -0.3688
  109OSM    H7S11200   0.320   2.569  10.337  0.8574 -0.0447  0.8161
  109OSM    H7T11201   0.385   2.402  10.316  0.7953 -0.2871 -0.7044
  109OSM    C8S11202   0.446   2.548  10.166  0.3575  0.1969 -0.0245
  109OSM    H8S11203   0.528   2.482  10.129 -0.6117 -0.7908 -0.4719
  109OSM    H8T11204   0.476   2.655  10.165  0.3975  0.2422  1.8965
  109OSM    C9S11205   0.330   2.533  10.065  0.5148  0.0821 -0.1187
  109OSM    H9S11206   0.242   2.599  10.082  0.7093  0.0055  1.2783
  109OSM    H9T11207   0.300   2.429  10.090  1.9637 -0.2901  0.1531
  109OSM   C10S11208   0.362   2.554   9.921 -1.0290 -0.0835 -0.4186
  109OSM   H10S11209   0.449   2.490   9.893 -0.3530  1.3475 -1.7303
  109OSM   H10T11210   0.397   2.659   9.914 -0.3991  0.0554  3.1810
  109OSM   C11S11211   0.244   2.525   9.830  0.3090 -0.0830  0.0142
  109OSM   H11S11212   0.167   2.600   9.859 -0.3420 -1.0870  0.9546
  109OSM   H11T11213   0.194   2.426   9.839  0.3060 -0.1973 -1.1128
  109OSM   C12S11214   0.257   2.563   9.677  0.5947 -0.0369 -0.3194
  109OSM   H12S11215   0.336   2.641   9.674  0.2387  0.3482  0.1431
  109OSM   H12T11216   0.169   2.619   9.640  0.4695  1.4203  1.9428
  109OSM   C13S11217   0.277   2.445   9.582 -0.6032 -0.1510 -0.5053
  109OSM   H13S11218   0.188   2.380   9.588 -2.4339  2.2882  0.2746
  109OSM   H13T11219   0.366   2.393   9.625 -1.3954 -1.0496  0.0812
  109OSM   C14S11220   0.295   2.479   9.436  0.5141 -0.5529 -0.5274
  109OSM   H14S11221   0.377   2.553   9.423 -0.8125  0.8024 -1.6679
  109OSM   H14T11222   0.205   2.517   9.383 -1.2955 -0.8286  2.1776
  109OSM   C15S11223   0.348   2.355   9.363 -0.2973 -0.8011 -0.6153
  109OSM   H15S11224   0.265   2.281   9.356 -1.1145 -0.0442  0.6575
  109OSM   H15T11225   0.430   2.315   9.427 -1.2318 -0.0633  1.1193
  109OSM   C16S11226   0.399   2.389   9.222  0.5662 -0.0921 -0.1636
  109OSM   H16S11227   0.494   2.445   9.228 -0.9590  2.7606 -0.9713
  109OSM   H16T11228   0.317   2.446   9.175  1.1956  0.7205 -0.2923
  109OSM   C17S11229   0.422   2.256   9.140  0.1516 -0.2233 -0.5536
  109OSM   H17S11230   0.329   2.197   9.148 -1.4426  1.8833 -2.2766
  109OSM   H17T11231   0.511   2.201   9.178  0.3918  0.4918 -0.0502
  109OSM   C18S11232   0.440   2.299   8.990  0.0020  0.5855  0.3643
  109OSM   H18S11233   0.484   2.220   8.925  0.1386  0.3749  0.7123
  109OSM   H18T11234   0.515   2.381   8.989  1.4170 -0.6313  1.9295
  109OSM   H18U11235   0.343   2.317   8.939 -0.2004 -0.0857  0.5050
  109OSM    C1F11236   0.187   2.473  10.842  0.4645  0.4220  0.5619
  109OSM     OF11237   0.241   2.572  10.892  0.2132  0.1513  0.0824
  109OSM    C2F11238   0.043   2.480  10.808  1.5580  0.3775  1.0189
  109OSM    H2F11239  -0.020   2.466  10.898 -1.4085 -0.4250 -1.0461
  109OSM    H2G11240   0.015   2.387  10.755 -0.1354  0.6007  1.4764
  109OSM    C3F11241  -0.009   2.613  10.740  0.2252 -0.0267  0.1531
  109OSM    H3F11242  -0.018   2.698  10.812  0.6631  1.3502 -1.3510
  109OSM    H3G11243  -0.109   2.583  10.700  1.1202 -1.3309 -1.2034
  109OSM    C4F11244   0.088   2.668  10.635  0.5388  0.0568  0.1097
  109OSM    H4F11245   0.123   2.584  10.572 -1.6332 -0.0301 -1.0506
  109OSM    H4G11246   0.173   2.711  10.692  0.3056  0.6944 -0.0101
  109OSM    C5F11247   0.038   2.790  10.545 -0.3716 -0.3211 -0.3706
  109OSM    H5F11248   0.027   2.877  10.614 -0.9766 -0.2964 -0.4852
  109OSM    H5G11249  -0.068   2.781  10.512 -1.5649  0.0453  2.9534
  109OSM    C6F11250   0.146   2.823  10.440  0.0144  0.2884 -0.0400
  109OSM    H6F11251   0.160   2.725  10.390 -0.7971 -0.9302  1.9905
  109OSM    H6G11252   0.232   2.847  10.506  1.0039 -3.1558  0.0841
  109OSM    C7F11253   0.104   2.942  10.356 -0.2319  0.3870  0.4151
  109OSM    H7F11254   0.074   3.029  10.418 -1.2704  0.2753  0.0837
  109OSM    H7G11255   0.010   2.917  10.302 -0.6630  2.3266  0.2043
  109OSM    C8F11256   0.205   2.986  10.254 -0.6050 -0.4436  0.0356
  109OSM    H8F11257   0.238   2.894  10.202  2.1562  1.0030 -0.9466
  109OSM    H8G11258   0.300   3.014  10.304  0.7607  1.8316 -3.4854
  109OSM    C9F11259   0.167   3.103  10.173 -0.1031 -0.0767 -0.6479
  109OSM    H9F11260   0.115   3.187  10.223  1.1439  0.8943 -0.9326
  109OSM   C10F11261   0.191   3.113  10.041  0.2551 -0.2824 -0.0785
  109OSM   H10F11262   0.179   3.207   9.984  2.3024  0.0103 -0.0964
  109OSM   C11F11263   0.250   3.002   9.958  0.9672 -0.3617  0.0854
  109OSM   H11F11264   0.285   2.916  10.019  0.3795 -0.4020  0.3693
  109OSM   H11G11265   0.338   3.045   9.906 -0.1046  1.8767  0.0259
  109OSM   C12F11266   0.155   2.947   9.847  0.0396  0.0254  0.2451
  109OSM   H12F11267   0.076   2.896   9.906 -1.0748 -0.4879 -1.6125
  109OSM   H12G11268   0.206   2.869   9.786  1.6601  0.2395  1.2655
  109OSM   C13F11269   0.086   3.058   9.759  0.3409 -0.2561 -0.4025
  109OSM   H13F11270   0.064   3.149   9.819  0.4063 -0.5886  0.1363
  109OSM   H13G11271  -0.017   3.023   9.735  0.3418 -1.2709  0.9251
  109OSM   C14F11272   0.172   3.088   9.639  0.8727  0.0642  0.3026
  109OSM   H14F11273   0.279   3.082   9.669  0.9388  0.9940  0.2833
  109OSM   H14G11274   0.165   3.195   9.609  1.1691  0.9864  3.2063
  109OSM   C15F11275   0.154   2.991   9.523 -0.0726  0.0663  0.2068
  109OSM   H15F11276   0.054   3.014   9.481 -0.9342  0.0391  2.1635
  109OSM   H15G11277   0.165   2.889   9.565 -1.2561 -0.3002 -0.3226
  109OSM   C16F11278   0.273   3.022   9.427  0.5293  0.2932  0.1410
  109OSM   H16F11279   0.370   3.013   9.480  0.8859  1.0199 -0.3701
  109OSM   H16G11280   0.262   3.129   9.398 -0.1927 -0.4982 -2.8333
  109OSM   C17F11281   0.261   2.946   9.299 -0.7188 -0.4178  0.0450
  109OSM   H17F11282   0.328   2.989   9.221  0.7364 -1.1987  0.8241
  109OSM   H17G11283   0.156   2.960   9.265 -0.7095  1.3600  0.6166
  109OSM   C18F11284   0.293   2.793   9.316  0.1484 -0.0093 -0.1345
  109OSM   H18F11285   0.390   2.778   9.367  0.7657  1.5325 -0.7989
  109OSM   H18G11286   0.296   2.744   9.216  0.5086  1.0104 -0.6320
  109OSM   H18H11287   0.214   2.744   9.377 -1.3063 -0.4966 -2.2912
  110OSM      N11288   1.293   2.252  11.683 -0.0839  0.3318  0.4845
  110OSM    C1511289   1.308   2.142  11.782 -0.1430  0.1189  0.1112
  110OSM   H15A11290   1.250   2.170  11.869 -0.8114 -1.4214  0.1870
  110OSM   H15B11291   1.412   2.150  11.810  0.5761 -2.5348 -1.5295
  110OSM   H15C11292   1.300   2.037  11.757  3.0654 -0.0864 -0.3919
  110OSM    C1411293   1.151   2.260  11.642 -0.1553  0.1559 -0.1357
  110OSM   H14A11294   1.083   2.287  11.722  0.1775  1.5046 -0.2881
  110OSM   H14B11295   1.107   2.174  11.594 -1.9748  0.3432  1.1032
  110OSM   H14C11296   1.144   2.339  11.569 -0.6047  3.2620  2.9988
  110OSM    C1311297   1.326   2.390  11.741  0.4453  0.1924 -0.7245
  110OSM   H13A11298   1.246   2.422  11.805 -0.4488 -0.7697 -1.3302
  110OSM   H13B11299   1.327   2.457  11.656  1.8670  0.6326 -0.3912
  110OSM   H13C11300   1.426   2.387  11.782 -0.1930 -2.6159  0.8732
  110OSM    C1211301   1.388   2.224  11.572 -0.7792  0.8985  0.7952
  110OSM   H12A11302   1.349   2.138  11.520 -1.0692  2.4971 -1.8263
  110OSM   H12B11303   1.487   2.196  11.605 -0.4295 -1.2268 -1.7394
  110OSM    C1111304   1.409   2.328  11.459 -0.2677  0.1898 -0.3805
  110OSM   H11A11305   1.476   2.285  11.382 -0.7284 -2.7258  0.7125
  110OSM   H11B11306   1.470   2.414  11.495 -2.3127  1.9208 -0.8244
  110OSM      P11307   1.260   2.525  11.365 -0.4251 -0.3469 -0.1094
  110OSM    O1311308   1.129   2.525  11.306  0.4457 -0.3784  0.4315
  110OSM    O1411309   1.270   2.609  11.487 -0.1841 -0.7715  0.5841
  110OSM    O1111310   1.369   2.563  11.252  0.4428 -0.6392 -0.2865
  110OSM    O1211311   1.285   2.379  11.403  0.1400 -0.4772 -0.1968
  110OSM    C1S11312   1.406   2.469  11.155  0.2287 -0.2540 -0.4451
  110OSM    H1S11313   1.317   2.416  11.115  0.4669  0.0281 -1.3610
  110OSM    H1T11314   1.487   2.404  11.196  0.1374  0.3504  0.7400
  110OSM     NF11315   1.496   2.424  10.929 -0.1156 -0.2610 -0.0795
  110OSM    HNF11316   1.593   2.415  10.912  0.4071  1.3218  1.6590
  110OSM    C2S11317   1.462   2.532  11.022  0.0952 -0.1512 -0.3449
  110OSM    H2S11318   1.373   2.584  10.980 -0.5598  0.1724  1.3795
  110OSM    C3S11319   1.580   2.633  11.052  0.5160 -0.0020 -0.2683
  110OSM    H3S11320   1.660   2.569  11.095  0.2027  0.2441  0.7056
  110OSM     O311321   1.547   2.736  11.145 -0.5351 -0.1311 -0.8688
  110OSM    HO311322   1.463   2.712  11.185 -0.3937  1.0140  0.1733
  110OSM    C4S11323   1.636   2.695  10.931  0.0827 -0.2671  0.4514
  110OSM    H4S11324   1.703   2.634  10.869  0.2413 -0.8298  1.1601
  110OSM    C5S11325   1.605   2.814  10.880  0.1088  0.1532  0.3004
  110OSM    H5S11326   1.535   2.883  10.930  0.9831  0.1835  1.5020
  110OSM    C6S11327   1.671   2.876  10.760 -0.0931 -0.0215  0.2977
  110OSM    H6S11328   1.697   2.984  10.770 -1.1279  0.5087 -2.1446
  110OSM    H6T11329   1.600   2.882  10.675 -1.6109  0.0632  1.5262
  110OSM    C7S11330   1.797   2.803  10.702 -0.3919 -0.1862 -0.2079
  110OSM    H7S11331   1.772   2.697  10.677  0.7754 -0.0161 -2.3260
  110OSM    H7T11332   1.871   2.801  10.785 -3.0864 -2.8600  2.4145
  110OSM    C8S11333   1.867   2.874  10.578 -0.2484  0.7324 -0.3538
  110OSM    H8S11334   1.885   2.982  10.598  1.1740  0.7423 -1.5873
  110OSM    H8T11335   1.786   2.868  10.502 -1.6707 -0.2835  1.1699
  110OSM    C9S11336   1.993   2.808  10.535 -0.2926 -0.5562  0.2072
  110OSM    H9S11337   1.964   2.707  10.500  1.1362 -1.4196  1.4296
  110OSM    H9T11338   2.065   2.796  10.618 -0.1850 -1.9849 -0.0720
  110OSM   C10S11339   2.068   2.888  10.424  0.1138  0.2879 -0.5409
  110OSM   H10S11340   2.170   2.849  10.401  2.5979  4.5513  1.8974
  110OSM   H10T11341   2.085   2.992  10.459 -1.7109  0.6617 -0.6634
  110OSM   C11S11342   1.991   2.887  10.294 -0.2358 -0.2417  0.5286
  110OSM   H11S11343   1.888   2.921  10.318 -0.7506 -0.8064 -0.8057
  110OSM   H11T11344   1.984   2.780  10.265  1.2088 -0.4599  0.8846
  110OSM   C12S11345   2.060   2.975  10.184  0.2343 -0.0603 -0.0382
  110OSM   H12S11346   2.159   2.926  10.175  0.7334  0.1420  3.0778
  110OSM   H12T11347   2.068   3.076  10.229 -1.5856 -0.2674  0.8373
  110OSM   C13S11348   1.984   2.997  10.057 -0.0816  0.7733  0.3160
  110OSM   H13S11349   1.874   2.998  10.070 -0.3276  1.5018 -1.4552
  110OSM   H13T11350   2.003   2.918   9.980 -1.4501  2.2455 -1.6388
  110OSM   C14S11351   2.014   3.133   9.993 -0.3724 -0.1133 -0.3707
  110OSM   H14S11352   2.125   3.138   9.988 -0.3223 -0.2925  0.4183
  110OSM   H14T11353   1.971   3.213  10.058 -0.4258 -1.4680  1.3297
  110OSM   C15S11354   1.951   3.121   9.854 -0.2038  1.1043  0.7138
  110OSM   H15S11355   1.840   3.128   9.860 -0.1063  2.5708  1.3936
  110OSM   H15T11356   1.962   3.020   9.809  0.2735  1.9648 -1.1541
  110OSM   C16S11357   2.019   3.227   9.758 -0.2941  0.3454 -0.0447
  110OSM   H16S11358   2.124   3.191   9.753 -0.0714  0.1616  3.4771
  110OSM   H16T11359   2.014   3.318   9.821  0.6477 -0.5750  1.4292
  110OSM   C17S11360   1.952   3.225   9.619 -0.2532 -1.2009 -0.6270
  110OSM   H17S11361   1.942   3.119   9.586 -0.2172 -0.7831 -2.0370
  110OSM   H17T11362   2.022   3.282   9.556  0.3545 -1.7883 -0.4971
  110OSM   C18S11363   1.809   3.289   9.617  0.1865  0.6532  0.3949
  110OSM   H18S11364   1.732   3.236   9.677 -0.6675 -0.3233 -1.4996
  110OSM   H18T11365   1.778   3.295   9.511  1.4957 -0.2655 -0.0645
  110OSM   H18U11366   1.808   3.395   9.649 -2.3678  0.8199 -0.0016
  110OSM    C1F11367   1.406   2.330  10.880 -0.1056 -0.2735 -0.3750
  110OSM     OF11368   1.290   2.356  10.883  0.6910  0.1152 -0.4382
  110OSM    C2F11369   1.463   2.208  10.832  0.6919  0.0474  0.1890
  110OSM    H2F11370   1.460   2.134  10.914 -1.8590  0.5261  0.6079
  110OSM    H2G11371   1.566   2.231  10.795  0.7049 -1.5021 -0.8430
  110OSM    C3F11372   1.402   2.141  10.706  0.2849  0.3251  0.0167
  110OSM    H3F11373   1.292   2.124  10.716  0.5246 -0.9312  0.8362
  110OSM    H3G11374   1.439   2.036  10.701 -1.1397 -0.1598 -0.9534
  110OSM    C4F11375   1.436   2.220  10.584 -0.2730 -0.6182  0.1096
  110OSM    H4F11376   1.544   2.241  10.574 -0.3600 -0.6865 -1.2005
  110OSM    H4G11377   1.374   2.311  10.596 -0.6610 -0.7059 -1.0919
  110OSM    C5F11378   1.386   2.161  10.452  0.3024 -0.3759  1.1459
  110OSM    H5F11379   1.276   2.144  10.443  0.5202 -1.6582  0.5929
  110OSM    H5G11380   1.420   2.055  10.444  2.0015  0.1839  0.5693
  110OSM    C6F11381   1.421   2.256  10.335  0.0382 -0.4465 -0.4441
  110OSM    H6F11382   1.532   2.253  10.322  0.1719  0.0023  0.4892
  110OSM    H6G11383   1.395   2.362  10.355  1.5098  0.0399 -0.9825
  110OSM    C7F11384   1.365   2.216  10.203  0.4415  0.1356  0.1475
  110OSM    H7F11385   1.256   2.237  10.189  0.7493  2.1935  0.4434
  110OSM    H7G11386   1.389   2.108  10.199  0.4648  0.1602 -2.9050
  110OSM    C8F11387   1.419   2.295  10.088  0.0140  0.5542 -0.7728
  110OSM    H8F11388   1.380   2.242   9.998  0.9145  0.4516 -1.1148
  110OSM    H8G11389   1.530   2.285  10.091 -0.0136  0.2841 -0.6740
  110OSM    C9F11390   1.389   2.440  10.087 -0.4632  0.3591  0.4158
  110OSM    H9F11391   1.408   2.490  10.184  0.5838 -1.1360  1.0044
  110OSM   C10F11392   1.315   2.495   9.991  0.1466 -0.4022 -0.8333
  110OSM   H10F11393   1.290   2.601  10.006  1.7176 -0.2576  1.1801
  110OSM   C11F11394   1.255   2.433   9.868  0.2684  0.2237 -0.7149
  110OSM   H11F11395   1.148   2.462   9.860  0.3344  0.9857  0.8473
  110OSM   H11G11396   1.245   2.322   9.863  2.0079 -0.0125  0.2275
  110OSM   C12F11397   1.331   2.493   9.745  0.7288  0.0096  0.0895
  110OSM   H12F11398   1.439   2.465   9.754  1.2768  0.6400 -3.1849
  110OSM   H12G11399   1.328   2.604   9.737  3.2315  0.0896 -0.7378
  110OSM   C13F11400   1.278   2.429   9.614 -0.0496  0.1365 -0.6139
  110OSM   H13F11401   1.171   2.452   9.595 -0.1158  2.4263  1.9283
  110OSM   H13G11402   1.291   2.322   9.643 -1.2103  0.7064  2.3936
  110OSM   C14F11403   1.372   2.450   9.489  0.0529  0.5251  0.3009
  110OSM   H14F11404   1.476   2.464   9.523 -0.0271  0.6749  0.4824
  110OSM   H14G11405   1.348   2.543   9.433  1.4696 -1.0256 -3.1675
  110OSM   C15F11406   1.358   2.334   9.383 -0.8141 -0.8846 -0.2035
  110OSM   H15F11407   1.265   2.353   9.326 -0.5452  1.8791  0.1174
  110OSM   H15G11408   1.335   2.234   9.424  0.4715 -1.5418 -0.9913
  110OSM   C16F11409   1.479   2.322   9.298  0.3205 -0.1337 -0.7718
  110OSM   H16F11410   1.575   2.286   9.341 -0.1785  0.0011  0.4948
  110OSM   H16G11411   1.506   2.420   9.253 -1.1592  1.1712  1.0180
  110OSM   C17F11412   1.444   2.233   9.186  0.3147 -0.6673  0.3570
  110OSM   H17F11413   1.362   2.274   9.123  0.4058 -1.9934 -0.6753
  110OSM   H17G11414   1.410   2.131   9.215  1.8085 -1.8423 -1.7208
  110OSM   C18F11415   1.566   2.211   9.096  0.5842 -0.1439  0.5966
  110OSM   H18F11416   1.649   2.164   9.153 -1.4535 -1.4041  2.6917
  110OSM   H18G11417   1.597   2.306   9.047 -1.9812  0.3415 -0.2337
  110OSM   H18H11418   1.549   2.137   9.015 -1.0020 -0.0790  0.8351
  111OSM      N11419   1.988   0.493  11.104  0.5778 -0.2188 -0.0211
  111OSM    C1511420   2.031   0.606  11.022 -0.0504  0.4424 -0.1544
  111OSM   H15A11421   2.139   0.606  11.013 -0.1525  3.0510 -3.1793
  111OSM   H15B11422   2.000   0.704  11.057 -1.7998  0.3179 -1.2562
  111OSM   H15C11423   2.003   0.586  10.919 -1.2193  0.4474  0.1542
  111OSM    C1411424   2.039   0.369  11.045  0.0894  0.1013 -0.7049
  111OSM   H14A11425   2.017   0.289  11.114  0.7584  0.6262  0.1293
  111OSM   H14B11426   2.144   0.360  11.024 -0.0635 -2.9835 -0.6695
  111OSM   H14C11427   1.991   0.358  10.949 -0.7406  1.6976 -0.5019
  111OSM    C1311428   2.037   0.518  11.243  0.2857  0.2063  0.1934
  111OSM   H13A11429   2.013   0.436  11.309  2.6508  0.4863  1.5273
  111OSM   H13B11430   1.996   0.611  11.279  1.9614  1.3388 -0.6868
  111OSM   H13C11431   2.143   0.541  11.249 -0.1875  2.1361  2.8813
  111OSM    C1211432   1.834   0.489  11.114 -0.0737 -0.4033 -0.1595
  111OSM   H12A11433   1.796   0.468  11.015 -1.2583 -3.4431  0.8309
  111OSM   H12B11434   1.792   0.584  11.141  1.0926 -0.0318  0.4105
  111OSM    C1111435   1.782   0.380  11.212 -0.2570 -0.7525 -0.3907
  111OSM   H11A11436   1.672   0.386  11.230 -0.0085  0.2062  0.9737
  111OSM   H11B11437   1.824   0.387  11.315 -1.4165 -1.0016  0.1225
  111OSM      P11438   1.719   0.195  11.034  0.6071  0.0075 -0.2959
  111OSM    O1311439   1.604   0.124  11.091 -0.2595  0.5417  0.3244
  111OSM    O1411440   1.688   0.308  10.937 -0.2717  0.3246 -0.1205
  111OSM    O1111441   1.822   0.093  10.963 -0.5737 -0.3260 -0.4749
  111OSM    O1211442   1.806   0.248  11.164  0.2242 -0.4236 -0.3706
  111OSM    C1S11443   1.781   0.007  10.859  0.3576  0.5938  0.2740
  111OSM    H1S11444   1.674   0.024  10.835  0.4796  1.6427  0.4175
  111OSM    H1T11445   1.799  -0.102  10.871 -1.4013 -0.5167 -4.7335
  111OSM     NF11446   1.810  -0.034  10.614  0.2131  0.6852  0.0870
  111OSM    HNF11447   1.864  -0.118  10.606  1.4022  1.2974  1.2350
  111OSM    C2S11448   1.860   0.048  10.729  0.0527 -0.1432  0.6422
  111OSM    H2S11449   1.854   0.157  10.712  1.2671 -0.2441 -0.6650
  111OSM    C3S11450   2.017   0.040  10.741  0.9130  0.0962 -0.2626
  111OSM    H3S11451   2.038  -0.068  10.750 -2.7674 -0.6993  0.4686
  111OSM     O311452   2.079   0.105  10.856 -0.9496  0.7887  0.2183
  111OSM    HO311453   2.006   0.127  10.914  2.0141  1.7104  3.9635
  111OSM    C4S11454   2.081   0.086  10.611 -0.1071 -0.0911 -0.4135
  111OSM    H4S11455   2.040   0.178  10.567  0.2900 -1.0321 -2.9312
  111OSM    C5S11456   2.184   0.032  10.545 -0.0776 -0.6223  0.0763
  111OSM    H5S11457   2.237  -0.060  10.571  3.5301  0.9832 -0.7999
  111OSM    C6S11458   2.231   0.096  10.416 -0.1444  0.1640 -0.0720
  111OSM    H6S11459   2.342   0.094  10.415 -0.1147  1.1259  0.1285
  111OSM    H6T11460   2.193   0.201  10.412 -2.2094 -0.5790 -1.6799
  111OSM    C7S11461   2.201   0.033  10.279 -0.2245 -0.1557 -0.6337
  111OSM    H7S11462   2.099  -0.011  10.268 -1.0340  1.2234  0.9262
  111OSM    H7T11463   2.278  -0.045  10.261  0.1248 -0.0682  0.4425
  111OSM    C8S11464   2.213   0.146  10.173 -0.8663  0.5855  0.2875
  111OSM    H8S11465   2.314   0.192  10.178  0.0709 -1.4028  0.7037
  111OSM    H8T11466   2.144   0.227  10.203  0.8360  1.4111  2.2424
  111OSM    C9S11467   2.171   0.096  10.035 -0.5976 -0.6869 -0.1084
  111OSM    H9S11468   2.076   0.040  10.048  0.1403 -1.5319  2.4063
  111OSM    H9T11469   2.250   0.026   9.999  1.0814  0.9061  0.3307
  111OSM   C10S11470   2.151   0.204   9.927  0.0645  0.6207 -0.0330
  111OSM   H10S11471   2.249   0.249   9.901 -0.0444  1.7200  1.3051
  111OSM   H10T11472   2.085   0.288   9.958  0.5366  0.7715  0.6018
  111OSM   C11S11473   2.082   0.145   9.802 -0.1412 -0.2287  0.1203
  111OSM   H11S11474   1.982   0.104   9.829 -0.7533  1.6760  0.9902
  111OSM   H11T11475   2.150   0.063   9.772  2.7911  1.8326  0.6843
  111OSM   C12S11476   2.066   0.254   9.694  0.2696 -0.2258  0.3106
  111OSM   H12S11477   2.150   0.326   9.702 -1.9911  2.6125  0.1219
  111OSM   H12T11478   1.973   0.308   9.721 -0.8642  0.0291 -3.5058
  111OSM   C13S11479   2.043   0.202   9.553 -0.3180 -0.2197 -0.2265
  111OSM   H13S11480   1.948   0.147   9.539  0.1046 -0.4293 -2.6145
  111OSM   H13T11481   2.131   0.135   9.540 -0.2814 -0.4222  0.9374
  111OSM   C14S11482   2.040   0.312   9.444  0.3460 -0.9756 -0.4600
  111OSM   H14S11483   2.136   0.367   9.447 -0.1805 -0.0234 -0.6078
  111OSM   H14T11484   1.960   0.384   9.473  2.5351  1.0852  0.8370
  111OSM   C15S11485   2.034   0.240   9.304  0.4310 -0.4789 -0.0431
  111OSM   H15S11486   1.952   0.166   9.307  2.7125 -3.1433  0.5178
  111OSM   H15T11487   2.120   0.170   9.300 -1.0833 -2.5054  1.1006
  111OSM   C16S11488   2.046   0.327   9.181  0.1876 -0.2499 -0.1287
  111OSM   H16S11489   2.030   0.263   9.091  1.8090 -2.2917  0.9396
  111OSM   H16T11490   2.136   0.391   9.173  0.1907 -0.0880  1.0868
  111OSM   C17S11491   1.928   0.426   9.169  0.0418  0.2042  0.1086
  111OSM   H17S11492   1.938   0.507   9.245  0.4309  1.2501 -1.0191
  111OSM   H17T11493   1.830   0.378   9.188  1.6508 -3.3078  0.3108
  111OSM   C18S11494   1.919   0.494   9.031  0.1872  0.0592 -0.6718
  111OSM   H18S11495   1.876   0.417   8.964 -0.4605  0.3483 -0.6028
  111OSM   H18T11496   2.020   0.515   8.989  0.0779  0.3178 -0.8130
  111OSM   H18U11497   1.850   0.581   9.019 -0.5842 -0.4431  0.0252
  111OSM    C1F11498   1.689  -0.027  10.561  0.8692 -0.2698  0.3028
  111OSM     OF11499   1.634   0.081  10.571  0.2169  0.9558  0.5586
  111OSM    C2F11500   1.622  -0.147  10.492  0.0567  0.4240 -0.0844
  111OSM    H2F11501   1.570  -0.213  10.566  2.1872 -1.3446 -0.0629
  111OSM    H2G11502   1.694  -0.218  10.447 -1.1571  0.1270 -1.6185
  111OSM    C3F11503   1.531  -0.109  10.377  0.0006 -0.2368  0.4687
  111OSM    H3F11504   1.588  -0.029  10.324 -0.8573  0.8045  1.0956
  111OSM    H3G11505   1.444  -0.053  10.417  0.3305  0.8213 -0.2606
  111OSM    C4F11506   1.501  -0.228  10.280 -0.0618 -0.0230 -0.8219
  111OSM    H4F11507   1.439  -0.295  10.343  0.6785 -0.6658 -0.7722
  111OSM    H4G11508   1.600  -0.274  10.264 -0.2089 -1.2799  1.3829
  111OSM    C5F11509   1.437  -0.216  10.142  0.3791 -0.4418  0.0704
  111OSM    H5F11510   1.339  -0.164  10.143  1.0181  0.7839  0.5897
  111OSM    H5G11511   1.426  -0.320  10.104 -0.7223 -0.1067 -0.5648
  111OSM    C6F11512   1.523  -0.147  10.035 -0.1699  0.4662 -0.3167
  111OSM    H6F11513   1.609  -0.212  10.010 -1.6157 -1.6500 -0.0210
  111OSM    H6G11514   1.563  -0.057  10.087 -0.1218  1.0869 -1.4112
  111OSM    C7F11515   1.439  -0.115   9.912 -0.2308  0.2002  0.0194
  111OSM    H7F11516   1.343  -0.064   9.933  0.7539  1.7453  1.0161
  111OSM    H7G11517   1.418  -0.202   9.846  1.5542  0.5782 -1.1429
  111OSM    C8F11518   1.511  -0.013   9.819 -0.9271  0.7096 -1.0155
  111OSM    H8F11519   1.528   0.083   9.873 -1.8582 -0.5709  1.7575
  111OSM    H8G11520   1.434   0.008   9.742 -1.3930 -1.8922 -1.3532
  111OSM    C9F11521   1.645  -0.057   9.756  0.5907  0.4559 -0.0180
  111OSM    H9F11522   1.725  -0.077   9.829  1.1203 -1.1478 -0.9920
  111OSM   C10F11523   1.670  -0.078   9.628 -0.7361  0.0898 -0.5745
  111OSM   H10F11524   1.772  -0.097   9.593 -1.8743 -2.6551 -2.8236
  111OSM   C11F11525   1.583  -0.064   9.508 -0.2504  0.3289  0.1291
  111OSM   H11F11526   1.475  -0.065   9.532 -0.7210 -2.4017 -1.7439
  111OSM   H11G11527   1.590  -0.150   9.439 -0.4063 -2.1531  2.9808
  111OSM   C12F11528   1.627   0.069   9.451  0.1775  0.0183 -0.1881
  111OSM   H12F11529   1.728   0.065   9.405  0.8231  0.7984  1.0925
  111OSM   H12G11530   1.624   0.155   9.522  0.0086  0.5291 -0.8008
  111OSM   C13F11531   1.543   0.104   9.330  0.3127 -0.4487  0.3770
  111OSM   H13F11532   1.438   0.099   9.366  0.5608 -2.9655  0.9510
  111OSM   H13G11533   1.548   0.033   9.244 -2.4945 -0.6039  0.2428
  111OSM   C14F11534   1.575   0.249   9.287 -0.0207  1.3047 -0.6378
  111OSM   H14F11535   1.682   0.277   9.294  0.6818 -1.5199  1.8856
  111OSM   H14G11536   1.538   0.323   9.361 -0.7618 -0.4453  0.8138
  111OSM   C15F11537   1.533   0.280   9.145 -0.4945 -0.4964  0.6103
  111OSM   H15F11538   1.523   0.390   9.140  0.7391 -0.3957  0.1487
  111OSM   H15G11539   1.427   0.251   9.126 -0.2409  0.1894 -2.1571
  111OSM   C16F11540   1.618   0.215   9.033 -0.8868  0.2971  0.1399
  111OSM   H16F11541   1.656   0.117   9.069  1.2260  0.5622 -1.2078
  111OSM   H16G11542   1.712   0.274   9.032 -0.8992  0.3109 -0.3638
  111OSM   C17F11543   1.550   0.208   8.900  0.0023 -0.6112 -1.2700
  111OSM   H17F11544   1.450   0.164   8.923  1.1337 -1.9006  1.7341
  111OSM   H17G11545   1.611   0.132   8.847 -0.7984 -0.3841 -2.5816
  111OSM   C18F11546   1.549   0.347   8.833 -0.1826 -0.1490 -0.0938
  111OSM   H18F11547   1.653   0.386   8.836  0.1733 -1.1397  1.1689
  111OSM   H18G11548   1.489   0.414   8.898  0.4882  1.1769 -0.8033
  111OSM   H18H11549   1.514   0.336   8.728  0.7789 -1.8971 -0.2613
  112OSM      N11550   1.461   4.719  11.248  0.9633  0.0101  0.0336
  112OSM    C1511551   1.343   4.809  11.231  0.0924 -0.2674 -0.1715
  112OSM   H15A11552   1.369   4.883  11.158  0.3330  0.0382  0.2225
  112OSM   H15B11553   1.328   4.859  11.326 -0.2240 -2.5506  1.0711
  112OSM   H15C11554   1.252   4.754  11.209 -0.2451  0.1658  0.1286
  112OSM    C1411555   1.579   4.801  11.281 -0.1748  0.1477  0.0452
  112OSM   H14A11556   1.666   4.743  11.257  0.5214  2.1418 -2.9011
  112OSM   H14B11557   1.576   4.837  11.383 -1.0728  2.1997 -0.6494
  112OSM   H14C11558   1.585   4.881  11.208 -0.1489  0.1920  0.0960
  112OSM    C1311559   1.444   4.614  11.357  0.4108  0.1085 -0.2257
  112OSM   H13A11560   1.395   4.641  11.449  1.1777  3.4576 -0.6748
  112OSM   H13B11561   1.541   4.577  11.390 -0.6483 -1.1419  1.6777
  112OSM   H13C11562   1.394   4.528  11.313  2.3122 -1.5402  0.6662
  112OSM    C1211563   1.490   4.646  11.110 -0.7649  0.1489  0.4838
  112OSM   H12A11564   1.577   4.583  11.123  0.2514  0.8429 -2.3107
  112OSM   H12B11565   1.517   4.716  11.033  0.2502 -1.0452 -0.2936
  112OSM    C1111566   1.388   4.550  11.044 -0.8065 -0.1699  0.2373
  112OSM   H11A11567   1.433   4.503  10.954  3.7046  0.8311  1.7113
  112OSM   H11B11568   1.313   4.625  11.009 -0.6655 -0.1797 -0.0871
  112OSM      P11569   1.177   4.427  11.124 -0.1140  0.1043 -0.0645
  112OSM    O1311570   1.151   4.303  11.199  0.2986 -0.3411 -0.0131
  112OSM    O1411571   1.099   4.542  11.172 -0.0831  0.7985  0.2786
  112OSM    O1111572   1.150   4.411  10.971 -0.2601 -0.3027 -1.0634
  112OSM    O1211573   1.336   4.451  11.135  0.1800  0.6393  0.3909
  112OSM    C1S11574   1.195   4.304  10.888  0.2039 -0.1429  0.0833
  112OSM    H1S11575   1.147   4.214  10.931 -0.9834  0.0722 -0.7233
  112OSM    H1T11576   1.305   4.286  10.889  0.8942  2.9224 -1.9460
  112OSM     NF11577   1.170   4.219  10.669  0.2786  0.4024 -0.4405
  112OSM    HNF11578   1.263   4.214  10.633  0.4009  0.2447 -0.1011
  112OSM    C2S11579   1.146   4.336  10.741 -0.1604  0.2380  0.9498
  112OSM    H2S11580   1.037   4.357  10.737 -0.3006  0.0890  2.8991
  112OSM    C3S11581   1.205   4.462  10.673 -0.3392 -0.5491 -0.7277
  112OSM    H3S11582   1.311   4.478  10.703 -0.9328  1.1855  0.5566
  112OSM     O311583   1.135   4.578  10.727  0.2656 -0.2614  0.0481
  112OSM    HO311584   1.085   4.543  10.802  1.8790 -1.3445  0.6880
  112OSM    C4S11585   1.195   4.471  10.524  0.4929 -0.0014 -0.4042
  112OSM    H4S11586   1.105   4.516  10.480  0.5261 -0.4179 -0.9174
  112OSM    C5S11587   1.292   4.434  10.437 -0.0978  0.1122 -0.2207
  112OSM    H5S11588   1.384   4.398  10.486 -1.4149  0.8253  3.0410
  112OSM    C6S11589   1.276   4.444  10.285  0.3245  0.0471 -0.5303
  112OSM    H6S11590   1.296   4.343  10.243  0.2008 -0.5090  0.6899
  112OSM    H6T11591   1.362   4.501  10.242  1.3420 -0.8119  0.3034
  112OSM    C7S11592   1.145   4.503  10.232  0.8479 -0.0204  0.3195
  112OSM    H7S11593   1.107   4.598  10.275  0.8115 -0.0243  0.2960
  112OSM    H7T11594   1.069   4.423  10.245  1.1511  0.1047  3.8270
  112OSM    C8S11595   1.145   4.531  10.079 -0.2720  0.2260 -0.0131
  112OSM    H8S11596   1.208   4.617  10.048  0.5226 -0.1928  0.4057
  112OSM    H8T11597   1.045   4.563  10.043  0.2578  0.6662 -1.1118
  112OSM    C9S11598   1.185   4.405  10.004  0.4549  0.1142  0.1201
  112OSM    H9S11599   1.132   4.318  10.047 -1.3474  1.2377  0.3001
  112OSM    H9T11600   1.293   4.385  10.014  0.9422  2.6905  0.7165
  112OSM   C10S11601   1.137   4.409   9.858 -0.1619  1.0376 -0.5321
  112OSM   H10S11602   1.187   4.495   9.809 -0.3433  0.1310 -2.3934
  112OSM   H10T11603   1.028   4.428   9.873  0.0918  0.7425  2.0680
  112OSM   C11S11604   1.182   4.288   9.778 -0.2978  0.5248 -0.2438
  112OSM   H11S11605   1.131   4.196   9.813 -1.6967  1.5717  0.5988
  112OSM   H11T11606   1.292   4.275   9.778 -0.0020  2.3615  2.0663
  112OSM   C12S11607   1.137   4.284   9.625 -0.0778  0.3058  0.1407
  112OSM   H12S11608   1.177   4.379   9.583 -0.0656 -0.0985 -0.7936
  112OSM   H12T11609   1.028   4.306   9.620 -0.0523  0.3045 -0.5301
  112OSM   C13S11610   1.175   4.153   9.551  0.5392 -0.8194  0.1547
  112OSM   H13S11611   1.130   4.067   9.605  0.9857  0.2352  2.3190
  112OSM   H13T11612   1.284   4.146   9.572  0.1896 -0.3295  2.3662
  112OSM   C14S11613   1.117   4.141   9.410  0.0230  0.2706 -0.6020
  112OSM   H14S11614   1.168   4.219   9.351  1.7627  0.6827  1.3240
  112OSM   H14T11615   1.007   4.149   9.399 -0.1840 -2.6348 -1.4664
  112OSM   C15S11616   1.150   4.010   9.339 -1.0528  0.2854  0.1164
  112OSM   H15S11617   1.098   4.004   9.241 -0.1952  0.3969 -0.3543
  112OSM   H15T11618   1.112   3.932   9.409  1.1042  1.4271  2.7628
  112OSM   C16S11619   1.298   4.006   9.309 -0.4212  0.1858  0.0100
  112OSM   H16S11620   1.364   3.996   9.398  0.1598  0.8686 -0.3301
  112OSM   H16T11621   1.319   4.103   9.259  0.7831 -0.3488 -0.5737
  112OSM   C17S11622   1.331   3.904   9.190 -0.6317  0.2560 -0.6912
  112OSM   H17S11623   1.430   3.928   9.145 -0.4987 -0.3228 -0.7216
  112OSM   H17T11624   1.251   3.933   9.119 -1.6134  0.0505  0.3063
  112OSM   C18S11625   1.301   3.758   9.232 -0.4048 -0.0885  0.4255
  112OSM   H18S11626   1.308   3.683   9.151  3.3020  0.3031  0.2280
  112OSM   H18T11627   1.199   3.759   9.275 -1.2428  0.9711 -1.4629
  112OSM   H18U11628   1.383   3.727   9.301  1.9459  0.9886 -1.7323
  112OSM    C1F11629   1.109   4.105  10.685 -0.0995  0.3796  0.8542
  112OSM     OF11630   1.002   4.107  10.746  0.3566  0.1334 -0.8056
  112OSM    C2F11631   1.175   3.989  10.628  0.6747 -0.0974  0.9273
  112OSM    H2F11632   1.209   3.923  10.712 -0.0154 -1.3928  0.2273
  112OSM    H2G11633   1.262   4.025  10.569  0.8300 -1.8391  0.0027
  112OSM    C3F11634   1.079   3.908  10.526 -1.0334 -0.2320  0.3503
  112OSM    H3F11635   0.981   3.889  10.573 -1.1680  1.0319  0.6222
  112OSM    H3G11636   1.113   3.805  10.501 -1.9164 -0.7217  1.1276
  112OSM    C4F11637   1.036   3.986  10.397 -0.4999  0.2448  1.1419
  112OSM    H4F11638   0.996   4.083  10.432  1.9961  1.2088  1.5689
  112OSM    H4G11639   0.956   3.935  10.340  0.0962 -0.9051  1.3035
  112OSM    C5F11640   1.162   4.012  10.307  0.0242  0.1629  1.0308
  112OSM    H5F11641   1.207   3.913  10.285  0.9315  0.9937 -1.0834
  112OSM    H5G11642   1.229   4.085  10.358 -0.3345 -0.0397  1.8139
  112OSM    C6F11643   1.135   4.080  10.170 -0.0030  0.7608  0.2544
  112OSM    H6F11644   1.226   4.117  10.119  1.3594 -0.7541  1.5048
  112OSM    H6G11645   1.069   4.163  10.202 -0.0681  0.1913  1.7119
  112OSM    C7F11646   1.056   3.995  10.067 -0.1067 -0.6168  0.1031
  112OSM    H7F11647   0.975   4.063  10.035 -0.5883 -0.5664  1.3629
  112OSM    H7G11648   1.001   3.920  10.127  1.9260 -0.8942  1.7827
  112OSM    C8F11649   1.141   3.940   9.949 -0.5208  0.0588  0.2833
  112OSM    H8F11650   1.193   4.027   9.903  1.2436 -0.7057  0.7512
  112OSM    H8G11651   1.062   3.914   9.874 -0.8957  0.1284  0.6492
  112OSM    C9F11652   1.237   3.833   9.989  0.0326 -0.4523 -0.1497
  112OSM    H9F11653   1.253   3.820  10.097  1.6447  0.5605 -0.2373
  112OSM   C10F11654   1.302   3.756   9.897  0.2477  0.0964 -0.2572
  112OSM   H10F11655   1.366   3.673   9.928 -1.2207 -0.5236  1.2338
  112OSM   C11F11656   1.288   3.765   9.740 -0.2239 -0.4473 -0.1571
  112OSM   H11F11657   1.199   3.828   9.716  0.5986  0.0795 -2.0020
  112OSM   H11G11658   1.288   3.667   9.689 -0.1933 -0.1545 -0.7256
  112OSM   C12F11659   1.411   3.832   9.665 -0.6409  0.0675  0.3454
  112OSM   H12F11660   1.438   3.938   9.684  0.2899  0.1686 -1.3308
  112OSM   H12G11661   1.381   3.835   9.558  1.4841  3.9345 -0.3339
  112OSM   C13F11662   1.537   3.744   9.665 -0.0784  0.0391  0.1909
  112OSM   H13F11663   1.510   3.639   9.644  3.1114 -0.7026 -0.6851
  112OSM   H13G11664   1.574   3.744   9.770  1.5597 -0.1213 -0.3559
  112OSM   C14F11665   1.653   3.800   9.584 -0.1302 -0.6813 -0.3637
  112OSM   H14F11666   1.680   3.897   9.632 -1.8832 -0.1400 -0.3953
  112OSM   H14G11667   1.611   3.826   9.484 -1.9878 -2.4279 -0.1089
  112OSM   C15F11668   1.774   3.708   9.570 -0.3587  0.4670  0.2939
  112OSM   H15F11669   1.736   3.607   9.543 -0.1344  0.2187  0.8815
  112OSM   H15G11670   1.827   3.692   9.667 -0.9058 -0.6857  0.4176
  112OSM   C16F11671   1.885   3.753   9.476  0.2071  0.0743  0.2108
  112OSM   H16F11672   1.919   3.855   9.506 -0.0929 -0.3377  2.0803
  112OSM   H16G11673   1.834   3.769   9.379  1.0984  0.3499 -0.2153
  112OSM   C17F11674   2.001   3.658   9.447  0.0211 -0.0389 -0.0336
  112OSM   H17F11675   1.964   3.563   9.401 -2.2717  0.4379  0.7034
  112OSM   H17G11676   2.075   3.639   9.527 -1.1588 -0.1291  1.0594
  112OSM   C18F11677   2.085   3.730   9.339  0.3609  0.7218  0.2085
  112OSM   H18F11678   2.040   3.703   9.241 -0.5475  0.5375  0.6685
  112OSM   H18G11679   2.186   3.684   9.336  0.4974  1.0575 -0.8302
  112OSM   H18H11680   2.094   3.839   9.358  1.8661  1.0165 -1.8510
  113OSM      N11681   2.029   4.110  11.283 -0.0161 -0.2953  0.4999
  113OSM    C1511682   1.910   4.036  11.307  0.3037 -0.0080  0.8231
  113OSM   H15A11683   1.867   3.999  11.215  3.1443 -2.8514  0.4659
  113OSM   H15B11684   1.828   4.084  11.358 -0.7582 -0.8067 -0.0611
  113OSM   H15C11685   1.935   3.945  11.359 -1.9881  0.2786  2.5629
  113OSM    C1411686   2.077   4.167  11.413  0.3889  0.1341  0.1783
  113OSM   H14A11687   2.165   4.229  11.405  0.5967 -0.2437 -0.5613
  113OSM   H14B11688   2.093   4.079  11.474 -2.3882 -1.3247 -0.9946
  113OSM   H14C11689   1.995   4.222  11.458  0.1559  0.1861 -0.3033
  113OSM    C1311690   2.127   4.007  11.226 -0.0421  0.4415 -0.0711
  113OSM   H13A11691   2.224   4.044  11.197 -0.2745  1.1812  0.0814
  113OSM   H13B11692   2.077   3.961  11.142  1.9619  1.2205 -1.7880
  113OSM   H13C11693   2.137   3.929  11.300  0.0933 -0.3835 -0.9411
  113OSM    C1211694   2.003   4.223  11.181  0.2196 -0.5985 -0.0354
  113OSM   H12A11695   2.092   4.283  11.169 -1.0191  1.4460  0.4016
  113OSM   H12B11696   1.934   4.291  11.229  1.6657 -0.1522  1.5342
  113OSM    C1111697   1.949   4.186  11.031 -0.2702 -0.3893 -0.8402
  113OSM   H11A11698   2.007   4.104  10.983 -2.4486 -2.2737 -0.4602
  113OSM   H11B11699   1.964   4.278  10.971 -1.4292  1.1570  1.1239
  113OSM      P11700   1.687   4.228  11.055 -0.0530 -0.1962  0.1944
  113OSM    O1311701   1.575   4.137  11.081  0.0234 -0.2195  0.1058
  113OSM    O1411702   1.724   4.331  11.159  0.0665  0.5786  0.0254
  113OSM    O1111703   1.655   4.310  10.924  0.6682 -0.6578  0.6004
  113OSM    O1211704   1.812   4.139  11.029 -0.0221  0.4090  0.2529
  113OSM    C1S11705   1.669   4.236  10.800 -0.2599 -0.0358 -0.4075
  113OSM    H1S11706   1.604   4.146  10.788  0.8047 -0.5310 -3.1800
  113OSM    H1T11707   1.777   4.216  10.784  0.1371  1.9218 -0.4169
  113OSM     NF11708   1.649   4.255  10.553  0.7883 -0.2461  0.3003
  113OSM    HNF11709   1.734   4.244  10.502  0.5765 -0.3688 -0.0324
  113OSM    C2S11710   1.640   4.332  10.676  0.9115  0.1114 -1.3590
  113OSM    H2S11711   1.535   4.364  10.694  0.6712 -1.0727 -0.5770
  113OSM    C3S11712   1.728   4.459  10.675 -0.0309 -0.3119  0.1717
  113OSM    H3S11713   1.837   4.440  10.691  0.6263  1.9187 -1.3245
  113OSM     O311714   1.703   4.539  10.788  0.1537  0.0248 -0.0556
  113OSM    HO311715   1.656   4.492  10.857  1.4173 -2.1125 -0.5729
  113OSM    C4S11716   1.713   4.544  10.552  0.0253  0.2564  0.1879
  113OSM    H4S11717   1.779   4.498  10.477 -0.4812 -0.4192  0.1508
  113OSM    C5S11718   1.633   4.644  10.524 -0.0178 -0.5211 -0.7050
  113OSM    H5S11719   1.558   4.679  10.597  0.8382 -0.7263  0.2925
  113OSM    C6S11720   1.635   4.709  10.385  0.0902 -0.6630  0.2738
  113OSM    H6S11721   1.716   4.784  10.397 -0.0949 -0.6258  1.3680
  113OSM    H6T11722   1.550   4.777  10.362  0.9555  0.8372  1.3309
  113OSM    C7S11723   1.653   4.612  10.267  0.6702  0.1064  0.1010
  113OSM    H7S11724   1.585   4.524  10.271  0.6230  0.1718  0.8901
  113OSM    H7T11725   1.760   4.587  10.255  0.0836 -2.5091 -0.1645
  113OSM    C8S11726   1.612   4.682  10.130 -0.1140  1.2686  0.5734
  113OSM    H8S11727   1.690   4.752  10.094  0.1108 -0.5641 -3.0416
  113OSM    H8T11728   1.512   4.730  10.141 -0.4294  0.4836  1.2420
  113OSM    C9S11729   1.595   4.575  10.018 -0.1808 -0.6281  0.5657
  113OSM    H9S11730   1.531   4.495  10.059  0.0915  0.2532  2.8526
  113OSM    H9T11731   1.691   4.525   9.991 -0.4263 -0.7002 -0.1931
  113OSM   C10S11732   1.546   4.636   9.882 -0.3719 -0.4944 -0.5576
  113OSM   H10S11733   1.607   4.725   9.854 -2.4403  1.6758  1.3656
  113OSM   H10T11734   1.450   4.690   9.897 -1.1021 -1.8568 -0.2199
  113OSM   C11S11735   1.538   4.543   9.763 -0.0892 -0.1918 -0.5935
  113OSM   H11S11736   1.478   4.456   9.798 -0.4637  0.0769 -0.5570
  113OSM   H11T11737   1.639   4.504   9.740  0.2475  2.2481 -3.9401
  113OSM   C12S11738   1.488   4.614   9.639 -0.1550  0.4746 -0.0499
  113OSM   H12S11739   1.562   4.696   9.629  2.0918 -1.1012  2.3098
  113OSM   H12T11740   1.380   4.638   9.647  0.2074  1.9570  0.8297
  113OSM   C13S11741   1.499   4.515   9.520  0.3147  0.0526 -0.0557
  113OSM   H13S11742   1.434   4.427   9.540 -1.1348  1.2747  0.8474
  113OSM   H13T11743   1.603   4.475   9.520 -0.1843 -1.3833  1.2475
  113OSM   C14S11744   1.471   4.574   9.383  0.0754  0.2435  0.4962
  113OSM   H14S11745   1.537   4.657   9.351 -1.0899  0.9661 -0.1084
  113OSM   H14T11746   1.375   4.629   9.392 -0.2067 -0.3409  1.1574
  113OSM   C15S11747   1.467   4.468   9.279 -0.2317  0.9795  0.7478
  113OSM   H15S11748   1.403   4.384   9.314 -0.6391  1.2729  0.7137
  113OSM   H15T11749   1.572   4.432   9.275 -0.5005  0.1322  1.0572
  113OSM   C16S11750   1.407   4.517   9.144  0.2700 -0.0976  0.2211
  113OSM   H16S11751   1.490   4.578   9.102  0.9610  0.1541  1.8463
  113OSM   H16T11752   1.317   4.580   9.156  0.8599  1.1876 -1.6320
  113OSM   C17S11753   1.375   4.410   9.032  0.6820 -0.0082 -0.2675
  113OSM   H17S11754   1.447   4.326   9.046 -0.5872 -0.8981  1.1754
  113OSM   H17T11755   1.397   4.438   8.926  0.8281 -1.2476 -0.5854
  113OSM   C18S11756   1.232   4.354   9.047 -0.3976  0.2837 -0.5358
  113OSM   H18S11757   1.226   4.261   8.986  1.1794 -0.4994  0.4156
  113OSM   H18T11758   1.144   4.421   9.039 -0.5711  0.0870 -0.2748
  113OSM   H18U11759   1.218   4.324   9.153 -3.9718  1.0025 -0.6796
  113OSM    C1F11760   1.546   4.174  10.535  0.5411 -0.7187  0.2101
  113OSM     OF11761   1.453   4.165  10.619  0.5445  0.2102 -0.3374
  113OSM    C2F11762   1.548   4.100  10.413  0.5230 -0.2123 -0.3871
  113OSM    H2F11763   1.442   4.073  10.392  1.1696 -1.3257 -2.5029
  113OSM    H2G11764   1.591   3.999  10.430 -0.0654 -0.6874 -1.5525
  113OSM    C3F11765   1.608   4.166  10.281  0.1013  0.4847 -0.2349
  113OSM    H3F11766   1.717   4.187  10.284 -0.4228  3.5851  0.1570
  113OSM    H3G11767   1.555   4.263  10.269 -1.1171 -0.1342 -0.0957
  113OSM    C4F11768   1.575   4.074  10.158  0.2129 -0.1021  0.4882
  113OSM    H4F11769   1.465   4.067  10.146 -0.0887  1.3722  2.0517
  113OSM    H4G11770   1.611   3.970  10.171 -2.5448 -0.8514  2.8872
  113OSM    C5F11771   1.635   4.129  10.025  0.8254 -0.3966 -0.5203
  113OSM    H5F11772   1.596   4.234  10.023  0.7138 -0.4388 -0.5896
  113OSM    H5G11773   1.586   4.072   9.943 -2.9885 -1.1320  1.9774
  113OSM    C6F11774   1.784   4.110  10.013  0.0467  0.4679 -0.0806
  113OSM    H6F11775   1.816   4.015  10.061 -0.1342 -0.1617 -1.1790
  113OSM    H6G11776   1.831   4.191  10.072  0.9108  0.7488 -1.1258
  113OSM    C7F11777   1.822   4.111   9.866 -0.2769  0.8324 -0.8334
  113OSM    H7F11778   1.762   4.193   9.822  1.8374  1.5491 -2.5523
  113OSM    H7G11779   1.784   4.024   9.810 -1.6211  1.4538 -0.9147
  113OSM    C8F11780   1.977   4.137   9.834 -0.2102 -0.1608  0.0586
  113OSM    H8F11781   2.031   4.046   9.868  0.2552  0.0245 -0.1611
  113OSM    H8G11782   2.009   4.228   9.889 -0.8464 -0.6221  1.2181
  113OSM    C9F11783   1.988   4.147   9.686 -0.3310  0.3438 -0.4014
  113OSM    H9F11784   1.982   4.052   9.631 -1.8613  0.9474 -1.3615
  113OSM   C10F11785   2.016   4.255   9.612 -0.9462 -0.0015  0.4046
  113OSM   H10F11786   2.023   4.248   9.503 -1.3584 -2.7364  0.4825
  113OSM   C11F11787   2.033   4.391   9.667  0.5500 -0.2511 -1.1798
  113OSM   H11F11788   2.132   4.433   9.636  0.2648 -0.7823 -2.9198
  113OSM   H11G11789   2.014   4.403   9.775 -0.4888 -0.9731 -1.2777
  113OSM   C12F11790   1.922   4.481   9.613 -0.1589  0.6921  0.8266
  113OSM   H12F11791   1.931   4.570   9.679 -0.2264 -0.5273  2.5563
  113OSM   H12G11792   1.818   4.444   9.622  0.6063 -1.6940  0.4740
  113OSM   C13F11793   1.942   4.517   9.466  0.2060  0.0393  0.0190
  113OSM   H13F11794   1.918   4.440   9.390 -2.3065  0.6469  0.1076
  113OSM   H13G11795   2.050   4.540   9.458  0.0656  0.9854  0.6097
  113OSM   C14F11796   1.872   4.643   9.430 -0.6279  0.2499  0.1093
  113OSM   H14F11797   1.885   4.707   9.520  0.9209  0.7307 -0.4133
  113OSM   H14G11798   1.762   4.648   9.419 -1.1823  0.3949  4.0095
  113OSM   C15F11799   1.935   4.719   9.312  0.4886  0.8245  0.4387
  113OSM   H15F11800   1.886   4.819   9.304  0.4135  0.6709 -1.5723
  113OSM   H15G11801   1.909   4.671   9.216 -2.2657  3.4915 -0.3273
  113OSM   C16F11802   2.088   4.747   9.313  0.0793 -0.8023  0.0986
  113OSM   H16F11803   2.144   4.651   9.307 -0.3180 -1.0447  0.1774
  113OSM   H16G11804   2.115   4.799   9.407  1.1562  0.2911 -0.7930
  113OSM   C17F11805   2.124   4.840   9.195  0.1390 -0.4199 -0.4626
  113OSM   H17F11806   2.084   4.938   9.227  2.3250  0.0899  0.9128
  113OSM   H17G11807   2.074   4.794   9.106  0.1773 -0.8112 -0.2857
  113OSM   C18F11808   2.270   4.855   9.196 -0.2334  0.1563 -0.7218
  113OSM   H18F11809   2.318   4.757   9.172  0.9069  0.2355  1.0130
  113OSM   H18G11810   2.305   4.870   9.300 -1.3458 -4.6753  0.6120
  113OSM   H18H11811   2.310   4.929   9.124 -0.4818 -0.3386 -1.3747
  114OSM      N11812   2.510   3.374  12.035 -0.4594  0.4870 -0.6933
  114OSM    C1511813   2.627   3.334  12.116  0.5861  0.1008  0.1307
  114OSM   H15A11814   2.641   3.402  12.199 -0.6053  0.8221 -0.2395
  114OSM   H15B11815   2.719   3.325  12.060  0.0955 -0.6511 -0.5803
  114OSM   H15C11816   2.600   3.243  12.167  0.4441  0.0897  0.0351
  114OSM    C1411817   2.393   3.359  12.125 -0.5538 -0.7833 -0.2394
  114OSM   H14A11818   2.376   3.258  12.159 -0.6612 -0.4703  0.6645
  114OSM   H14B11819   2.302   3.406  12.090  0.1465  2.0051  1.3211
  114OSM   H14C11820   2.403   3.424  12.212 -1.8437  1.9946 -2.0120
  114OSM    C1311821   2.527   3.512  11.983  0.3858 -0.1179 -0.1661
  114OSM   H13A11822   2.454   3.525  11.904 -0.5695  0.3936  0.7748
  114OSM   H13B11823   2.623   3.523  11.936  0.9079 -0.1652  0.8779
  114OSM   H13C11824   2.512   3.589  12.056  1.8264  0.9559 -0.9686
  114OSM    C1211825   2.496   3.275  11.916  0.2162 -0.7199 -0.1880
  114OSM   H12A11826   2.402   3.284  11.863  0.7143  1.0526 -0.8228
  114OSM   H12B11827   2.489   3.178  11.963 -0.5450 -0.5259  0.1181
  114OSM    C1111828   2.609   3.283  11.808  0.1095 -0.1649 -0.7589
  114OSM   H11A11829   2.622   3.388  11.776  1.3041 -0.1948 -0.4260
  114OSM   H11B11830   2.566   3.229  11.721 -1.5911  2.5712 -1.7340
  114OSM      P11831   2.757   3.082  11.867 -0.1480  0.0414 -0.0645
  114OSM    O1311832   2.896   3.066  11.927  0.1634  0.2278  1.0081
  114OSM    O1411833   2.643   2.999  11.917 -0.3383  0.1391  0.1005
  114OSM    O1111834   2.772   3.044  11.714 -0.1864 -0.1065  0.2446
  114OSM    O1211835   2.733   3.234  11.860  0.4233  0.5636 -0.0968
  114OSM    C1S11836   2.863   3.122  11.639 -0.0675  0.0650 -0.6505
  114OSM    H1S11837   2.970   3.111  11.665  0.2032  0.7253 -1.4471
  114OSM    H1T11838   2.847   3.232  11.646  2.9360  0.5919 -0.7687
  114OSM     NF11839   2.958   3.154  11.410  0.4566 -0.5304 -0.1374
  114OSM    HNF11840   2.934   3.234  11.356  1.1121 -0.4770 -0.3618
  114OSM    C2S11841   2.850   3.088  11.485  0.5302 -0.6103  0.3934
  114OSM    H2S11842   2.866   2.978  11.485  0.5738 -0.6104  1.2982
  114OSM    C3S11843   2.705   3.112  11.430  0.0914 -0.8187  0.4097
  114OSM    H3S11844   2.685   3.220  11.441  0.8097 -0.2944 -2.5018
  114OSM     O311845   2.613   3.032  11.508  0.0631  0.7815 -0.6626
  114OSM    HO311846   2.649   3.024  11.596 -2.6602 -0.0797  0.4692
  114OSM    C4S11847   2.695   3.055  11.288  0.5806 -0.3941 -0.6741
  114OSM    H4S11848   2.725   2.951  11.266 -0.3891 -0.9674  0.5942
  114OSM    C5S11849   2.648   3.122  11.178  0.3869 -0.8860  0.2499
  114OSM    H5S11850   2.618   3.228  11.170  0.4030 -1.0285 -2.3068
  114OSM    C6S11851   2.642   3.055  11.042 -0.3519  0.4062 -0.1339
  114OSM    H6S11852   2.563   3.099  10.977  1.2781 -0.6888 -3.0904
  114OSM    H6T11853   2.601   2.953  11.057 -0.2909  0.2780 -0.7923
  114OSM    C7S11854   2.784   3.060  10.974 -0.8383  0.6533  0.2745
  114OSM    H7S11855   2.795   2.985  10.893 -0.5556  1.6850 -0.6685
  114OSM    H7T11856   2.863   3.030  11.046 -0.0193 -0.8228 -1.1556
  114OSM    C8S11857   2.812   3.189  10.905 -0.0128 -1.1632 -0.3458
  114OSM    H8S11858   2.920   3.214  10.897 -0.3276  1.5622  2.0690
  114OSM    H8T11859   2.778   3.270  10.974  0.7001  0.1324 -1.4540
  114OSM    C9S11860   2.737   3.223  10.771 -0.6018  0.4524 -0.3170
  114OSM    H9S11861   2.629   3.226  10.795 -0.6342  1.6093 -0.5728
  114OSM    H9T11862   2.752   3.131  10.710  0.4891  1.1510 -1.1325
  114OSM   C10S11863   2.781   3.345  10.694  0.2000 -0.3656 -0.2045
  114OSM   H10S11864   2.886   3.316  10.671  0.1128  0.7185 -2.1787
  114OSM   H10T11865   2.784   3.437  10.757  0.0144 -0.9071  0.6181
  114OSM   C11S11866   2.700   3.381  10.564 -0.3565  0.6719  0.5936
  114OSM   H11S11867   2.603   3.432  10.587 -0.8488  0.1874 -0.3287
  114OSM   H11T11868   2.674   3.285  10.516 -0.6327  1.0814 -0.0965
  114OSM   C12S11869   2.776   3.468  10.459 -0.0419  0.2495 -1.1397
  114OSM   H12S11870   2.867   3.411  10.430  1.2882 -0.1455  3.0585
  114OSM   H12T11871   2.804   3.559  10.516  0.9844  0.1299 -1.4351
  114OSM   C13S11872   2.692   3.499  10.331 -0.5810 -0.0831  0.1058
  114OSM   H13S11873   2.606   3.564  10.359  1.6626  2.6107  1.2353
  114OSM   H13T11874   2.652   3.407  10.284  0.0916 -2.2076  3.3367
  114OSM   C14S11875   2.785   3.579  10.237  0.1562  1.0335 -0.0293
  114OSM   H14S11876   2.866   3.509  10.210 -2.3193 -2.6105  1.1937
  114OSM   H14T11877   2.829   3.671  10.280  0.5154  0.9308 -0.1776
  114OSM   C15S11878   2.714   3.638  10.114  1.0482 -0.3005  0.0331
  114OSM   H15S11879   2.659   3.731  10.143 -0.8757 -0.7363 -1.9393
  114OSM   H15T11880   2.644   3.556  10.085  0.3004  0.5600 -0.6658
  114OSM   C16S11881   2.814   3.665  10.000 -0.1921 -0.2012 -0.0585
  114OSM   H16S11882   2.877   3.574   9.986 -2.0479 -1.4111 -1.0804
  114OSM   H16T11883   2.881   3.745  10.037 -1.9984  0.7272  1.3462
  114OSM   C17S11884   2.753   3.698   9.861 -0.3894  0.6691 -0.1196
  114OSM   H17S11885   2.699   3.794   9.876 -1.0292 -0.1143  3.3639
  114OSM   H17T11886   2.684   3.621   9.822  1.0068  0.1684 -1.7226
  114OSM   C18S11887   2.856   3.726   9.749  0.0191  0.3638  0.8278
  114OSM   H18S11888   2.938   3.793   9.782 -0.6471  2.9298 -2.2680
  114OSM   H18T11889   2.802   3.779   9.668 -1.8885 -0.3029  1.5908
  114OSM   H18U11890   2.909   3.639   9.706  2.0056  2.0789 -0.3821
  114OSM    C1F11891   3.084   3.112  11.427  0.1152  0.4241  0.3970
  114OSM     OF11892   3.110   2.999  11.462  0.2213  0.1675  0.0162
  114OSM    C2F11893   3.182   3.218  11.400 -0.1609 -0.5234 -0.1515
  114OSM    H2F11894   3.253   3.227  11.485 -0.7732 -0.5083  0.3671
  114OSM    H2G11895   3.119   3.310  11.400 -0.8410 -0.9615  0.7800
  114OSM    C3F11896   3.263   3.212  11.266  0.1397 -0.4129  0.1576
  114OSM    H3F11897   3.333   3.129  11.290  0.0416 -0.3603  0.6281
  114OSM    H3G11898   3.324   3.305  11.255 -1.1528  0.2845 -1.4347
  114OSM    C4F11899   3.196   3.205  11.126  0.2910 -0.3296 -0.8518
  114OSM    H4F11900   3.130   3.293  11.116 -1.0275 -0.5276  3.8930
  114OSM    H4G11901   3.145   3.107  11.119  1.0264 -0.6961 -1.3040
  114OSM    C5F11902   3.301   3.208  11.018  1.0902 -0.0582  0.1468
  114OSM    H5F11903   3.369   3.123  11.040 -2.3388 -3.1966 -0.3582
  114OSM    H5G11904   3.369   3.296  11.013  2.4890 -1.0489  1.3000
  114OSM    C6F11905   3.234   3.187  10.883 -0.3923 -0.0470  0.4900
  114OSM    H6F11906   3.143   3.250  10.878 -0.9619 -0.5652  2.9173
  114OSM    H6G11907   3.204   3.081  10.869  1.8601 -0.4950 -1.5868
  114OSM    C7F11908   3.332   3.239  10.765 -0.2007 -0.3958  0.2360
  114OSM    H7F11909   3.355   3.343  10.797 -0.4376 -0.0777 -0.5982
  114OSM    H7G11910   3.278   3.236  10.669  0.6215  0.6543 -0.2878
  114OSM    C8F11911   3.461   3.158  10.755 -0.2520  0.5222 -0.6339
  114OSM    H8F11912   3.437   3.054  10.723 -0.8641  0.8735 -1.3592
  114OSM    H8G11913   3.507   3.157  10.856  2.0658  0.8729 -1.6276
  114OSM    C9F11914   3.561   3.236  10.669  0.5988  0.2521 -0.8273
  114OSM    H9F11915   3.616   3.320  10.714  0.5783  0.6399 -1.5162
  114OSM   C10F11916   3.597   3.195  10.543 -0.8782  0.0750 -0.0544
  114OSM   H10F11917   3.670   3.256  10.488 -0.1607 -0.1820  0.5854
  114OSM   C11F11918   3.553   3.071  10.471  0.3370  0.0074 -0.3351
  114OSM   H11F11919   3.455   3.039  10.512 -0.2066 -1.4148 -2.5813
  114OSM   H11G11920   3.625   2.987  10.476 -0.4979 -0.7330 -0.4475
  114OSM   C12F11921   3.523   3.110  10.321 -0.2427  0.0898  0.2575
  114OSM   H12F11922   3.512   3.010  10.274 -0.1573  0.2533 -0.1080
  114OSM   H12G11923   3.609   3.159  10.271 -1.9119  1.9266 -0.9253
  114OSM   C13F11924   3.397   3.188  10.308  0.6933  0.2163  0.2468
  114OSM   H13F11925   3.419   3.295  10.332 -2.5756  0.6289  2.0523
  114OSM   H13G11926   3.323   3.157  10.385 -0.7173  0.5064 -0.9500
  114OSM   C14F11927   3.343   3.173  10.169  0.7697 -0.2274  0.0770
  114OSM   H14F11928   3.247   3.227  10.158  0.6760 -0.8170 -2.7338
  114OSM   H14G11929   3.327   3.064  10.154  0.5804  0.0137 -1.5591
  114OSM   C15F11930   3.446   3.214  10.058  0.6594  0.2999 -0.1090
  114OSM   H15F11931   3.520   3.132  10.072 -1.7933 -2.0509 -0.0373
  114OSM   H15G11932   3.497   3.310  10.078  0.8977  0.2229 -0.3442
  114OSM   C16F11933   3.392   3.188   9.915  0.4790 -0.5734 -1.2387
  114OSM   H16F11934   3.347   3.283   9.878 -2.0792 -0.8829  0.8219
  114OSM   H16G11935   3.313   3.112   9.931 -1.2581  1.2362 -0.7430
  114OSM   C17F11936   3.504   3.151   9.811 -0.3046 -0.0631  0.2653
  114OSM   H17F11937   3.460   3.121   9.714  1.0960 -1.2999 -0.0275
  114OSM   H17G11938   3.543   3.056   9.854  1.0712  0.7101  0.7919
  114OSM   C18F11939   3.626   3.244   9.811  0.6934 -0.1453  0.4953
  114OSM   H18F11940   3.712   3.208   9.750  0.9160 -0.6527  1.0983
  114OSM   H18G11941   3.663   3.255   9.915  1.2577  0.2238  0.2653
  114OSM   H18H11942   3.592   3.344   9.777  0.7468 -0.1753  0.3504
  115OSM      N11943   5.828   5.877   6.243 -0.1018 -0.1635 -0.9173
  115OSM    C1511944   5.905   5.800   6.140  0.6387 -0.3131  0.1097
  115OSM   H15A11945   5.981   5.742   6.190 -0.3123 -2.2682 -0.6498
  115OSM   H15B11946   5.959   5.858   6.066  0.6199  0.1626  0.4605
  115OSM   H15C11947   5.832   5.748   6.081 -0.5131  2.3394 -0.9992
  115OSM    C1411948   5.922   5.962   6.322 -0.3153 -0.0438 -0.3811
  115OSM   H14A11949   5.962   6.038   6.256  0.5424  1.6076  1.8740
  115OSM   H14B11950   5.997   5.900   6.368 -0.3667  0.9161  1.0912
  115OSM   H14C11951   5.882   6.021   6.404 -1.4536  1.8310 -2.2020
  115OSM    C1311952   5.720   5.952   6.170  0.0207 -0.7472 -0.7184
  115OSM   H13A11953   5.766   6.036   6.120  1.0858 -0.8981 -0.0092
  115OSM   H13B11954   5.644   5.987   6.238  0.7651 -0.5054 -0.0068
  115OSM   H13C11955   5.658   5.902   6.096 -1.5484 -0.0856  0.1109
  115OSM    C1211956   5.759   5.781   6.340 -0.9763 -0.6037  0.3306
  115OSM   H12A11957   5.830   5.709   6.378 -0.4314  0.4134  1.2840
  115OSM   H12B11958   5.680   5.726   6.289 -0.0346 -0.6086 -1.1872
  115OSM    C1111959   5.686   5.838   6.468 -0.1072  0.2149  0.0949
  115OSM   H11A11960   5.763   5.862   6.544  0.1918  3.4288 -1.0914
  115OSM   H11B11961   5.621   5.761   6.517 -2.0207  1.8499  0.2546
  115OSM      P11962   5.608   6.089   6.526  0.2053  0.0959 -0.2878
  115OSM    O1311963   5.754   6.125   6.527  0.6226 -0.0508  0.8650
  115OSM    O1411964   5.510   6.178   6.458 -1.2047  0.2409  0.3893
  115OSM    O1111965   5.572   6.078   6.676 -0.5825  0.0417  0.1770
  115OSM    O1211966   5.600   5.949   6.449 -0.2130  0.0020  0.3889
  115OSM    C1S11967   5.507   5.957   6.714  0.2421  0.0029  0.5482
  115OSM    H1S11968   5.583   5.876   6.707 -1.5428 -1.7024 -0.1997
  115OSM    H1T11969   5.419   5.936   6.650  0.4271  1.1721 -0.1181
  115OSM     NF11970   5.402   5.845   6.915  0.2052  0.0822 -0.2166
  115OSM    HNF11971   5.304   5.837   6.935  0.2141 -2.4416 -0.7835
  115OSM    C2S11972   5.461   5.972   6.865  0.2389  0.1513 -0.8574
  115OSM    H2S11973   5.556   5.998   6.917  0.2072 -0.0917 -0.6746
  115OSM    C3S11974   5.361   6.087   6.883 -0.5926  0.3310  0.2090
  115OSM    H3S11975   5.271   6.060   6.825 -0.1928  0.8285 -0.6705
  115OSM     O311976   5.402   6.209   6.822  0.0453  0.6505 -0.8029
  115OSM    HO311977   5.478   6.173   6.776 -0.5599 -1.1911 -0.4165
  115OSM    C4S11978   5.337   6.112   7.029  0.9743 -0.4946 -0.5327
  115OSM    H4S11979   5.427   6.130   7.090  1.0312  2.2879 -1.3239
  115OSM    C5S11980   5.219   6.109   7.087  0.0350  0.4574 -0.5055
  115OSM    H5S11981   5.132   6.102   7.020 -0.1712  0.8695 -0.2848
  115OSM    C6S11982   5.189   6.126   7.236 -0.2683 -0.8747 -0.4892
  115OSM    H6S11983   5.083   6.153   7.255 -0.3209 -1.3204 -0.1171
  115OSM    H6T11984   5.258   6.203   7.277 -0.6210 -1.7919  2.0586
  115OSM    C7S11985   5.203   5.987   7.314  0.7983  0.1569  0.3820
  115OSM    H7S11986   5.310   5.971   7.335  0.9403  0.9364  0.2762
  115OSM    H7T11987   5.177   5.908   7.240  0.6106  1.3556 -0.8614
  115OSM    C8S11988   5.128   5.992   7.449  0.9417 -0.3664  0.4512
  115OSM    H8S11989   5.105   5.887   7.478  0.0263 -1.1409 -2.6381
  115OSM    H8T11990   5.036   6.050   7.425  1.1318  0.6992  2.1772
  115OSM    C9S11991   5.204   6.071   7.548  0.5865  0.4005  0.8726
  115OSM    H9S11992   5.240   6.170   7.513 -1.9445  1.4076  0.8881
  115OSM    H9T11993   5.302   6.026   7.574  0.2599  0.4801  2.3132
  115OSM   C10S11994   5.121   6.075   7.681 -0.0190  0.2926  0.4855
  115OSM   H10S11995   5.117   5.968   7.711  3.4361  0.0674  0.5454
  115OSM   H10T11996   5.016   6.106   7.662  0.6405  1.9683 -0.5536
  115OSM   C11S11997   5.186   6.156   7.799 -0.1254 -0.5684  0.3493
  115OSM   H11S11998   5.199   6.263   7.770  1.5337 -0.6277  0.7552
  115OSM   H11T11999   5.288   6.112   7.809 -0.6420 -1.5268  1.4525
  115OSM   C12S12000   5.110   6.169   7.927  0.7187  0.6420 -0.0806
  115OSM   H12S12001   5.078   6.066   7.955 -0.6615  0.8907 -0.6531
  115OSM   H12T12002   5.020   6.234   7.919  1.7363  2.1281  0.1657
  115OSM   C13S12003   5.208   6.212   8.034 -0.2789 -1.0239 -0.3080
  115OSM   H13S12004   5.251   6.313   8.015  1.0303 -1.6212 -0.6819
  115OSM   H13T12005   5.300   6.151   8.029  1.3168  1.0873  1.1388
  115OSM   C14S12006   5.153   6.207   8.178  0.0126 -1.0054  0.6564
  115OSM   H14S12007   5.233   6.225   8.254  0.5031  1.4663 -0.3246
  115OSM   H14T12008   5.101   6.110   8.188 -4.5703  0.7551 -2.5905
  115OSM   C15S12009   5.051   6.316   8.195  0.0099 -0.0218 -0.5707
  115OSM   H15S12010   4.959   6.322   8.132 -1.3426  0.5370  1.3420
  115OSM   H15T12011   5.109   6.409   8.179  0.6468 -0.5433 -1.3259
  115OSM   C16S12012   4.972   6.307   8.334 -0.1485 -0.2068  0.9592
  115OSM   H16S12013   4.900   6.223   8.327  1.3515 -1.4673 -0.2580
  115OSM   H16T12014   4.911   6.399   8.343 -0.5019 -0.5141  1.8085
  115OSM   C17S12015   5.059   6.293   8.454  0.3905  0.7988  0.1188
  115OSM   H17S12016   5.115   6.202   8.427  0.8064  1.6323 -2.0188
  115OSM   H17T12017   4.987   6.281   8.538  1.2040  1.0181  0.8686
  115OSM   C18S12018   5.150   6.413   8.471 -0.1286 -0.0094 -0.6664
  115OSM   H18S12019   5.204   6.440   8.377  0.2387 -1.3295 -0.8486
  115OSM   H18T12020   5.232   6.391   8.543  0.3459 -0.1760 -1.2517
  115OSM   H18U12021   5.095   6.505   8.501  0.9324  1.0928 -1.9568
  115OSM    C1F12022   5.481   5.742   6.921  0.5955 -0.7280  1.0314
  115OSM     OF12023   5.606   5.754   6.921  0.0465  0.3372 -0.3446
  115OSM    C2F12024   5.425   5.603   6.929  0.2241  0.3836 -0.5277
  115OSM    H2F12025   5.452   5.537   6.844  0.0069  0.0660 -0.3516
  115OSM    H2G12026   5.314   5.611   6.933  0.1847  0.3931 -1.4280
  115OSM    C3F12027   5.477   5.547   7.067  0.1700 -0.6201 -0.7957
  115OSM    H3F12028   5.588   5.539   7.064  0.1807 -0.4481 -0.8817
  115OSM    H3G12029   5.448   5.441   7.082 -1.3362 -0.0441  0.7412
  115OSM    C4F12030   5.426   5.632   7.190 -0.0298 -0.5327  0.2569
  115OSM    H4F12031   5.325   5.674   7.171  0.6969  0.9250 -0.5501
  115OSM    H4G12032   5.486   5.725   7.205 -1.4647  0.1160  2.4632
  115OSM    C5F12033   5.420   5.575   7.334  0.8694  0.5863  0.9088
  115OSM    H5F12034   5.522   5.542   7.362  0.7789  0.8144  1.5134
  115OSM    H5G12035   5.357   5.484   7.338 -1.1785  1.8417 -0.4523
  115OSM    C6F12036   5.374   5.678   7.439 -0.1392  0.1862 -0.3521
  115OSM    H6F12037   5.274   5.718   7.408  0.1297  2.0542  1.0148
  115OSM    H6G12038   5.440   5.767   7.427 -1.1173  1.0841  0.7195
  115OSM    C7F12039   5.378   5.624   7.583  0.0805 -0.0613 -0.3566
  115OSM    H7F12040   5.480   5.584   7.599  0.1171 -0.4537 -1.5023
  115OSM    H7G12041   5.311   5.537   7.595  0.6905 -0.3810  0.8656
  115OSM    C8F12042   5.345   5.721   7.701  0.0347  0.3371  0.5726
  115OSM    H8F12043   5.319   5.658   7.788 -2.2738 -1.7313 -1.4507
  115OSM    H8G12044   5.255   5.776   7.667 -0.1321  0.1243  0.6698
  115OSM    C9F12045   5.462   5.820   7.712  0.0311  0.7676  0.6961
  115OSM    H9F12046   5.467   5.883   7.622 -2.0429  0.3573  0.2553
  115OSM   C10F12047   5.545   5.840   7.811 -0.6531  0.4096  0.3327
  115OSM   H10F12048   5.627   5.908   7.784 -0.9465  0.5200 -0.2937
  115OSM   C11F12049   5.550   5.770   7.948 -0.1010 -0.7882 -0.0110
  115OSM   H11F12050   5.654   5.769   7.987 -0.4218 -1.8783  0.8757
  115OSM   H11G12051   5.531   5.660   7.946  1.9185 -1.1691 -0.6064
  115OSM   C12F12052   5.462   5.840   8.049 -0.2833  0.2817 -0.1617
  115OSM   H12F12053   5.363   5.791   8.035 -0.3195  0.5440 -0.8559
  115OSM   H12G12054   5.448   5.948   8.026  2.3774  0.5489 -0.8218
  115OSM   C13F12055   5.516   5.825   8.198  0.1828 -0.1758 -0.2912
  115OSM   H13F12056   5.538   5.721   8.230 -1.2880 -0.1457  0.9710
  115OSM   H13G12057   5.436   5.850   8.271  1.2107  0.3293  0.6964
  115OSM   C14F12058   5.634   5.919   8.236 -0.0558  0.0694  0.1381
  115OSM   H14F12059   5.607   6.026   8.231 -0.0366  0.0730  0.1004
  115OSM   H14G12060   5.707   5.898   8.156 -0.6548 -0.5273 -0.2625
  115OSM   C15F12061   5.700   5.870   8.365  0.1111 -0.6952 -0.5124
  115OSM   H15F12062   5.739   5.767   8.349  0.9481 -0.5356  0.3731
  115OSM   H15G12063   5.629   5.856   8.449  0.8567  1.8600  0.6406
  115OSM   C16F12064   5.819   5.965   8.395  0.2467 -0.3186 -0.4115
  115OSM   H16F12065   5.779   6.065   8.424  2.7673  0.3391  1.0364
  115OSM   H16G12066   5.896   5.970   8.315  1.7391  0.1741  1.0098
  115OSM   C17F12067   5.896   5.927   8.520 -0.6323 -0.2137 -0.4207
  115OSM   H17F12068   5.945   5.829   8.501 -1.1865 -0.4079 -0.8904
  115OSM   H17G12069   5.827   5.912   8.605  0.1990 -0.5153  0.2090
  115OSM   C18F12070   5.997   6.032   8.558  0.3588 -0.2948 -0.3397
  115OSM   H18F12071   6.068   5.990   8.633 -0.4453  0.7487  1.0541
  115OSM   H18G12072   5.955   6.129   8.592  0.5736  0.5970 -2.4849
  115OSM   H18H12073   6.058   6.069   8.473  0.3409 -0.9091 -0.6264
  116OSM      N12074   3.609   2.918   6.639  0.1949 -0.3338  0.2864
  116OSM    C1512075   3.572   2.799   6.561 -0.4302  0.2796 -0.1514
  116OSM   H15A12076   3.481   2.759   6.602  1.0301 -2.5090  0.6093
  116OSM   H15B12077   3.656   2.733   6.579 -0.2533  0.3732 -0.6172
  116OSM   H15C12078   3.557   2.819   6.456  2.0174  2.3047 -0.2243
  116OSM    C1412079   3.591   2.887   6.781 -0.2201 -0.4937 -0.0855
  116OSM   H14A12080   3.659   2.818   6.828 -0.4424 -0.5739  0.1210
  116OSM   H14B12081   3.489   2.858   6.801 -0.6724  2.2576  2.3544
  116OSM   H14C12082   3.605   2.975   6.841  0.3442 -0.8556  0.3193
  116OSM    C1312083   3.756   2.943   6.612 -0.7930  0.1591  0.3566
  116OSM   H13A12084   3.774   2.931   6.506 -0.3183 -1.2116  0.5671
  116OSM   H13B12085   3.819   2.870   6.661  1.9314  2.9297  1.3690
  116OSM   H13C12086   3.779   3.043   6.646  0.0287  0.1210 -0.0577
  116OSM    C1212087   3.522   3.029   6.591 -0.3702 -0.1280  0.6200
  116OSM   H12A12088   3.555   3.043   6.490 -1.0410  1.4894  0.5903
  116OSM   H12B12089   3.554   3.114   6.649  3.7102 -1.0953  0.0950
  116OSM    C1112090   3.369   3.013   6.594  0.0587  0.4121 -0.3242
  116OSM   H11A12091   3.328   3.103   6.543 -2.3728 -0.3920  0.0968
  116OSM   H11B12092   3.331   3.024   6.698  1.1540  1.7505 -0.0313
  116OSM      P12093   3.200   2.817   6.570 -0.0238 -0.5583  0.2893
  116OSM    O1312094   3.146   2.737   6.459  0.5036  0.1432  0.4265
  116OSM    O1412095   3.255   2.748   6.685  0.3796 -0.2089 -0.0580
  116OSM    O1112096   3.085   2.915   6.612  0.0162  0.1443 -0.3712
  116OSM    O1212097   3.314   2.907   6.516  0.2911  0.3601  0.5222
  116OSM    C1S12098   2.988   2.876   6.711  0.5639  0.2602  0.6695
  116OSM    H1S12099   2.980   2.765   6.704  0.8412  0.3567 -1.9610
  116OSM    H1T12100   2.889   2.914   6.678  1.4892  2.6092  0.4406
  116OSM     NF12101   2.925   2.872   6.948  0.0339 -0.2182  0.5085
  116OSM    HNF12102   2.833   2.909   6.946 -0.1782 -0.6306  1.5532
  116OSM    C2S12103   3.019   2.930   6.859  0.0782 -0.2373 -0.1038
  116OSM    H2S12104   3.123   2.901   6.886  0.7761  0.2231 -2.0994
  116OSM    C3S12105   3.023   3.085   6.856 -0.3533 -0.6093 -0.1867
  116OSM    H3S12106   2.926   3.123   6.817 -0.9376 -1.1613  0.6907
  116OSM     O312107   3.115   3.144   6.763  0.0484 -0.2225 -0.6480
  116OSM    HO312108   3.143   3.069   6.710 -0.4602 -0.8611 -0.0546
  116OSM    C4S12109   3.049   3.141   6.992 -0.1211 -0.1195  0.0013
  116OSM    H4S12110   3.136   3.090   7.036 -0.5194  1.0585  2.2916
  116OSM    C5S12111   2.979   3.236   7.055 -0.2252 -0.4448  0.5852
  116OSM    H5S12112   2.899   3.280   6.993 -0.0667 -2.2087 -0.9771
  116OSM    C6S12113   3.009   3.294   7.188  0.4471 -0.4527  0.0913
  116OSM    H6S12114   3.009   3.405   7.181 -2.0938 -0.1365  3.1018
  116OSM    H6T12115   3.111   3.265   7.222  1.1666  0.3252 -1.2904
  116OSM    C7S12116   2.896   3.263   7.285  0.0994 -0.1672 -0.4886
  116OSM    H7S12117   2.886   3.153   7.280  3.2629 -0.4686 -2.6775
  116OSM    H7T12118   2.807   3.320   7.250  0.1601  0.0416 -0.3117
  116OSM    C8S12119   2.923   3.309   7.432  0.0037 -0.2601 -0.7250
  116OSM    H8S12120   2.934   3.420   7.435 -0.6678 -0.1880  2.1814
  116OSM    H8T12121   3.009   3.267   7.487  0.1789  1.9849  0.8448
  116OSM    C9S12122   2.803   3.262   7.525 -0.0901 -0.6286  0.0296
  116OSM    H9S12123   2.807   3.151   7.531 -1.6329 -0.6112  2.8850
  116OSM    H9T12124   2.710   3.296   7.474 -0.2520 -1.0031  0.0645
  116OSM   C10S12125   2.811   3.326   7.671  0.9097 -0.2741 -0.0264
  116OSM   H10S12126   2.820   3.437   7.666  0.7011 -0.2639 -0.2282
  116OSM   H10T12127   2.913   3.306   7.710  1.5777  0.8653 -1.0902
  116OSM   C11S12128   2.697   3.291   7.767  0.2675 -0.3122  0.2569
  116OSM   H11S12129   2.686   3.181   7.783  1.7728 -0.7147 -1.1933
  116OSM   H11T12130   2.608   3.321   7.707 -0.0160 -3.2204 -0.9849
  116OSM   C12S12131   2.701   3.373   7.900 -0.3263  0.4238  0.2507
  116OSM   H12S12132   2.601   3.365   7.949  0.6237 -2.0127  1.9482
  116OSM   H12T12133   2.716   3.480   7.875 -1.7480  0.3170 -1.2602
  116OSM   C13S12134   2.814   3.323   8.001 -0.2398 -0.4229  0.3878
  116OSM   H13S12135   2.913   3.332   7.953 -1.3577  0.9347 -1.8398
  116OSM   H13T12136   2.795   3.218   8.034  1.8049 -1.1779 -0.6306
  116OSM   C14S12137   2.819   3.409   8.129  0.1833  0.1617 -0.0309
  116OSM   H14S12138   2.826   3.519   8.110  1.3216  0.4821  1.9839
  116OSM   H14T12139   2.916   3.387   8.179 -0.3766 -0.6115  0.7465
  116OSM   C15S12140   2.702   3.378   8.226 -0.4565 -0.5875  0.2248
  116OSM   H15S12141   2.694   3.270   8.251 -1.9438 -0.6342 -0.3662
  116OSM   H15T12142   2.611   3.394   8.165  0.4295 -0.7000 -1.1753
  116OSM   C16S12143   2.699   3.474   8.348 -0.6330  0.0567 -0.9442
  116OSM   H16S12144   2.596   3.458   8.386 -0.8032 -0.2599 -1.5273
  116OSM   H16T12145   2.709   3.579   8.315  0.0025 -0.0485 -1.0951
  116OSM   C17S12146   2.808   3.448   8.463 -0.2470 -0.4390  0.6040
  116OSM   H17S12147   2.899   3.471   8.404 -0.5199 -2.9770 -0.9563
  116OSM   H17T12148   2.802   3.339   8.485 -0.9564 -0.3102  1.0744
  116OSM   C18S12149   2.805   3.539   8.586  0.9642 -0.8698 -1.1498
  116OSM   H18S12150   2.796   3.644   8.549 -3.0038 -0.5770  0.1713
  116OSM   H18T12151   2.895   3.527   8.649  0.2081 -0.4395  0.0537
  116OSM   H18U12152   2.708   3.518   8.636  0.5700 -0.7875 -1.8623
  116OSM    C1F12153   2.936   2.747   6.983  0.1209 -0.1114  0.4370
  116OSM     OF12154   3.025   2.674   6.934 -0.2118 -0.0265 -0.3946
  116OSM    C2F12155   2.852   2.703   7.106 -0.0804 -0.4334  0.0550
  116OSM    H2F12156   2.769   2.637   7.071  0.4905 -1.5127  0.7055
  116OSM    H2G12157   2.820   2.794   7.161  0.2959 -0.9795  1.1889
  116OSM    C3F12158   2.933   2.612   7.206 -0.2240 -0.1423 -0.4125
  116OSM    H3F12159   3.016   2.664   7.258 -0.6792 -1.1538  1.4033
  116OSM    H3G12160   2.987   2.532   7.152  3.5837  2.4668 -0.8716
  116OSM    C4F12161   2.840   2.538   7.317 -0.1603 -0.1381 -0.9167
  116OSM    H4F12162   2.910   2.482   7.382 -0.3115  2.0699  1.2815
  116OSM    H4G12163   2.773   2.470   7.261 -0.5930 -0.1557 -0.3809
  116OSM    C5F12164   2.757   2.628   7.391 -0.4366 -0.6399  0.2171
  116OSM    H5F12165   2.676   2.672   7.329 -1.3844 -0.6625  1.3998
  116OSM    H5G12166   2.822   2.711   7.426 -1.7800  0.3242  0.5311
  116OSM    C6F12167   2.687   2.563   7.513  0.5088  0.1284 -0.2785
  116OSM    H6F12168   2.640   2.469   7.476 -1.6214  0.0605  2.3233
  116OSM    H6G12169   2.606   2.630   7.549  1.1196  1.7587 -1.7754
  116OSM    C7F12170   2.770   2.530   7.641  0.2678 -0.2044  0.1156
  116OSM    H7F12171   2.791   2.628   7.689 -0.5792  1.3480 -2.4558
  116OSM    H7G12172   2.859   2.472   7.609 -0.1466 -2.0778  2.1158
  116OSM    C8F12173   2.687   2.451   7.737 -0.9875  0.1983 -0.0202
  116OSM    H8F12174   2.618   2.383   7.682 -0.8786  0.0917 -0.0248
  116OSM    H8G12175   2.615   2.514   7.793 -1.0409  0.7564 -0.7070
  116OSM    C9F12176   2.759   2.368   7.841 -0.3541  0.2649  1.2622
  116OSM    H9F12177   2.835   2.305   7.793 -1.1319 -0.9406  1.5708
  116OSM   C10F12178   2.735   2.348   7.970  0.1331 -0.0635 -0.0242
  116OSM   H10F12179   2.803   2.282   8.026 -0.3440  0.9635  1.8578
  116OSM   C11F12180   2.623   2.404   8.057  0.4516 -0.2199  0.1461
  116OSM   H11F12181   2.530   2.350   8.027  1.8389 -2.2792 -0.6573
  116OSM   H11G12182   2.596   2.508   8.028  1.1505 -0.3349 -1.0162
  116OSM   C12F12183   2.673   2.400   8.205  0.4388  0.6391  0.1916
  116OSM   H12F12184   2.663   2.293   8.233  0.5718  0.9893  1.6400
  116OSM   H12G12185   2.607   2.446   8.282  1.8224  1.7584  0.7682
  116OSM   C13F12186   2.808   2.469   8.245 -0.0645 -0.0002  0.0943
  116OSM   H13F12187   2.809   2.572   8.205 -0.9026  0.0440  0.1711
  116OSM   H13G12188   2.883   2.407   8.191  1.4556  0.4277  1.6526
  116OSM   C14F12189   2.844   2.468   8.397 -0.4192 -0.1538  0.2376
  116OSM   H14F12190   2.770   2.536   8.444 -0.3272 -0.2325  0.4940
  116OSM   H14G12191   2.948   2.505   8.413  0.0379 -1.3929  0.2652
  116OSM   C15F12192   2.837   2.328   8.464  0.1619  0.4616  0.8422
  116OSM   H15F12193   2.910   2.265   8.408 -1.9477 -1.3695 -0.0012
  116OSM   H15G12194   2.736   2.284   8.448  0.3188  0.8092 -1.4831
  116OSM   C16F12195   2.860   2.326   8.609 -0.0015  0.0548 -1.0982
  116OSM   H16F12196   2.765   2.356   8.660 -0.2853 -0.0536 -1.5566
  116OSM   H16G12197   2.948   2.388   8.634  3.0695 -4.1012 -0.5409
  116OSM   C17F12198   2.895   2.189   8.683  0.6123  0.0463  0.2757
  116OSM   H17F12199   2.889   2.209   8.792 -0.5000  0.8724  0.0773
  116OSM   H17G12200   2.995   2.156   8.645 -0.2086 -1.4030 -0.7343
  116OSM   C18F12201   2.782   2.081   8.647  0.0941 -0.2070  0.3936
  116OSM   H18F12202   2.778   1.997   8.720 -0.7012 -1.0091 -0.5523
  116OSM   H18G12203   2.801   2.026   8.553 -1.1785 -0.8699  0.5013
  116OSM   H18H12204   2.683   2.130   8.635  0.7374  0.4220 -3.4266
  117OSM      N12205   3.970   5.125   6.168  0.0027  0.7877 -0.8128
  117OSM    C1512206   4.070   5.164   6.061 -0.0889  0.2824 -0.1693
  117OSM   H15A12207   4.111   5.264   6.073 -0.8295  0.9199 -2.4118
  117OSM   H15B12208   4.026   5.151   5.964  1.9369 -0.8862 -0.9728
  117OSM   H15C12209   4.159   5.107   6.044 -0.0595  0.3707 -0.3183
  117OSM    C1412210   3.893   5.243   6.205 -0.4496  0.6550 -0.0528
  117OSM   H14A12211   3.830   5.196   6.278 -0.2320 -1.8076 -1.3509
  117OSM   H14B12212   3.857   5.282   6.110  0.5811 -3.2472 -2.2583
  117OSM   H14C12213   3.949   5.317   6.260 -0.1887  0.7109 -0.3859
  117OSM    C1312214   3.876   5.030   6.101 -0.4665 -0.1054  0.0324
  117OSM   H13A12215   3.821   5.074   6.019 -1.4217  1.5860  1.4965
  117OSM   H13B12216   3.797   5.001   6.169 -2.2785  1.9876 -1.0581
  117OSM   H13C12217   3.926   4.941   6.067 -2.3718 -1.3815  0.3839
  117OSM    C1212218   4.040   5.056   6.289 -0.0800  0.1633 -0.3268
  117OSM   H12A12219   4.124   5.118   6.318  0.4046  0.3869 -2.0552
  117OSM   H12B12220   4.083   4.967   6.246  0.3216 -0.4053  1.1786
  117OSM    C1112221   3.961   5.023   6.416  0.1845 -0.3018  0.2674
  117OSM   H11A12222   3.902   5.114   6.441 -1.3634 -0.9533 -0.8915
  117OSM   H11B12223   4.031   4.997   6.498  1.5735  2.4673  0.0849
  117OSM      P12224   3.905   4.769   6.412 -0.2668  0.1704  0.3432
  117OSM    O1312225   3.853   4.701   6.294 -0.2414  0.4295  0.1746
  117OSM    O1412226   4.051   4.758   6.441 -0.3566 -0.1237  0.3691
  117OSM    O1112227   3.819   4.724   6.541 -0.5601 -0.1086  0.0674
  117OSM    O1212228   3.860   4.919   6.393  0.7484 -0.6989 -0.5038
  117OSM    C1S12229   3.897   4.714   6.664 -0.7839 -0.5160  0.1204
  117OSM    H1S12230   3.986   4.782   6.671 -1.4379  0.2212  1.7842
  117OSM    H1T12231   3.936   4.610   6.663  0.6691 -0.0230 -1.2784
  117OSM     NF12232   3.912   4.701   6.908 -0.1080  0.0493 -0.1957
  117OSM    HNF12233   3.920   4.605   6.932 -3.1009 -1.0680 -2.8985
  117OSM    C2S12234   3.820   4.727   6.800 -0.1453  0.3164 -0.5324
  117OSM    H2S12235   3.791   4.834   6.790 -1.0540 -0.0191 -1.7011
  117OSM    C3S12236   3.699   4.628   6.802  0.1895 -0.1774  0.4483
  117OSM    H3S12237   3.743   4.526   6.798  0.5468 -0.0066 -0.1285
  117OSM     O312238   3.610   4.623   6.688 -0.3289 -0.6644  0.5340
  117OSM    HO312239   3.661   4.662   6.617 -0.2489  0.1169  1.0146
  117OSM    C4S12240   3.615   4.649   6.920 -0.1699 -0.3097 -0.1404
  117OSM    H4S12241   3.637   4.573   6.996  1.5042 -0.6979 -0.9569
  117OSM    C5S12242   3.532   4.751   6.939 -0.5930  0.0788  0.2255
  117OSM    H5S12243   3.530   4.831   6.864  1.6278 -3.3050 -3.8677
  117OSM    C6S12244   3.450   4.771   7.062 -0.8389 -0.8157  0.2921
  117OSM    H6S12245   3.476   4.692   7.136 -1.1505 -1.1743  0.0224
  117OSM    H6T12246   3.342   4.756   7.038 -0.9403  1.1482 -0.7206
  117OSM    C7S12247   3.471   4.910   7.124  0.1418  0.8823 -0.8565
  117OSM    H7S12248   3.417   4.914   7.221  1.9239  0.2873  0.2087
  117OSM    H7T12249   3.427   4.984   7.054 -5.7417 -2.0091 -0.9340
  117OSM    C8S12250   3.613   4.951   7.167  0.1021 -0.5417  0.4510
  117OSM    H8S12251   3.604   5.061   7.185  0.2657 -0.5818  0.8011
  117OSM    H8T12252   3.679   4.938   7.079 -0.4494 -0.6112  0.0469
  117OSM    C9S12253   3.668   4.876   7.281  0.3666  0.7956 -0.6136
  117OSM    H9S12254   3.651   4.766   7.277 -2.2607  1.1686 -3.1065
  117OSM    H9T12255   3.627   4.915   7.377 -0.1707 -0.1533 -0.4359
  117OSM   C10S12256   3.819   4.906   7.283  0.6501  0.5084  0.5137
  117OSM   H10S12257   3.837   5.015   7.277  0.3865  0.6364  1.7415
  117OSM   H10T12258   3.856   4.861   7.189 -1.1874 -0.3702  0.1497
  117OSM   C11S12259   3.883   4.842   7.404  0.7780  0.3095 -0.2456
  117OSM   H11S12260   3.991   4.859   7.384  1.0804 -0.3381  0.7930
  117OSM   H11T12261   3.862   4.733   7.410  0.2631  0.4809  1.3889
  117OSM   C12S12262   3.853   4.915   7.531 -0.0648  0.2653 -0.3960
  117OSM   H12S12263   3.748   4.898   7.564 -0.0229  0.2891 -0.2523
  117OSM   H12T12264   3.859   5.025   7.519  0.0828  0.5675  1.9942
  117OSM   C13S12265   3.926   4.858   7.653 -0.4092  0.0296 -0.8444
  117OSM   H13S12266   4.031   4.894   7.657 -0.9034  1.4501  1.1042
  117OSM   H13T12267   3.915   4.747   7.657 -0.4741  0.0570  1.4265
  117OSM   C14S12268   3.862   4.911   7.780  0.2606 -0.1781  0.0200
  117OSM   H14S12269   3.751   4.910   7.772  0.2879 -0.2818 -0.4219
  117OSM   H14T12270   3.883   5.020   7.786  0.1600 -0.0529 -1.4992
  117OSM   C15S12271   3.906   4.836   7.904 -0.3467 -1.1833 -0.7766
  117OSM   H15S12272   4.015   4.818   7.896 -0.1029  0.6832 -2.3917
  117OSM   H15T12273   3.855   4.738   7.897 -1.4741 -0.5447 -1.8474
  117OSM   C16S12274   3.868   4.913   8.031 -0.3019  0.1857  0.6815
  117OSM   H16S12275   3.757   4.905   8.031 -0.5049  1.8585 -2.2412
  117OSM   H16T12276   3.910   5.015   8.018 -1.8241  0.5190 -2.6549
  117OSM   C17S12277   3.920   4.845   8.158 -0.8242 -0.0121 -0.4492
  117OSM   H17S12278   4.028   4.866   8.174 -1.1178  1.5751 -0.3891
  117OSM   H17T12279   3.901   4.736   8.153 -1.4938  0.0375  0.5597
  117OSM   C18S12280   3.852   4.907   8.277 -0.2777 -0.0149 -0.0644
  117OSM   H18S12281   3.744   4.886   8.290 -0.1306 -0.3813  0.6904
  117OSM   H18T12282   3.857   5.017   8.279 -1.2912  0.0449  1.7932
  117OSM   H18U12283   3.903   4.866   8.367  0.8114  2.3492  0.4672
  117OSM    C1F12284   4.011   4.786   6.952 -0.0284 -0.0555 -0.4173
  117OSM     OF12285   4.030   4.897   6.904  0.5373 -0.1722  0.7623
  117OSM    C2F12286   4.115   4.728   7.047  0.5558  0.5817  0.3097
  117OSM    H2F12287   4.192   4.665   6.996 -0.8055  0.1593 -1.2970
  117OSM    H2G12288   4.063   4.663   7.121  2.1442  0.3304  1.2600
  117OSM    C3F12289   4.198   4.829   7.136 -0.6325 -0.7478  0.3856
  117OSM    H3F12290   4.131   4.904   7.183 -0.9379 -0.8143  0.0600
  117OSM    H3G12291   4.287   4.877   7.090 -0.2335 -1.8153  0.0084
  117OSM    C4F12292   4.254   4.753   7.260 -0.2171  0.1270 -0.0640
  117OSM    H4F12293   4.326   4.674   7.231  2.2280  1.8555  0.9696
  117OSM    H4G12294   4.175   4.693   7.310 -0.3332  0.6129  0.3413
  117OSM    C5F12295   4.310   4.848   7.361 -0.2556  0.5351 -0.3543
  117OSM    H5F12296   4.229   4.919   7.386 -1.9890 -0.9185 -1.6237
  117OSM    H5G12297   4.395   4.903   7.315  1.5276 -3.0658 -1.7017
  117OSM    C6F12298   4.368   4.777   7.487 -0.3356  0.0630 -0.1697
  117OSM    H6F12299   4.380   4.668   7.472  0.7412  0.3276 -1.4335
  117OSM    H6G12300   4.295   4.792   7.569 -0.9842 -1.8642 -0.3599
  117OSM    C7F12301   4.501   4.824   7.546  0.6413  0.3382 -0.4527
  117OSM    H7F12302   4.489   4.932   7.569  0.6262  0.4578 -1.0011
  117OSM    H7G12303   4.568   4.817   7.457  0.0643 -2.1053 -0.7670
  117OSM    C8F12304   4.546   4.729   7.670 -0.2021 -0.0143 -0.0761
  117OSM    H8F12305   4.548   4.625   7.630 -1.3908 -0.3371  0.6743
  117OSM    H8G12306   4.467   4.728   7.747 -0.5798 -0.4829 -0.4640
  117OSM    C9F12307   4.675   4.766   7.726 -0.2348  0.7394 -0.3366
  117OSM    H9F12308   4.734   4.823   7.652 -0.5100  0.8086 -0.5054
  117OSM   C10F12309   4.721   4.731   7.850  0.0669  0.3495  0.1872
  117OSM   H10F12310   4.817   4.773   7.883  0.4162 -1.1848  1.2404
  117OSM   C11F12311   4.643   4.657   7.955 -0.0876 -0.0699  0.7029
  117OSM   H11F12312   4.710   4.582   8.001 -0.0917 -0.1538  0.5712
  117OSM   H11G12313   4.556   4.604   7.909 -0.1597 -0.3158  1.1119
  117OSM   C12F12314   4.609   4.759   8.062  0.7789  0.7514 -0.2920
  117OSM   H12F12315   4.545   4.835   8.012  2.5037  1.5511 -1.3852
  117OSM   H12G12316   4.697   4.817   8.097  1.1336 -0.2285  0.4782
  117OSM   C13F12317   4.548   4.688   8.182  0.3272 -0.9846  0.4152
  117OSM   H13F12318   4.614   4.619   8.239 -0.4067 -1.5843  0.5587
  117OSM   H13G12319   4.464   4.619   8.158  0.9131 -0.8799 -2.1944
  117OSM   C14F12320   4.487   4.790   8.280  0.2123 -0.3363 -0.5308
  117OSM   H14F12321   4.398   4.836   8.232 -0.5839  2.9560  3.4474
  117OSM   H14G12322   4.562   4.869   8.304 -0.3139  0.2261 -0.7193
  117OSM   C15F12323   4.426   4.739   8.413  0.7802  0.0839 -0.0603
  117OSM   H15F12324   4.505   4.709   8.484 -0.3443  0.8244  1.5564
  117OSM   H15G12325   4.367   4.651   8.377 -0.0429  1.0081 -1.0226
  117OSM   C16F12326   4.345   4.849   8.484 -0.2344  0.3517  0.0138
  117OSM   H16F12327   4.269   4.902   8.424  0.3018 -0.1158 -1.1117
  117OSM   H16G12328   4.417   4.928   8.514 -0.5002  0.7106 -0.2837
  117OSM   C17F12329   4.274   4.790   8.610 -0.3062  0.0485 -0.4366
  117OSM   H17F12330   4.173   4.757   8.576 -0.5321  1.9644 -1.8069
  117OSM   H17G12331   4.330   4.702   8.649 -2.1148 -2.2952 -2.6864
  117OSM   C18F12332   4.240   4.898   8.709 -0.4915 -0.6348 -0.1840
  117OSM   H18F12333   4.336   4.930   8.753 -0.3669  1.4323 -1.7956
  117OSM   H18G12334   4.172   4.862   8.789 -2.7293  1.6846 -0.8983
  117OSM   H18H12335   4.203   4.987   8.654 -2.3429 -0.8867  0.5753
  118OSM      N12336   6.333   0.066   6.227  0.1397  0.5755 -0.3367
  118OSM    C1512337   6.401   0.152   6.135  0.6348  0.3399  0.3319
  118OSM   H15A12338   6.498   0.186   6.169 -0.2365  1.0056  2.2698
  118OSM   H15B12339   6.346   0.244   6.121  1.3855  0.8117  0.4362
  118OSM   H15C12340   6.417   0.100   6.041  1.0388 -3.3687  2.2834
  118OSM    C1412341   6.206   0.001   6.170 -0.2213 -0.0041  0.3053
  118OSM   H14A12342   6.142  -0.042   6.245  1.5099  0.3173  2.0284
  118OSM   H14B12343   6.229  -0.077   6.099  4.1892  0.9649  0.3992
  118OSM   H14C12344   6.148   0.067   6.107  0.1828  1.0915  1.0425
  118OSM    C1312345   6.419  -0.057   6.261 -0.1012  0.1023  0.7631
  118OSM   H13A12346   6.499  -0.014   6.320 -0.9183  1.0275  1.2218
  118OSM   H13B12347   6.471  -0.086   6.171  1.1047  3.0257  0.3821
  118OSM   H13C12348   6.369  -0.137   6.313 -3.2437  0.4151 -1.4972
  118OSM    C1212349   6.293   0.139   6.355 -0.4475  0.0858 -0.2054
  118OSM   H12A12350   6.374   0.182   6.410 -0.5311  1.9638 -1.4565
  118OSM   H12B12351   6.244   0.070   6.422 -0.1418 -0.7585 -0.8311
  118OSM    C1112352   6.209   0.264   6.342  1.0899  0.6399 -0.2690
  118OSM   H11A12353   6.104   0.244   6.373  1.2428 -3.2442 -1.6272
  118OSM   H11B12354   6.186   0.289   6.236  0.7265  1.0649 -0.0934
  118OSM      P12355   6.237   0.444   6.536 -0.1193 -0.0725  0.4216
  118OSM    O1312356   6.366   0.446   6.608 -0.1325  0.7569 -0.7194
  118OSM    O1412357   6.174   0.576   6.516  0.1310  0.3728 -0.3036
  118OSM    O1112358   6.136   0.350   6.605  0.6649 -1.0103  0.2151
  118OSM    O1212359   6.275   0.384   6.394  0.4047 -0.2084 -0.2056
  118OSM    C1S12360   6.161   0.228   6.685  0.5132  0.2897 -0.8611
  118OSM    H1S12361   6.270   0.209   6.690  0.3064 -1.6083 -2.4003
  118OSM    H1T12362   6.114   0.135   6.647 -0.0712  0.2095  0.0238
  118OSM     NF12363   6.169   0.182   6.928  0.1486 -0.2221  0.1080
  118OSM    HNF12364   6.110   0.104   6.948 -3.5469  1.4998 -2.7609
  118OSM    C2S12365   6.104   0.265   6.828 -0.9390  0.4837 -0.0266
  118OSM    H2S12366   6.136   0.369   6.847  3.5880 -0.6230 -0.4113
  118OSM    C3S12367   5.954   0.255   6.824 -0.2520  0.7277 -0.7173
  118OSM    H3S12368   5.921   0.150   6.806 -1.0049  0.8068  0.1294
  118OSM     O312369   5.904   0.334   6.728 -0.5660 -0.7097  0.6396
  118OSM    HO312370   5.980   0.361   6.675  0.5396 -0.9394  2.0418
  118OSM    C4S12371   5.888   0.286   6.956  0.1773  0.6604 -0.5545
  118OSM    H4S12372   5.886   0.204   7.029 -0.2372 -1.6656 -3.0005
  118OSM    C5S12373   5.832   0.409   6.997 -0.4552  0.1334 -0.1464
  118OSM    H5S12374   5.842   0.491   6.924  1.8972 -0.8520 -1.0212
  118OSM    C6S12375   5.774   0.445   7.134  0.2186 -0.0297 -0.7757
  118OSM    H6S12376   5.669   0.475   7.114 -0.4995 -0.7942  1.5195
  118OSM    H6T12377   5.831   0.532   7.172  4.8030 -3.4830  1.1947
  118OSM    C7S12378   5.781   0.341   7.256 -0.2182 -0.1245  0.0753
  118OSM    H7S12379   5.891   0.334   7.268 -0.4256 -1.6231  1.4340
  118OSM    H7T12380   5.746   0.240   7.227 -0.9537 -0.8060  3.0539
  118OSM    C8S12381   5.704   0.397   7.381 -0.0595 -0.1582  0.0911
  118OSM    H8S12382   5.678   0.308   7.442 -1.9787 -0.6622 -1.3641
  118OSM    H8T12383   5.614   0.450   7.345  1.6789  1.7139 -1.8101
  118OSM    C9S12384   5.792   0.496   7.465 -0.1551 -0.0559 -0.2538
  118OSM    H9S12385   5.822   0.573   7.391 -1.0030 -0.4548 -1.0269
  118OSM    H9T12386   5.882   0.437   7.491  0.1160 -0.4208 -1.9103
  118OSM   C10S12387   5.719   0.549   7.589 -0.4200  0.1325  0.5395
  118OSM   H10S12388   5.642   0.614   7.544 -1.2413 -2.0523 -1.4072
  118OSM   H10T12389   5.786   0.618   7.646 -1.9485  0.6052  1.8409
  118OSM   C11S12390   5.665   0.440   7.680  0.6584 -0.5942 -0.3504
  118OSM   H11S12391   5.745   0.368   7.707  0.9237 -0.1497  0.0646
  118OSM   H11T12392   5.599   0.376   7.618  1.1532 -1.4007 -0.0545
  118OSM   C12S12393   5.600   0.504   7.799 -0.0465 -0.2308  0.0024
  118OSM   H12S12394   5.542   0.426   7.854  0.3933 -0.5923 -0.0347
  118OSM   H12T12395   5.537   0.589   7.765  1.1483  0.3683 -0.8116
  118OSM   C13S12396   5.701   0.554   7.905  0.5472 -0.2431  1.0099
  118OSM   H13S12397   5.760   0.637   7.861 -0.5911  0.8324  1.4452
  118OSM   H13T12398   5.774   0.477   7.938  1.5938  0.1362 -0.3188
  118OSM   C14S12399   5.615   0.606   8.022 -0.6010 -0.0321 -0.2597
  118OSM   H14S12400   5.578   0.520   8.081  0.1764  0.9494  1.7746
  118OSM   H14T12401   5.534   0.675   7.990 -0.2357 -0.9988 -3.6733
  118OSM   C15S12402   5.705   0.688   8.121 -0.3530 -0.5847  0.5299
  118OSM   H15S12403   5.731   0.788   8.078 -0.7002 -0.7763 -0.1356
  118OSM   H15T12404   5.799   0.641   8.155  0.7068  0.2637 -1.0645
  118OSM   C16S12405   5.610   0.718   8.248  0.4486  0.1413 -0.1470
  118OSM   H16S12406   5.568   0.625   8.292 -0.1405  1.1632  1.5280
  118OSM   H16T12407   5.523   0.773   8.208 -0.0116 -0.0377  0.5996
  118OSM   C17S12408   5.687   0.792   8.351  0.3875 -0.5059 -0.1467
  118OSM   H17S12409   5.741   0.873   8.298  0.8692 -1.8700 -1.8252
  118OSM   H17T12410   5.767   0.733   8.400 -2.0386 -2.7524  1.3990
  118OSM   C18S12411   5.594   0.855   8.453  1.1630 -0.2312  0.0131
  118OSM   H18S12412   5.651   0.908   8.532  0.1989  1.6106 -0.4701
  118OSM   H18T12413   5.532   0.781   8.508 -0.3105  2.1614  1.7963
  118OSM   H18U12414   5.523   0.933   8.417  1.3828 -0.0997 -0.1426
  118OSM    C1F12415   6.296   0.201   6.966 -0.1163 -0.6879 -0.1206
  118OSM     OF12416   6.365   0.289   6.916 -0.4539  0.0577  0.2769
  118OSM    C2F12417   6.352   0.112   7.075 -0.6247  0.2766  0.1297
  118OSM    H2F12418   6.447   0.069   7.037 -0.3678 -0.1798  1.2480
  118OSM    H2G12419   6.291   0.025   7.106  0.2885 -1.0584 -1.6827
  118OSM    C3F12420   6.381   0.201   7.195 -0.2262 -0.8601 -0.2953
  118OSM    H3F12421   6.441   0.290   7.166  0.2738 -0.8202  0.8179
  118OSM    H3G12422   6.451   0.156   7.269  2.3364  2.2586 -0.5910
  118OSM    C4F12423   6.252   0.242   7.267 -0.2247  0.3074  0.2890
  118OSM    H4F12424   6.191   0.150   7.280  0.1411 -0.4243 -2.4814
  118OSM    H4G12425   6.197   0.303   7.192  0.0415 -1.7118 -1.6598
  118OSM    C5F12426   6.266   0.341   7.390  0.5013  0.1084  0.3417
  118OSM    H5F12427   6.311   0.438   7.361 -3.9442  1.8696 -1.4884
  118OSM    H5G12428   6.337   0.291   7.460  1.7820 -0.6131 -1.3920
  118OSM    C6F12429   6.137   0.366   7.465 -0.3338 -0.8612  0.1946
  118OSM    H6F12430   6.085   0.272   7.496 -0.3042 -1.2484 -0.8932
  118OSM    H6G12431   6.073   0.420   7.393  0.4736  0.6659  0.5930
  118OSM    C7F12432   6.151   0.472   7.575  0.5588  0.3718 -0.1305
  118OSM    H7F12433   6.059   0.527   7.604  3.8043  6.0182  0.9428
  118OSM    H7G12434   6.214   0.553   7.532 -0.3363  0.4397 -1.3325
  118OSM    C8F12435   6.227   0.419   7.701 -0.0669 -0.7019  0.3055
  118OSM    H8F12436   6.332   0.386   7.684  0.5863  0.9627  0.8735
  118OSM    H8G12437   6.177   0.333   7.750  2.1628 -0.8887  2.4720
  118OSM    C9F12438   6.253   0.530   7.807 -0.5821 -0.7015  0.2701
  118OSM    H9F12439   6.347   0.587   7.801 -1.3550  0.7584  1.5843
  118OSM   C10F12440   6.181   0.543   7.919  0.4316 -0.2641 -0.2830
  118OSM   H10F12441   6.208   0.615   7.998 -0.1049 -1.3443  0.9124
  118OSM   C11F12442   6.060   0.471   7.962 -0.2806  0.7834  0.2931
  118OSM   H11F12443   6.008   0.408   7.887 -0.6760  3.1479 -1.5286
  118OSM   H11G12444   5.988   0.542   8.007 -0.3426  0.2057  1.1226
  118OSM   C12F12445   6.105   0.362   8.069  0.6186  0.3055 -0.4956
  118OSM   H12F12446   6.189   0.310   8.019  0.7347 -0.0384  0.0488
  118OSM   H12G12447   6.024   0.288   8.088  0.4351  0.7128  0.3696
  118OSM   C13F12448   6.162   0.423   8.198 -0.4702 -0.1698 -0.4496
  118OSM   H13F12449   6.261   0.460   8.163 -1.4147  1.7120 -1.2644
  118OSM   H13G12450   6.170   0.333   8.263 -0.7515 -0.4428 -0.7909
  118OSM   C14F12451   6.088   0.537   8.268 -0.1707 -0.6007  0.6498
  118OSM   H14F12452   5.990   0.503   8.309  0.9783 -1.4469  2.9158
  118OSM   H14G12453   6.075   0.624   8.201 -1.3735 -0.5077  0.9842
  118OSM   C15F12454   6.163   0.590   8.391  0.3910  0.0572  0.5421
  118OSM   H15F12455   6.246   0.648   8.345 -1.9188  2.9039 -0.3968
  118OSM   H15G12456   6.192   0.507   8.458  0.8867  0.5588  0.9628
  118OSM   C16F12457   6.074   0.683   8.470  0.3547 -0.3385  0.4907
  118OSM   H16F12458   5.985   0.636   8.517 -1.6952  2.3457 -0.4197
  118OSM   H16G12459   6.023   0.748   8.395 -2.1728 -0.6220  1.8678
  118OSM   C17F12460   6.167   0.771   8.554  0.4455  0.3984 -0.3933
  118OSM   H17F12461   6.262   0.780   8.496 -0.4833 -3.0160 -2.6954
  118OSM   H17G12462   6.187   0.722   8.652 -1.8742  0.3389  0.0933
  118OSM   C18F12463   6.111   0.909   8.588 -0.1334  0.5638 -0.6821
  118OSM   H18F12464   6.181   0.972   8.647 -0.9246  2.0659 -1.2931
  118OSM   H18G12465   6.020   0.881   8.645  0.4160 -1.3105 -0.6619
  118OSM   H18H12466   6.076   0.967   8.500 -1.9588 -0.3393 -0.6020
  119OSM      N12467   1.828   6.152   6.361  0.0393 -0.0908 -0.0488
  119OSM    C1512468   1.942   6.094   6.276 -0.2728  0.0937 -0.4816
  119OSM   H15A12469   2.034   6.103   6.333 -0.7405 -2.4405  0.8363
  119OSM   H15B12470   1.957   6.142   6.180 -0.7621  1.2133 -0.0179
  119OSM   H15C12471   1.907   5.995   6.251 -0.3648  0.1451 -0.5562
  119OSM    C1412472   1.713   6.150   6.270  0.1729  0.6847 -0.0215
  119OSM   H14A12473   1.690   6.046   6.251  1.8872  0.1017  0.8190
  119OSM   H14B12474   1.723   6.193   6.172 -1.6273 -1.3134 -1.1688
  119OSM   H14C12475   1.629   6.195   6.320 -0.6698 -1.6970  0.8261
  119OSM    C1312476   1.809   6.064   6.474 -0.0340 -0.3701  0.5896
  119OSM   H13A12477   1.756   5.972   6.455 -0.7275  0.1542 -0.1426
  119OSM   H13B12478   1.743   6.113   6.544 -0.2403  0.4450 -0.1502
  119OSM   H13C12479   1.909   6.053   6.512  1.0826 -2.9913 -2.6114
  119OSM    C1212480   1.865   6.294   6.407  0.4181 -0.2757 -0.3877
  119OSM   H12A12481   1.867   6.361   6.323 -0.3646  1.4814  0.9248
  119OSM   H12B12482   1.962   6.289   6.454 -0.3038  0.9892  1.3489
  119OSM    C1112483   1.779   6.363   6.506 -0.6236  0.8124 -0.1196
  119OSM   H11A12484   1.829   6.451   6.553  1.5491 -0.6744  0.4973
  119OSM   H11B12485   1.758   6.298   6.593  0.4012 -0.5660 -0.8786
  119OSM      P12486   1.663   6.527   6.334 -0.1844  0.0734 -0.2518
  119OSM    O1312487   1.772   6.510   6.237  0.2566  0.3879  0.4627
  119OSM    O1412488   1.529   6.549   6.286  0.2120  0.2379  0.5448
  119OSM    O1112489   1.699   6.639   6.443  0.0698  0.0765  0.4331
  119OSM    O1212490   1.655   6.405   6.438 -0.1127 -0.1234  0.1418
  119OSM    C1S12491   1.628   6.664   6.568 -0.9141 -0.4849  0.4513
  119OSM    H1S12492   1.639   6.577   6.636 -2.4048 -0.2655  1.0153
  119OSM    H1T12493   1.524   6.696   6.546 -0.4210 -0.6443 -2.6070
  119OSM     NF12494   1.616   6.812   6.775  0.3382 -0.9375 -0.2209
  119OSM    HNF12495   1.552   6.888   6.779 -0.2779 -1.4861  2.5158
  119OSM    C2S12496   1.683   6.789   6.647 -0.8403  0.1761  0.6154
  119OSM    H2S12497   1.788   6.769   6.677  0.0704  0.1553 -2.3188
  119OSM    C3S12498   1.679   6.913   6.542 -0.2777  0.2429  0.1815
  119OSM    H3S12499   1.575   6.934   6.511 -0.3062  0.4969  0.4436
  119OSM     O312500   1.737   6.882   6.416 -0.6706 -0.3390  0.0073
  119OSM    HO312501   1.733   6.786   6.415  2.5773 -0.5971 -0.0932
  119OSM    C4S12502   1.731   7.041   6.609 -0.5131 -0.2634 -0.0376
  119OSM    H4S12503   1.653   7.089   6.671 -0.1237 -0.0747  0.3056
  119OSM    C5S12504   1.859   7.087   6.621  0.4012 -0.3244  0.5889
  119OSM    H5S12505   1.935   7.022   6.575  0.8135 -0.2670  1.1717
  119OSM    C6S12506   1.902   7.209   6.697  0.3481  0.1168  0.5995
  119OSM    H6S12507   1.881   7.296   6.631 -1.1060 -0.9388 -0.3947
  119OSM    H6T12508   2.013   7.208   6.701  0.3855  0.4594 -0.1834
  119OSM    C7S12509   1.834   7.215   6.835  0.0251 -0.2084  0.0730
  119OSM    H7S12510   1.723   7.213   6.830  0.0577 -1.8716 -0.4219
  119OSM    H7T12511   1.848   7.319   6.872 -1.3303  0.4490 -1.1376
  119OSM    C8S12512   1.880   7.117   6.950 -0.3201  0.0491 -0.0691
  119OSM    H8S12513   1.991   7.122   6.948 -0.2450  1.2431  2.5382
  119OSM    H8T12514   1.862   7.011   6.923 -0.1789 -0.7234  2.5298
  119OSM    C9S12515   1.832   7.160   7.086  0.0511 -0.5695 -0.3972
  119OSM    H9S12516   1.723   7.141   7.101  0.1507 -0.4750  0.5405
  119OSM    H9T12517   1.847   7.268   7.105  5.1376 -1.1434  0.3174
  119OSM   C10S12518   1.911   7.087   7.193 -0.0403  0.3033  0.4085
  119OSM   H10S12519   2.008   7.141   7.202 -1.1936  2.1333  3.2313
  119OSM   H10T12520   1.929   6.980   7.168 -0.5780 -0.0795  1.6287
  119OSM   C11S12521   1.846   7.083   7.336  0.5566 -0.0326  0.4494
  119OSM   H11S12522   1.915   7.042   7.413  0.2912 -2.5515 -0.5474
  119OSM   H11T12523   1.761   7.011   7.337  1.9423 -1.8826 -2.2717
  119OSM   C12S12524   1.787   7.218   7.384 -0.0668 -0.1984  0.2453
  119OSM   H12S12525   1.711   7.259   7.315 -1.6571 -2.3339  0.6280
  119OSM   H12T12526   1.867   7.296   7.385 -0.1283 -0.0875 -1.1536
  119OSM   C13S12527   1.727   7.226   7.527 -0.6872 -0.4139  0.4988
  119OSM   H13S12528   1.813   7.205   7.594  0.5839  0.4133 -0.8118
  119OSM   H13T12529   1.644   7.153   7.530 -0.9168 -0.3311 -1.9825
  119OSM   C14S12530   1.682   7.366   7.574  0.2127 -0.4156 -0.1966
  119OSM   H14S12531   1.643   7.429   7.491  1.2650  0.5198 -0.0044
  119OSM   H14T12532   1.764   7.432   7.611 -1.3863  1.6099 -0.0540
  119OSM   C15S12533   1.585   7.371   7.696  0.0948  0.1804  0.4872
  119OSM   H15S12534   1.509   7.291   7.684 -0.5976  0.6647  1.4773
  119OSM   H15T12535   1.528   7.466   7.686  1.1249  0.7389 -0.2904
  119OSM   C16S12536   1.653   7.356   7.834 -0.4841 -0.1332  0.2593
  119OSM   H16S12537   1.731   7.435   7.833 -1.1587  0.5418 -0.5323
  119OSM   H16T12538   1.698   7.257   7.855  0.2412  0.1444  0.0334
  119OSM   C17S12539   1.555   7.393   7.949  0.6875  0.0530  0.1652
  119OSM   H17S12540   1.463   7.338   7.921 -0.2086  2.2886 -1.5474
  119OSM   H17T12541   1.531   7.501   7.949 -1.5441 -0.3809 -0.5777
  119OSM   C18S12542   1.613   7.344   8.077  0.5807 -0.3792 -0.5224
  119OSM   H18S12543   1.635   7.236   8.084  0.4899 -0.3584  0.2182
  119OSM   H18T12544   1.548   7.365   8.165  2.4253 -1.0948  1.0845
  119OSM   H18U12545   1.707   7.401   8.095 -0.4461  1.2437 -0.0047
  119OSM    C1F12546   1.615   6.723   6.880  0.6727 -0.2703 -0.1765
  119OSM     OF12547   1.690   6.628   6.880  0.2799 -0.0924 -0.0019
  119OSM    C2F12548   1.516   6.742   6.995 -0.1457  0.5757 -0.3030
  119OSM    H2F12549   1.501   6.638   7.033 -0.1411 -0.0335 -1.8809
  119OSM    H2G12550   1.419   6.778   6.954 -0.8374 -1.7376 -0.8996
  119OSM    C3F12551   1.575   6.849   7.091  0.1261 -0.0524 -0.1992
  119OSM    H3F12552   1.610   6.936   7.031 -2.6260  0.1186 -1.7316
  119OSM    H3G12553   1.656   6.808   7.155  0.2560  1.1040  0.3907
  119OSM    C4F12554   1.484   6.900   7.200  0.3950 -0.2783 -0.6386
  119OSM    H4F12555   1.389   6.939   7.159  0.7128 -1.9302 -3.1835
  119OSM    H4G12556   1.533   6.983   7.255 -1.3918  0.4134 -0.0108
  119OSM    C5F12557   1.433   6.794   7.295  0.4032  0.5552 -0.0866
  119OSM    H5F12558   1.504   6.755   7.371 -1.6212 -2.0999  0.6167
  119OSM    H5G12559   1.400   6.710   7.230 -1.1468  0.7740  0.3824
  119OSM    C6F12560   1.312   6.827   7.377  0.2093 -0.1311 -1.0780
  119OSM    H6F12561   1.259   6.740   7.422 -1.6823  1.3114 -0.3633
  119OSM    H6G12562   1.239   6.879   7.311 -1.4802 -1.1096 -0.0743
  119OSM    C7F12563   1.343   6.932   7.489 -0.4731  0.6511 -0.4277
  119OSM    H7F12564   1.248   6.967   7.534 -0.2485 -2.2626  2.7447
  119OSM    H7G12565   1.401   7.021   7.455  1.0858 -0.1850 -0.0386
  119OSM    C8F12566   1.413   6.869   7.610 -0.1465 -0.2256  0.4370
  119OSM    H8F12567   1.481   6.791   7.572 -0.3580 -0.4430  0.5000
  119OSM    H8G12568   1.326   6.824   7.663  1.2934 -1.4092  1.8983
  119OSM    C9F12569   1.488   6.964   7.697  0.2170  0.2503 -0.1135
  119OSM    H9F12570   1.588   6.977   7.654  0.9487 -1.5884  0.9543
  119OSM   C10F12571   1.437   7.015   7.814  0.6776  0.1792 -0.3187
  119OSM   H10F12572   1.499   7.083   7.875 -0.9863  1.3142  0.1810
  119OSM   C11F12573   1.301   6.995   7.884  0.3271 -0.0169  0.5047
  119OSM   H11F12574   1.235   6.932   7.820  2.5667 -2.1073  0.0799
  119OSM   H11G12575   1.240   7.086   7.903 -1.0100 -0.5373 -1.0375
  119OSM   C12F12576   1.318   6.929   8.021 -0.0167  0.4332  0.4153
  119OSM   H12F12577   1.390   6.845   8.011 -3.3193 -2.6541  0.5785
  119OSM   H12G12578   1.227   6.877   8.055 -1.5355  2.4100 -0.3865
  119OSM   C13F12579   1.379   7.025   8.120 -0.3638  0.1256 -0.5508
  119OSM   H13F12580   1.320   7.118   8.134  0.3620  0.5686 -0.4132
  119OSM   H13G12581   1.485   7.051   8.100  0.6048 -1.1193  2.4711
  119OSM   C14F12582   1.377   6.962   8.266  0.1867 -0.0930  0.0753
  119OSM   H14F12583   1.454   7.015   8.325  0.0123  0.8097 -0.4764
  119OSM   H14G12584   1.409   6.857   8.254  1.7121 -0.2028  3.8893
  119OSM   C15F12585   1.252   6.988   8.346 -0.4550  0.0846  0.7564
  119OSM   H15F12586   1.167   6.962   8.280 -0.3315  0.7054  0.3544
  119OSM   H15G12587   1.243   7.098   8.355  2.3448  0.5019 -0.6952
  119OSM   C16F12588   1.245   6.907   8.474  0.5969  0.2646  0.8769
  119OSM   H16F12589   1.338   6.924   8.532  1.5352 -1.5657  0.0070
  119OSM   H16G12590   1.234   6.802   8.438  1.4218 -0.1744  1.8525
  119OSM   C17F12591   1.127   6.955   8.563 -0.3307  0.6880 -0.1956
  119OSM   H17F12592   1.036   6.929   8.505  0.2915 -3.2644  0.3241
  119OSM   H17G12593   1.125   7.065   8.579 -1.0334  0.8441 -1.2385
  119OSM   C18F12594   1.114   6.872   8.695 -0.3031 -0.8419 -0.0637
  119OSM   H18F12595   1.204   6.883   8.760  0.3418 -1.8459 -0.7674
  119OSM   H18G12596   1.096   6.765   8.672  0.4838 -1.1006  0.4819
  119OSM   H18H12597   1.030   6.904   8.760  0.9949 -0.8577  1.7119
  120OSM      N12598   4.157   4.113   6.622  0.8193 -0.3249 -0.2879
  120OSM    C1512599   4.231   4.235   6.612  0.2455 -0.3461 -0.6742
  120OSM   H15A12600   4.286   4.242   6.519  0.7280  0.3269 -0.3487
  120OSM   H15B12601   4.299   4.255   6.693 -0.8682 -0.7405  0.3904
  120OSM   H15C12602   4.161   4.318   6.610  2.0538  1.2536 -0.5757
  120OSM    C1412603   4.077   4.093   6.494  0.6089  0.1787 -1.1625
  120OSM   H14A12604   4.034   4.183   6.452 -1.8708 -0.9334 -1.2306
  120OSM   H14B12605   3.996   4.027   6.522 -1.0132  3.6336  3.5717
  120OSM   H14C12606   4.136   4.050   6.414 -1.3345 -0.1686 -2.4962
  120OSM    C1312607   4.260   4.004   6.627  0.3662  0.1725 -0.6215
  120OSM   H13A12608   4.321   3.982   6.541  0.1922 -0.7331 -0.5253
  120OSM   H13B12609   4.214   3.906   6.639  0.2529  0.0045 -2.2202
  120OSM   H13C12610   4.320   4.017   6.715 -0.4728  0.2232 -0.0413
  120OSM    C1212611   4.075   4.122   6.751  0.1770  0.3524 -0.1508
  120OSM   H12A12612   4.003   4.200   6.729  0.3006  0.5327  0.0844
  120OSM   H12B12613   4.129   4.147   6.840 -0.9024 -1.3484  1.0350
  120OSM    C1112614   3.991   3.998   6.795 -0.2921 -0.0861  0.2883
  120OSM   H11A12615   3.991   4.011   6.906  3.3641 -0.5658  0.4620
  120OSM   H11B12616   4.050   3.906   6.779  1.5293  0.9823  0.4792
  120OSM      P12617   3.793   3.882   6.666  0.1171  0.2249  0.0467
  120OSM    O1312618   3.647   3.892   6.682  0.6866 -0.1451 -0.0195
  120OSM    O1412619   3.854   3.872   6.528  0.1134  0.2015 -0.6905
  120OSM    O1112620   3.849   3.767   6.752  0.3437  0.0504 -0.0802
  120OSM    O1212621   3.861   4.012   6.739 -0.0051 -0.2238 -0.3507
  120OSM    C1S12622   3.776   3.742   6.872  0.1898 -0.0497 -0.3300
  120OSM    H1S12623   3.674   3.702   6.857  0.5838 -1.8828  1.5154
  120OSM    H1T12624   3.765   3.835   6.933 -0.8271 -0.5416  0.2714
  120OSM     NF12625   3.756   3.632   7.097 -0.2467 -0.5982  0.5112
  120OSM    HNF12626   3.790   3.685   7.174 -1.4647 -0.9430  1.3216
  120OSM    C2S12627   3.844   3.642   6.965 -0.1937  0.7949 -0.1339
  120OSM    H2S12628   3.840   3.541   6.919 -2.1941 -0.4559  2.5839
  120OSM    C3S12629   3.989   3.680   6.994 -0.0966 -0.1490 -0.4610
  120OSM    H3S12630   3.993   3.784   7.033  1.1770 -0.7533  1.1809
  120OSM     O312631   4.085   3.665   6.883 -0.2181  0.5347  0.0180
  120OSM    HO312632   4.034   3.644   6.805  2.0687 -3.7404 -0.6140
  120OSM    C4S12633   4.038   3.595   7.111  0.7391  0.6765  0.6064
  120OSM    H4S12634   4.040   3.657   7.202  1.0333 -0.9973  1.7713
  120OSM    C5S12635   4.087   3.468   7.122  0.9598 -0.0689 -0.2468
  120OSM    H5S12636   4.094   3.403   7.034 -1.3476 -0.0109 -0.5440
  120OSM    C6S12637   4.130   3.396   7.252 -0.5266 -0.7274 -0.0241
  120OSM    H6S12638   4.227   3.342   7.248 -0.6346 -1.4386  3.5774
  120OSM    H6T12639   4.053   3.318   7.268  0.3585 -1.1475  2.5505
  120OSM    C7S12640   4.142   3.483   7.376  0.4337 -0.3015 -0.5884
  120OSM    H7S12641   4.046   3.540   7.373 -0.2640 -1.3244  1.0249
  120OSM    H7T12642   4.228   3.553   7.383  1.0828 -1.0837 -0.6581
  120OSM    C8S12643   4.143   3.397   7.505  0.5817  0.3774  0.0273
  120OSM    H8S12644   4.248   3.368   7.527  0.3429 -1.1637 -0.7499
  120OSM    H8T12645   4.093   3.298   7.499 -1.3232  1.2316  0.7603
  120OSM    C9S12646   4.080   3.472   7.622  0.6735  0.0580 -0.2780
  120OSM    H9S12647   3.984   3.509   7.582 -0.6228 -2.2405  0.5463
  120OSM    H9T12648   4.153   3.552   7.647  1.4024 -0.8676  0.6404
  120OSM   C10S12649   4.053   3.382   7.745  0.2347  0.3303 -0.3705
  120OSM   H10S12650   4.150   3.338   7.777 -0.5616 -0.2667  1.3622
  120OSM   H10T12651   4.000   3.286   7.727 -0.9001  0.9966 -0.6645
  120OSM   C11S12652   3.994   3.452   7.874  0.5045 -0.6378 -0.4712
  120OSM   H11S12653   3.884   3.447   7.863  0.5407 -2.4730 -0.2372
  120OSM   H11T12654   4.035   3.554   7.861  4.1019 -1.6370  1.6205
  120OSM   C12S12655   4.028   3.378   8.001  0.8786  1.1300 -0.6989
  120OSM   H12S12656   4.137   3.358   7.998  0.5123 -1.0504 -0.8037
  120OSM   H12T12657   3.966   3.286   8.000  0.6410  1.2639  0.3449
  120OSM   C13S12658   3.984   3.467   8.119 -0.0907 -0.0304  0.0808
  120OSM   H13S12659   3.883   3.508   8.098  0.8048  2.1645 -0.2160
  120OSM   H13T12660   4.052   3.555   8.110 -0.5114  0.3242  0.3356
  120OSM   C14S12661   4.008   3.402   8.256  0.0834 -0.1913 -0.4767
  120OSM   H14S12662   4.046   3.473   8.333 -2.0678 -0.1608  0.6548
  120OSM   H14T12663   4.084   3.322   8.258  0.1387 -0.1301  0.0555
  120OSM   C15S12664   3.880   3.341   8.315  0.1499 -0.2273 -0.7937
  120OSM   H15S12665   3.845   3.267   8.240  0.3549 -0.2458 -0.8718
  120OSM   H15T12666   3.804   3.422   8.306 -0.9734 -1.0353  0.8971
  120OSM   C16S12667   3.901   3.288   8.458  0.8491  0.1652  0.4007
  120OSM   H16S12668   3.805   3.250   8.498 -0.0111  1.5950 -0.2273
  120OSM   H16T12669   3.928   3.383   8.508 -1.2451 -0.4154  2.8392
  120OSM   C17S12670   4.010   3.176   8.465 -0.2739  0.0070 -0.7100
  120OSM   H17S12671   4.098   3.227   8.422  0.0537  0.5525  0.5677
  120OSM   H17T12672   3.985   3.091   8.399  1.1421 -0.2704 -0.9166
  120OSM   C18S12673   4.036   3.108   8.601  0.5070 -0.5923 -0.1665
  120OSM   H18S12674   4.085   3.182   8.668 -1.2514  1.7236 -1.2875
  120OSM   H18T12675   4.099   3.017   8.592  2.7406  1.0418 -2.4867
  120OSM   H18U12676   3.939   3.071   8.641 -0.0784  0.5632 -0.4482
  120OSM    C1F12677   3.651   3.564   7.090 -0.4667 -0.4561  0.1207
  120OSM     OF12678   3.606   3.509   6.993  0.2184 -0.3235 -0.6854
  120OSM    C2F12679   3.586   3.533   7.229 -0.6554 -0.7170 -0.1341
  120OSM    H2F12680   3.499   3.469   7.202  0.1328 -2.0030  0.2670
  120OSM    H2G12681   3.539   3.627   7.264 -0.3614 -1.4007  2.2486
  120OSM    C3F12682   3.679   3.453   7.329  0.5366  0.3624 -0.4287
  120OSM    H3F12683   3.759   3.525   7.356  2.1292 -1.2548 -0.6349
  120OSM    H3G12684   3.712   3.373   7.260 -2.2014 -0.4688 -0.9203
  120OSM    C4F12685   3.603   3.386   7.449  0.4138 -0.0022  0.0469
  120OSM    H4F12686   3.508   3.338   7.417  1.3930 -1.4688 -0.8157
  120OSM    H4G12687   3.587   3.468   7.521 -0.8988  0.4968 -0.7999
  120OSM    C5F12688   3.703   3.296   7.528 -0.6502  0.7666  0.1174
  120OSM    H5F12689   3.756   3.364   7.598  0.0133  0.2190  0.1650
  120OSM    H5G12690   3.782   3.243   7.469 -0.8589 -0.2263  0.7126
  120OSM    C6F12691   3.638   3.191   7.623  0.1372  0.4741 -0.3167
  120OSM    H6F12692   3.615   3.097   7.570  0.1832 -0.5202  1.3530
  120OSM    H6G12693   3.550   3.243   7.667  1.5692  2.2802  0.5415
  120OSM    C7F12694   3.744   3.148   7.728  0.7773 -0.1763 -0.3555
  120OSM    H7F12695   3.786   3.234   7.785 -2.1846  0.2947  1.3380
  120OSM    H7G12696   3.824   3.098   7.670  0.5368 -1.0216  0.0152
  120OSM    C8F12697   3.682   3.042   7.832 -0.3353 -0.4200  0.2672
  120OSM    H8F12698   3.680   2.957   7.761  0.2539  0.6647 -1.0877
  120OSM    H8G12699   3.577   3.073   7.854 -0.7077  0.6133 -2.6017
  120OSM    C9F12700   3.770   3.026   7.949 -0.7302 -0.2316  0.0340
  120OSM    H9F12701   3.849   2.954   7.924 -2.4642 -1.2088 -3.3451
  120OSM   C10F12702   3.739   3.063   8.079 -0.9242 -0.3048  0.7968
  120OSM   H10F12703   3.808   3.057   8.164 -0.3497 -1.4916  0.2739
  120OSM   C11F12704   3.616   3.136   8.127  0.2862  0.4866  0.7787
  120OSM   H11F12705   3.553   3.168   8.041  2.7026  3.2543 -0.1221
  120OSM   H11G12706   3.640   3.238   8.164 -3.5874  1.5040  0.8447
  120OSM   C12F12707   3.535   3.063   8.233 -0.5231 -0.4190  0.4805
  120OSM   H12F12708   3.540   2.954   8.215  2.8260 -0.1612 -0.9096
  120OSM   H12G12709   3.427   3.088   8.239 -0.8799 -1.8539  0.3774
  120OSM   C13F12710   3.600   3.077   8.375 -0.4135  0.2358 -0.1645
  120OSM   H13F12711   3.663   3.168   8.379 -0.8614  0.5743 -0.6940
  120OSM   H13G12712   3.658   2.983   8.384 -1.1432 -0.1095  1.1625
  120OSM   C14F12713   3.485   3.082   8.482  0.1420 -0.1884  0.9338
  120OSM   H14F12714   3.454   2.978   8.504 -1.2278 -0.3935 -1.5126
  120OSM   H14G12715   3.399   3.139   8.439  0.5113  0.7860  1.4503
  120OSM   C15F12716   3.527   3.145   8.616  0.5960 -0.4137 -0.7503
  120OSM   H15F12717   3.534   3.256   8.621 -0.8304 -0.3317 -0.0173
  120OSM   H15G12718   3.626   3.106   8.648  0.4334  0.3892  0.8636
  120OSM   C16F12719   3.418   3.111   8.727 -0.5934  0.2397 -0.0390
  120OSM   H16F12720   3.406   3.001   8.739 -1.2625  0.1984 -1.0018
  120OSM   H16G12721   3.317   3.140   8.690 -0.3731 -0.2575 -1.0727
  120OSM   C17F12722   3.436   3.177   8.863 -0.0831 -0.6280  0.9168
  120OSM   H17F12723   3.421   3.286   8.852  1.5113 -0.5178 -0.6356
  120OSM   H17G12724   3.542   3.160   8.893  1.0584 -0.1960 -2.4669
  120OSM   C18F12725   3.340   3.112   8.962  0.3563  0.9152  0.2420
  120OSM   H18F12726   3.367   3.015   9.008 -0.2191  0.7300  0.1919
  120OSM   H18G12727   3.245   3.107   8.904 -0.0769  0.9388  0.9356
  120OSM   H18H12728   3.326   3.193   9.037  2.7325  2.2098 -0.6157
  121OSM      N12729   6.664   5.273   6.512 -0.1970 -0.3310 -0.5855
  121OSM    C1512730   6.804   5.235   6.524  0.7143 -0.2440 -0.2269
  121OSM   H15A12731   6.845   5.205   6.429  0.2465 -1.5590 -0.0442
  121OSM   H15B12732   6.817   5.142   6.578  1.8648 -0.4821 -0.8778
  121OSM   H15C12733   6.872   5.298   6.580 -2.1349  0.5719  2.6423
  121OSM    C1412734   6.584   5.156   6.450  0.0167 -0.4302 -0.7321
  121OSM   H14A12735   6.481   5.178   6.425  0.1003 -1.0966 -1.6817
  121OSM   H14B12736   6.587   5.079   6.526 -0.7649 -0.4846 -0.7492
  121OSM   H14C12737   6.638   5.127   6.361  0.9066 -2.3534  0.3612
  121OSM    C1312738   6.616   5.295   6.650  0.4088  0.5901 -0.9239
  121OSM   H13A12739   6.684   5.350   6.714 -0.8513  0.1124  0.9092
  121OSM   H13B12740   6.601   5.203   6.704 -0.7584 -0.4825 -2.9559
  121OSM   H13C12741   6.520   5.345   6.656 -0.4209 -1.0004 -0.2648
  121OSM    C1212742   6.645   5.405   6.434  0.3742  0.1237 -0.2183
  121OSM   H12A12743   6.677   5.385   6.333 -0.5537  0.7092 -0.6414
  121OSM   H12B12744   6.720   5.469   6.476 -1.5633  2.7491 -0.5373
  121OSM    C1112745   6.501   5.466   6.434 -0.4884 -0.0587 -0.2646
  121OSM   H11A12746   6.498   5.562   6.377 -0.1372 -0.3469 -0.7732
  121OSM   H11B12747   6.499   5.503   6.539  1.6659  1.7708 -0.7953
  121OSM      P12748   6.258   5.370   6.444 -0.4749  0.2358 -0.2683
  121OSM    O1312749   6.179   5.451   6.348 -0.0747 -0.0810  0.0469
  121OSM    O1412750   6.234   5.232   6.478 -0.5358  0.2261  0.5473
  121OSM    O1112751   6.265   5.439   6.584 -0.8471  0.5690 -0.4791
  121OSM    O1212752   6.404   5.368   6.396 -0.1839 -0.1943  0.6942
  121OSM    C1S12753   6.171   5.422   6.685  0.6583 -0.0629 -0.3825
  121OSM    H1S12754   6.184   5.329   6.744 -1.0157  1.0105  1.8121
  121OSM    H1T12755   6.076   5.406   6.631 -0.0141  1.7998  0.1730
  121OSM     NF12756   6.080   5.515   6.892  0.2691 -0.7342  0.5176
  121OSM    HNF12757   5.996   5.568   6.904  0.0940 -1.4807  3.2712
  121OSM    C2S12758   6.175   5.540   6.786  0.3466  0.1185 -0.0908
  121OSM    H2S12759   6.277   5.551   6.828  0.7693 -2.0596 -0.4459
  121OSM    C3S12760   6.158   5.660   6.695  0.2997  0.1691  0.0772
  121OSM    H3S12761   6.081   5.639   6.618  1.3618  2.0860 -1.6080
  121OSM     O312762   6.275   5.700   6.623  0.3208  0.2866 -0.0970
  121OSM    HO312763   6.318   5.616   6.605 -0.3633 -0.4920  1.7545
  121OSM    C4S12764   6.116   5.775   6.779 -0.4056  0.7823 -0.2097
  121OSM    H4S12765   6.011   5.774   6.809 -0.0927  0.3497  0.8998
  121OSM    C5S12766   6.188   5.881   6.816 -0.2607 -0.6151  0.0376
  121OSM    H5S12767   6.291   5.882   6.776 -0.1035 -2.8030  0.2596
  121OSM    C6S12768   6.147   5.988   6.919 -0.4822 -0.0539 -0.3328
  121OSM    H6S12769   6.081   5.940   6.995 -0.1290 -0.7975 -0.4771
  121OSM    H6T12770   6.097   6.074   6.871  0.7231  0.7452 -0.1986
  121OSM    C7S12771   6.263   6.057   6.997  0.5683 -0.0159 -0.5549
  121OSM    H7S12772   6.324   6.108   6.919  1.0495 -1.8064 -1.4254
  121OSM    H7T12773   6.331   5.982   7.044  1.2092  0.1463 -1.2066
  121OSM    C8S12774   6.230   6.176   7.094  1.1159  0.5674  0.8977
  121OSM    H8S12775   6.130   6.205   7.055  0.2288 -3.2351 -0.1362
  121OSM    H8T12776   6.295   6.259   7.060  0.0125  0.6483 -1.1534
  121OSM    C9S12777   6.240   6.139   7.236 -0.3459  0.1643  0.3121
  121OSM    H9S12778   6.347   6.132   7.263 -0.5059 -1.0495  0.6765
  121OSM    H9T12779   6.194   6.038   7.243 -0.1993 -0.0481 -1.3313
  121OSM   C10S12780   6.168   6.243   7.327 -0.1137  0.3499  0.5099
  121OSM   H10S12781   6.060   6.253   7.304 -0.6854  0.8227  3.0471
  121OSM   H10T12782   6.215   6.343   7.321  0.8921  0.1027  2.8404
  121OSM   C11S12783   6.175   6.198   7.472  0.4658  0.7982 -1.4810
  121OSM   H11S12784   6.280   6.198   7.508  0.3159 -2.5860 -0.7263
  121OSM   H11T12785   6.142   6.093   7.484  0.2690  0.9121 -1.0141
  121OSM   C12S12786   6.092   6.288   7.557 -0.9553  0.8873  0.1524
  121OSM   H12S12787   5.986   6.262   7.538 -0.4840 -0.3321 -0.9932
  121OSM   H12T12788   6.112   6.389   7.515  0.1413  0.4990 -0.2997
  121OSM   C13S12789   6.116   6.290   7.709  0.1913  0.5000  0.3175
  121OSM   H13S12790   6.216   6.329   7.740  0.6988  1.7428 -2.4891
  121OSM   H13T12791   6.112   6.186   7.747  1.5620  0.1087 -0.5298
  121OSM   C14S12792   6.012   6.377   7.783 -0.4338 -0.1685  0.5570
  121OSM   H14S12793   5.916   6.326   7.763  0.3596 -1.4884 -0.0489
  121OSM   H14T12794   6.014   6.478   7.737 -1.7464  0.0943  1.0578
  121OSM   C15S12795   6.024   6.389   7.933 -0.9042 -0.5560  0.1391
  121OSM   H15S12796   5.937   6.447   7.972 -1.3859 -1.1879  0.0049
  121OSM   H15T12797   6.124   6.430   7.962 -0.1240 -1.5990 -0.9602
  121OSM   C16S12798   6.017   6.254   8.005  0.8459  0.0878 -0.3185
  121OSM   H16S12799   6.100   6.185   7.978  1.6675  0.7195  0.5518
  121OSM   H16T12800   5.919   6.202   8.004 -0.9859  3.2463  0.5143
  121OSM   C17S12801   6.033   6.270   8.161 -0.1176  0.2231 -0.4694
  121OSM   H17S12802   6.021   6.170   8.209  0.5566 -0.4659 -1.6661
  121OSM   H17T12803   5.952   6.342   8.184 -2.1185 -1.2212 -2.4431
  121OSM   C18S12804   6.164   6.327   8.213 -0.4564  0.3801 -0.1567
  121OSM   H18S12805   6.203   6.413   8.155  0.5712 -0.0047 -0.0607
  121OSM   H18T12806   6.244   6.250   8.212  2.8877  3.4554  2.6911
  121OSM   H18U12807   6.152   6.348   8.321 -0.9847 -1.2073  0.1316
  121OSM    C1F12808   6.106   5.430   6.989 -0.3409  0.1306 -0.1194
  121OSM     OF12809   6.215   5.376   6.988 -0.5046  0.4869  0.7838
  121OSM    C2F12810   5.995   5.411   7.086 -0.2301  0.0129 -0.0674
  121OSM    H2F12811   5.893   5.417   7.042 -1.2015 -0.7441  1.9659
  121OSM    H2G12812   5.998   5.502   7.150  1.6669  2.0588 -2.8049
  121OSM    C3F12813   6.020   5.281   7.178  0.8989  0.0991  0.6951
  121OSM    H3F12814   6.123   5.286   7.219  0.0932  3.3913  2.7050
  121OSM    H3G12815   6.012   5.188   7.118  1.8777  1.5085 -1.7809
  121OSM    C4F12816   5.926   5.297   7.306 -0.4113  0.3568  0.3001
  121OSM    H4F12817   5.820   5.297   7.273 -0.8449  1.3790  1.5954
  121OSM    H4G12818   5.940   5.397   7.353  0.6420 -0.6194  2.1695
  121OSM    C5F12819   5.948   5.191   7.417  0.6124 -0.2062  0.0352
  121OSM    H5F12820   6.048   5.196   7.463  0.5631  1.1716  0.0369
  121OSM    H5G12821   5.942   5.095   7.361  0.6875 -0.2212  0.0539
  121OSM    C6F12822   5.841   5.197   7.521  0.0696  0.3538  0.3888
  121OSM    H6F12823   5.819   5.096   7.561  0.6702 -0.0290 -0.2282
  121OSM    H6G12824   5.740   5.210   7.475  0.2366  0.8825  0.1598
  121OSM    C7F12825   5.874   5.300   7.633 -0.1993  0.4365  0.4975
  121OSM    H7F12826   5.884   5.399   7.583  0.1779  0.4643  0.6259
  121OSM    H7G12827   5.966   5.270   7.687 -0.3268 -1.1776 -0.1169
  121OSM    C8F12828   5.765   5.309   7.739  0.1576 -0.1507 -0.1597
  121OSM    H8F12829   5.665   5.345   7.706  0.4182  0.6955 -0.0409
  121OSM    H8G12830   5.805   5.392   7.801 -0.9172 -0.5829  1.1810
  121OSM    C9F12831   5.748   5.188   7.826 -0.1452  0.1570 -0.3757
  121OSM    H9F12832   5.696   5.106   7.775  1.3837 -1.1030 -0.0042
  121OSM   C10F12833   5.793   5.168   7.950 -0.4683 -1.1102 -0.0747
  121OSM   H10F12834   5.770   5.076   8.005 -3.2694 -0.3618  0.1274
  121OSM   C11F12835   5.863   5.267   8.039  0.4150  0.0911  0.4554
  121OSM   H11F12836   5.830   5.369   8.012  0.6339  0.3321  1.0771
  121OSM   H11G12837   5.972   5.262   8.021  0.5017 -0.8019  1.1572
  121OSM   C12F12838   5.832   5.255   8.188  0.4723  0.2720 -0.3002
  121OSM   H12F12839   5.868   5.157   8.225  0.0542  0.4306  0.5498
  121OSM   H12G12840   5.722   5.251   8.204  0.5872  1.4235  0.9185
  121OSM   C13F12841   5.885   5.362   8.276 -1.0980  0.8499 -0.0401
  121OSM   H13F12842   5.829   5.454   8.248  2.2302  2.2181 -2.9012
  121OSM   H13G12843   5.992   5.387   8.257 -0.3251 -0.4709  2.1342
  121OSM   C14F12844   5.892   5.330   8.419 -0.6957 -0.1252 -0.2616
  121OSM   H14F12845   5.929   5.226   8.434  0.1973 -0.1667 -2.4154
  121OSM   H14G12846   5.787   5.332   8.456 -0.2584  0.2690  1.0373
  121OSM   C15F12847   5.983   5.431   8.498 -0.2350  0.0918  0.3296
  121OSM   H15F12848   5.927   5.527   8.501  0.8591  0.7946 -0.9533
  121OSM   H15G12849   6.076   5.453   8.442 -0.6588  2.8012  0.5381
  121OSM   C16F12850   6.017   5.377   8.639  0.1715  0.2187 -0.6749
  121OSM   H16F12851   6.061   5.275   8.640  1.2361  0.6363  1.3584
  121OSM   H16G12852   5.929   5.373   8.706  0.2497  1.8195 -0.4223
  121OSM   C17F12853   6.127   5.460   8.701 -0.2118  0.0546  0.1885
  121OSM   H17F12854   6.219   5.451   8.639 -0.7093  1.2976 -0.7632
  121OSM   H17G12855   6.133   5.407   8.798 -3.1077  0.5426  0.7277
  121OSM   C18F12856   6.107   5.614   8.722 -0.1497 -0.0292 -0.2398
  121OSM   H18F12857   6.020   5.635   8.788  0.2032  0.6301  0.0257
  121OSM   H18G12858   6.082   5.665   8.627 -1.1208 -1.1653 -0.6201
  121OSM   H18H12859   6.200   5.651   8.772  0.4879 -0.0704 -1.3598
  122OSM      N12860   5.067   0.666   6.202  0.0581  0.0663  0.6256
  122OSM    C1512861   5.156   0.586   6.108 -0.0474 -0.2491  0.6829
  122OSM   H15A12862   5.184   0.643   6.020 -1.6963 -1.1095 -0.4655
  122OSM   H15B12863   5.111   0.494   6.074 -1.5959  0.9734 -0.8028
  122OSM   H15C12864   5.246   0.560   6.160 -0.4103 -0.4540  1.2179
  122OSM    C1412865   4.935   0.690   6.146 -0.0211 -0.0157 -0.5311
  122OSM   H14A12866   4.873   0.604   6.122 -2.5157  1.1269  1.2930
  122OSM   H14B12867   4.942   0.751   6.057 -0.4975  1.4547  0.4040
  122OSM   H14C12868   4.889   0.751   6.223 -2.0963 -0.7973 -1.0722
  122OSM    C1312869   5.054   0.577   6.329 -0.1630  0.0087  0.2194
  122OSM   H13A12870   5.008   0.645   6.400  0.5145  2.5529 -1.6456
  122OSM   H13B12871   5.147   0.547   6.373 -0.0911  1.0931  0.8623
  122OSM   H13C12872   5.008   0.482   6.305 -0.8292  0.7209 -1.4869
  122OSM    C1212873   5.140   0.794   6.230  0.3126  0.9994 -0.4121
  122OSM   H12A12874   5.145   0.843   6.134 -1.9757  0.4996 -0.8486
  122OSM   H12B12875   5.235   0.761   6.271 -1.6139 -1.4493  2.5464
  122OSM    C1112876   5.082   0.896   6.330 -0.0405  0.6682  0.8096
  122OSM   H11A12877   5.148   0.985   6.331  0.4380  0.3587 -0.7822
  122OSM   H11B12878   5.086   0.850   6.431 -0.8272 -0.7164  0.2408
  122OSM      P12879   4.898   1.059   6.244 -0.1358  0.4188 -0.2082
  122OSM    O1312880   4.993   1.100   6.140  0.0131  0.2277 -0.2962
  122OSM    O1412881   4.757   1.048   6.216  0.1341  0.0867 -0.3511
  122OSM    O1112882   4.917   1.139   6.375 -0.4726  0.1531  0.1237
  122OSM    O1212883   4.948   0.924   6.293 -0.7725 -0.0960  0.5500
  122OSM    C1S12884   4.829   1.123   6.488 -0.0865  0.1375 -0.8704
  122OSM    H1S12885   4.743   1.055   6.468  0.4121 -0.3622 -1.3406
  122OSM    H1T12886   4.783   1.222   6.508  0.3122  0.5815 -2.0421
  122OSM     NF12887   4.793   1.052   6.720  0.5006  0.2385  0.0263
  122OSM    HNF12888   4.816   1.107   6.800  1.3244  0.0685 -0.0854
  122OSM    C2S12889   4.894   1.063   6.611  1.1188 -0.2852 -0.1902
  122OSM    H2S12890   4.927   0.960   6.587 -0.4513 -1.2289  1.4267
  122OSM    C3S12891   5.015   1.145   6.662  0.6010  0.0645  0.7242
  122OSM    H3S12892   4.985   1.244   6.703  0.2266 -0.4713  1.7759
  122OSM     O312893   5.100   1.171   6.555 -0.3038 -0.1682 -0.3199
  122OSM    HO312894   5.038   1.152   6.484  0.6388 -3.1555 -0.4954
  122OSM    C4S12895   5.108   1.073   6.754 -0.0050  0.6138  0.4607
  122OSM    H4S12896   5.161   0.983   6.719  1.2280  1.4422  0.1156
  122OSM    C5S12897   5.139   1.122   6.875 -0.5959  0.2485  0.0668
  122OSM    H5S12898   5.091   1.218   6.897 -3.5567 -0.5373 -2.3842
  122OSM    C6S12899   5.227   1.067   6.981  0.1034 -0.3234 -0.5238
  122OSM    H6S12900   5.303   1.143   7.010 -2.0480  1.3057  1.2196
  122OSM    H6T12901   5.269   0.970   6.947 -1.4852 -0.5358 -2.0122
  122OSM    C7S12902   5.153   1.036   7.115  0.1646  0.0774  0.3200
  122OSM    H7S12903   5.074   0.962   7.090  0.4753 -0.2696  0.3502
  122OSM    H7T12904   5.109   1.126   7.163  1.0031  0.3199  0.6484
  122OSM    C8S12905   5.246   0.963   7.213  0.7867 -0.1521 -0.7122
  122OSM    H8S12906   5.333   1.026   7.238  0.0014  1.5374 -2.0398
  122OSM    H8T12907   5.278   0.882   7.143  1.5293  0.6960 -1.3744
  122OSM    C9S12908   5.174   0.900   7.335 -0.6500 -0.1179  0.3001
  122OSM    H9S12909   5.241   0.825   7.382  0.0972 -0.3314 -1.0267
  122OSM    H9T12910   5.080   0.867   7.285 -0.2020 -0.4666 -0.3287
  122OSM   C10S12911   5.144   1.011   7.442  0.5107  0.0727 -0.3664
  122OSM   H10S12912   5.065   1.077   7.400 -1.0928 -1.9289 -0.6831
  122OSM   H10T12913   5.238   1.066   7.464  0.0513 -0.0623  2.1818
  122OSM   C11S12914   5.101   0.957   7.583 -0.2967 -0.4950 -0.3962
  122OSM   H11S12915   5.176   0.883   7.619 -0.4108 -0.1460  0.5755
  122OSM   H11T12916   5.007   0.900   7.568 -0.1454 -0.5113 -1.3962
  122OSM   C12S12917   5.073   1.060   7.695  0.3763 -0.6608  0.5758
  122OSM   H12S12918   5.015   1.145   7.653  2.1491  0.5121  0.3690
  122OSM   H12T12919   5.174   1.097   7.724  0.9745 -0.5668 -1.4196
  122OSM   C13S12920   5.006   0.998   7.815  0.3741  0.8569 -0.0217
  122OSM   H13S12921   5.074   0.920   7.855 -1.0105  0.0331  0.7875
  122OSM   H13T12922   4.921   0.938   7.777  0.6332  0.7602 -0.4610
  122OSM   C14S12923   4.951   1.093   7.921 -0.2967 -0.4517 -0.1775
  122OSM   H14S12924   4.891   1.176   7.877  0.2600  1.2435  2.0742
  122OSM   H14T12925   5.039   1.136   7.973  0.4692 -1.1743 -0.8620
  122OSM   C15S12926   4.872   1.024   8.038 -0.0617  0.6454  0.3464
  122OSM   H15S12927   4.937   0.948   8.086 -0.0857 -1.4471 -2.6096
  122OSM   H15T12928   4.794   0.954   7.999 -0.1980  0.4545  0.9587
  122OSM   C16S12929   4.813   1.126   8.142  0.8180  0.0360  0.2747
  122OSM   H16S12930   4.736   1.185   8.089  0.6781 -0.5635 -0.1904
  122OSM   H16T12931   4.891   1.194   8.183  1.8277 -0.1459 -1.2697
  122OSM   C17S12932   4.728   1.054   8.250  0.0383 -0.5920  0.0237
  122OSM   H17S12933   4.784   0.979   8.309 -0.2794 -1.8330 -1.2113
  122OSM   H17T12934   4.643   0.995   8.211  0.0683 -1.9589  1.8949
  122OSM   C18S12935   4.673   1.167   8.349 -0.0986 -0.5501 -0.1118
  122OSM   H18S12936   4.621   1.249   8.295  0.6457  0.2782  0.4061
  122OSM   H18T12937   4.761   1.208   8.404 -0.1200  1.0508 -1.2351
  122OSM   H18U12938   4.599   1.108   8.408 -0.0150 -1.3585 -0.7825
  122OSM    C1F12939   4.677   0.979   6.720  0.0893  0.5093 -0.3130
  122OSM     OF12940   4.644   0.914   6.620 -0.0570 -0.0921  0.2857
  122OSM    C2F12941   4.594   0.973   6.844 -0.5013 -0.4186 -0.8896
  122OSM    H2F12942   4.656   0.990   6.935 -0.4817 -1.2280 -0.7408
  122OSM    H2G12943   4.553   0.870   6.838 -0.8560 -0.3293 -0.1498
  122OSM    C3F12944   4.466   1.069   6.826  0.0931  0.0592  0.5355
  122OSM    H3F12945   4.424   1.061   6.724  0.7852 -1.3130  0.3409
  122OSM    H3G12946   4.511   1.170   6.841 -0.5931  0.2840  1.1632
  122OSM    C4F12947   4.346   1.058   6.928  0.2421  0.1882  0.2063
  122OSM    H4F12948   4.271   0.981   6.902 -0.6654  0.7830  1.0151
  122OSM    H4G12949   4.294   1.156   6.925  0.5127  0.3612  0.9771
  122OSM    C5F12950   4.380   1.040   7.077  0.3172  0.2887 -0.1401
  122OSM    H5F12951   4.481   1.082   7.097  0.2457  1.0945 -1.3390
  122OSM    H5G12952   4.382   0.931   7.095  1.1901  0.6092  2.0483
  122OSM    C6F12953   4.274   1.102   7.170 -0.0741 -0.3808 -0.1341
  122OSM    H6F12954   4.170   1.096   7.131 -0.6409  0.4646  1.1883
  122OSM    H6G12955   4.297   1.209   7.188 -1.0486 -0.2324  0.3195
  122OSM    C7F12956   4.273   1.050   7.317  0.8762 -0.2066 -0.6294
  122OSM    H7F12957   4.378   1.052   7.353  0.1327 -2.1718  1.9254
  122OSM    H7G12958   4.247   0.942   7.314 -1.3854  0.2909 -0.1609
  122OSM    C8F12959   4.173   1.132   7.408  0.5393  0.0532  0.5310
  122OSM    H8F12960   4.200   1.240   7.401  1.7252 -0.0057  3.0863
  122OSM    H8G12961   4.195   1.126   7.517  0.3858 -0.5020  0.5360
  122OSM    C9F12962   4.029   1.115   7.373  0.5861 -0.5023 -0.4214
  122OSM    H9F12963   3.990   1.171   7.287  1.6901  3.2671  1.3460
  122OSM   C10F12964   3.935   1.034   7.434 -0.1521 -0.2842  0.1819
  122OSM   H10F12965   3.831   1.036   7.399 -0.1210 -0.0394  0.1009
  122OSM   C11F12966   3.966   0.944   7.556  0.2903 -0.5877  0.5596
  122OSM   H11F12967   4.074   0.934   7.576  0.1225 -1.3042  1.1310
  122OSM   H11G12968   3.931   0.841   7.535 -0.6852 -0.1396 -0.1242
  122OSM   C12F12969   3.877   0.984   7.677 -0.1329 -0.2934 -0.5454
  122OSM   H12F12970   3.768   0.967   7.665 -0.4741  1.0278  0.4837
  122OSM   H12G12971   3.889   1.093   7.696 -0.8909 -0.0510 -1.3654
  122OSM   C13F12972   3.913   0.901   7.802 -0.0142 -0.2528 -0.1920
  122OSM   H13F12973   3.939   0.799   7.766  2.1719  0.3299 -0.4055
  122OSM   H13G12974   3.817   0.894   7.857  0.0914  0.4808  0.1014
  122OSM   C14F12975   4.021   0.968   7.883  0.1864  0.2980  0.1076
  122OSM   H14F12976   4.014   1.079   7.881  1.7344  0.3968 -0.7907
  122OSM   H14G12977   4.117   0.942   7.833 -1.6892 -2.3706 -2.4686
  122OSM   C15F12978   4.021   0.912   8.026 -0.2562  0.2400 -0.7450
  122OSM   H15F12979   4.113   0.956   8.071 -0.0169  1.9383 -2.7828
  122OSM   H15G12980   4.031   0.801   8.021  0.3887  0.0422  2.4801
  122OSM   C16F12981   3.901   0.957   8.096 -0.4690 -0.6657  0.1944
  122OSM   H16F12982   3.808   0.912   8.054  1.3590 -0.5796 -4.5145
  122OSM   H16G12983   3.896   1.068   8.098  1.6730 -0.4739 -1.1423
  122OSM   C17F12984   3.890   0.912   8.245  0.3346  0.1462  0.0801
  122OSM   H17F12985   3.903   0.802   8.241  1.6323  0.3209 -0.9933
  122OSM   H17G12986   3.784   0.928   8.276 -0.4712 -1.7445 -1.4642
  122OSM   C18F12987   3.983   0.985   8.342  0.2929  0.1114  0.4232
  122OSM   H18F12988   3.970   0.940   8.443 -1.6251  0.6062  0.4491
  122OSM   H18G12989   3.979   1.096   8.337  3.1099  0.2094 -1.8036
  122OSM   H18H12990   4.089   0.968   8.314  0.0557  2.0172 -1.8900
  123OSM      N12991   1.276   3.218   6.455 -0.3287  0.3102 -0.0721
  123OSM    C1512992   1.279   3.076   6.516  0.4380  0.0712  0.6379
  123OSM   H15A12993   1.187   3.066   6.571 -0.1874  0.5573 -0.2793
  123OSM   H15B12994   1.371   3.071   6.572 -0.1867  1.3250  1.8306
  123OSM   H15C12995   1.279   2.999   6.441  0.0826  1.6238 -1.0353
  123OSM    C1412996   1.390   3.230   6.358 -0.1355 -0.3910  0.3100
  123OSM   H14A12997   1.482   3.214   6.413 -0.6905 -1.2554  1.0143
  123OSM   H14B12998   1.385   3.322   6.303 -0.7591  0.3743  1.6143
  123OSM   H14C12999   1.388   3.140   6.297 -0.7982  1.6753 -2.9541
  123OSM    C1313000   1.151   3.245   6.377  0.0818 -0.5285  0.4399
  123OSM   H13A13001   1.141   3.188   6.286  1.1571 -0.6613  0.3893
  123OSM   H13B13002   1.149   3.350   6.350  0.2684 -0.0528  2.1617
  123OSM   H13C13003   1.065   3.234   6.442 -0.3862  1.2709  0.1896
  123OSM    C1213004   1.287   3.329   6.557  0.2965 -0.1744 -0.3743
  123OSM   H12A13005   1.186   3.340   6.592  0.5470 -0.9335  0.6178
  123OSM   H12B13006   1.318   3.420   6.507 -1.2596  1.5557  1.6327
  123OSM    C1113007   1.384   3.303   6.675  0.3466  0.4876  0.4273
  123OSM   H11A13008   1.351   3.215   6.735 -0.2401  0.2659 -0.2101
  123OSM   H11B13009   1.356   3.380   6.749 -1.8468 -0.2758  0.4481
  123OSM      P13010   1.632   3.370   6.705  0.2486 -0.0910 -0.3816
  123OSM    O1313011   1.763   3.303   6.684 -0.4917  0.0733 -0.1731
  123OSM    O1413012   1.635   3.514   6.664  0.2844  0.4742 -0.4879
  123OSM    O1113013   1.612   3.365   6.867 -0.0755  0.1221 -0.0201
  123OSM    O1213014   1.517   3.288   6.632  0.0416 -0.1760 -0.1057
  123OSM    C1S13015   1.603   3.238   6.926  0.5026  0.3967  0.0573
  123OSM    H1S13016   1.698   3.182   6.916  0.3474  0.2894 -0.8536
  123OSM    H1T13017   1.525   3.175   6.878  0.2247 -0.7594  1.9290
  123OSM     NF13018   1.599   3.126   7.151 -0.1044 -0.0945 -1.0153
  123OSM    HNF13019   1.521   3.065   7.162 -1.8107  2.1018  0.0362
  123OSM    C2S13020   1.570   3.250   7.079 -0.4571 -0.2060  0.2958
  123OSM    H2S13021   1.639   3.330   7.113  0.1292  0.6676 -2.6673
  123OSM    C3S13022   1.425   3.305   7.101 -0.3242 -0.3837  0.0145
  123OSM    H3S13023   1.348   3.227   7.079 -0.8645  0.2737 -0.4591
  123OSM     O313024   1.383   3.407   7.005 -0.1262  0.5612  0.1724
  123OSM    HO313025   1.456   3.406   6.943  1.4308 -0.4896  1.8803
  123OSM    C4S13026   1.409   3.347   7.240  0.4936 -0.1925 -0.1413
  123OSM    H4S13027   1.453   3.447   7.254 -0.7429  0.0078  3.5877
  123OSM    C5S13028   1.330   3.296   7.338 -0.1869  0.4913 -0.3463
  123OSM    H5S13029   1.277   3.202   7.318 -1.4596  1.1858 -0.3207
  123OSM    C6S13030   1.317   3.348   7.480 -0.1065 -0.3786  0.1045
  123OSM    H6S13031   1.382   3.293   7.551 -0.9573 -1.1904  0.2675
  123OSM    H6T13032   1.211   3.331   7.506 -0.0915  2.5238  2.5454
  123OSM    C7S13033   1.351   3.491   7.515 -0.1048  1.3626 -0.3721
  123OSM    H7S13034   1.270   3.557   7.477 -1.1654  0.3105  0.0069
  123OSM    H7T13035   1.446   3.530   7.472  0.6721  0.8064  0.8029
  123OSM    C8S13036   1.330   3.510   7.669 -0.4726 -0.4223 -0.1297
  123OSM    H8S13037   1.391   3.431   7.719 -0.7287  0.7824  2.2317
  123OSM    H8T13038   1.226   3.477   7.691 -0.3338  0.0063  1.2926
  123OSM    C9S13039   1.376   3.639   7.728 -0.5008 -0.2025 -0.2418
  123OSM    H9S13040   1.331   3.728   7.680  0.0648  1.6170  2.4106
  123OSM    H9T13041   1.486   3.635   7.710 -0.6317 -0.6412 -0.9997
  123OSM   C10S13042   1.344   3.637   7.876 -0.4650  0.4786 -0.0589
  123OSM   H10S13043   1.372   3.535   7.910  0.1090  0.5688 -0.2378
  123OSM   H10T13044   1.235   3.646   7.894 -0.4025  0.2914  0.4357
  123OSM   C11S13045   1.431   3.737   7.960  0.5118 -0.2715 -0.2212
  123OSM   H11S13046   1.434   3.838   7.913 -3.3317 -0.1295 -0.4615
  123OSM   H11T13047   1.536   3.702   7.960  1.1461  1.4928  0.1614
  123OSM   C12S13048   1.386   3.750   8.108  0.2580  0.5479 -0.4614
  123OSM   H12S13049   1.358   3.651   8.149 -0.0116  0.5164 -0.7172
  123OSM   H12T13050   1.293   3.810   8.101 -0.5830 -0.8192 -1.3210
  123OSM   C13S13051   1.470   3.826   8.216 -0.4724 -0.0010 -0.3407
  123OSM   H13S13052   1.477   3.932   8.186 -2.7522  0.3629  0.2370
  123OSM   H13T13053   1.566   3.770   8.223 -0.3255  0.3205  0.2463
  123OSM   C14S13054   1.406   3.818   8.357  0.2812 -0.8528 -0.0478
  123OSM   H14S13055   1.402   3.709   8.378 -0.8157 -1.2224 -1.9799
  123OSM   H14T13056   1.298   3.841   8.344 -0.8386 -4.5201  1.4813
  123OSM   C15S13057   1.494   3.900   8.452  0.7277 -0.0718  0.1016
  123OSM   H15S13058   1.505   3.997   8.398  0.8457  0.3663  0.8855
  123OSM   H15T13059   1.596   3.857   8.448  1.2670  1.1942 -0.7945
  123OSM   C16S13060   1.418   3.914   8.582 -0.3201  0.3974  0.0909
  123OSM   H16S13061   1.407   3.808   8.615 -0.5139  0.4518  0.1997
  123OSM   H16T13062   1.317   3.953   8.558 -0.4567  0.6699  1.0516
  123OSM   C17S13063   1.485   3.992   8.692 -0.0031  0.6559 -0.1761
  123OSM   H17S13064   1.501   4.100   8.671  1.8126  0.4206 -0.1276
  123OSM   H17T13065   1.580   3.942   8.719 -1.3827 -2.0170  0.1038
  123OSM   C18S13066   1.399   3.973   8.823 -0.0211  0.0585  0.2117
  123OSM   H18S13067   1.299   4.017   8.806  0.1054  0.6847  1.0419
  123OSM   H18T13068   1.448   4.036   8.900  0.4429  0.5494 -0.4700
  123OSM   H18U13069   1.392   3.864   8.844  0.0991 -0.3538 -1.6670
  123OSM    C1F13070   1.722   3.087   7.176  0.4150 -0.7624 -0.0634
  123OSM     OF13071   1.817   3.158   7.153  0.1574 -0.2176  0.1626
  123OSM    C2F13072   1.728   2.943   7.216  0.4992 -0.1870 -0.1647
  123OSM    H2F13073   1.765   2.888   7.127  2.2392 -0.3768  0.6449
  123OSM    H2G13074   1.623   2.915   7.241  0.6855 -2.1922 -1.3810
  123OSM    C3F13075   1.819   2.911   7.341  0.0527 -0.3779  0.5308
  123OSM    H3F13076   1.909   2.973   7.327  0.6597 -1.2787  0.3542
  123OSM    H3G13077   1.858   2.807   7.330 -1.7554 -0.8246 -2.8842
  123OSM    C4F13078   1.742   2.914   7.478 -0.4503  0.7418 -0.5150
  123OSM    H4F13079   1.639   2.872   7.467  0.4253 -1.9066  0.5952
  123OSM    H4G13080   1.725   3.019   7.509  0.9003  0.3484  1.8388
  123OSM    C5F13081   1.830   2.846   7.588  1.0906 -0.1745 -0.0858
  123OSM    H5F13082   1.826   2.736   7.577 -1.3915 -0.0548 -0.9754
  123OSM    H5G13083   1.790   2.881   7.686  1.3916 -0.6771  0.2239
  123OSM    C6F13084   1.976   2.895   7.588  0.2756 -0.2104  0.5469
  123OSM    H6F13085   1.978   3.006   7.594  2.0918 -0.1997  0.2351
  123OSM    H6G13086   2.028   2.866   7.494 -0.9062  3.4010 -1.4413
  123OSM    C7F13087   2.065   2.845   7.707 -0.1236  0.3678  0.2957
  123OSM    H7F13088   2.173   2.843   7.680  1.4572 -2.3013  5.3791
  123OSM    H7G13089   2.032   2.746   7.745 -0.1251  0.6456  1.0478
  123OSM    C8F13090   2.071   2.941   7.833 -0.7411  0.0499 -0.1596
  123OSM    H8F13091   1.975   2.996   7.820 -0.5525  0.8601  1.5218
  123OSM    H8G13092   2.151   3.011   7.800  0.0782 -0.3638  0.8945
  123OSM    C9F13093   2.101   2.868   7.962 -0.1096  0.3581  0.5068
  123OSM    H9F13094   2.181   2.794   7.951 -2.2412 -2.3406  1.6558
  123OSM   C10F13095   2.023   2.875   8.068  0.1252  0.2875 -0.4522
  123OSM   H10F13096   2.049   2.810   8.153  1.4747 -1.0005 -1.7795
  123OSM   C11F13097   1.894   2.955   8.102  1.4144 -0.0149  0.1441
  123OSM   H11F13098   1.805   2.893   8.126  1.5570  0.7230  2.9988
  123OSM   H11G13099   1.859   3.006   8.010 -2.1257 -1.8087  0.3254
  123OSM   C12F13100   1.926   3.058   8.215 -0.2852  0.0127 -0.1952
  123OSM   H12F13101   1.898   3.161   8.184  1.7424  0.3893 -0.9212
  123OSM   H12G13102   2.037   3.064   8.221 -0.2688  0.3274 -0.7367
  123OSM   C13F13103   1.877   3.024   8.354 -0.5410  0.3856  0.0469
  123OSM   H13F13104   1.921   2.924   8.377  2.8584  1.2672 -1.8245
  123OSM   H13G13105   1.767   3.008   8.353 -0.8699  2.4396 -1.6228
  123OSM   C14F13106   1.926   3.114   8.463 -0.3255  0.3731 -0.5690
  123OSM   H14F13107   1.869   3.208   8.445 -0.3304  0.8257  1.4830
  123OSM   H14G13108   2.030   3.153   8.456 -0.3052  0.2494 -1.0006
  123OSM   C15F13109   1.895   3.051   8.604  0.2902  0.2110 -0.1205
  123OSM   H15F13110   1.951   2.956   8.615  0.2290  0.0752 -0.9114
  123OSM   H15G13111   1.790   3.015   8.617  1.1060 -1.9396  0.9544
  123OSM   C16F13112   1.915   3.153   8.716 -0.0472  0.1680 -0.5865
  123OSM   H16F13113   1.864   3.250   8.694 -4.4617 -1.3474  1.6379
  123OSM   H16G13114   2.025   3.161   8.719 -0.0057  0.3117 -2.0140
  123OSM   C17F13115   1.868   3.106   8.849  0.8785 -0.7006 -0.3816
  123OSM   H17F13116   1.912   3.171   8.928  2.5284 -0.2438 -1.6157
  123OSM   H17G13117   1.917   3.008   8.872  0.2032 -0.9576  0.0028
  123OSM   C18F13118   1.719   3.117   8.873 -0.2526 -1.0679  0.7324
  123OSM   H18F13119   1.685   3.216   8.836  3.2490 -0.3720 -1.1441
  123OSM   H18G13120   1.694   3.110   8.981  0.1237 -0.5117  0.8567
  123OSM   H18H13121   1.677   3.022   8.831 -0.2669 -0.2877 -1.1269
  124OSM      N13122   5.600   0.083   6.336  0.2197 -0.0034  0.2165
  124OSM    C1513123   5.620   0.179   6.218 -0.3186 -0.4009 -0.6444
  124OSM   H15A13124   5.726   0.194   6.201 -0.9790  3.1324 -2.7724
  124OSM   H15B13125   5.586   0.279   6.241  0.3003 -0.5773  1.2582
  124OSM   H15C13126   5.573   0.149   6.126 -1.4846 -1.4531  0.2641
  124OSM    C1413127   5.457   0.087   6.373 -0.4321  0.5818 -0.0145
  124OSM   H14A13128   5.404   0.086   6.279 -0.3466  1.2701 -0.0740
  124OSM   H14B13129   5.438   0.178   6.427  3.4767  1.2201  0.5738
  124OSM   H14C13130   5.446   0.006   6.444  0.7621 -0.0720 -0.5247
  124OSM    C1313131   5.638  -0.050   6.286  0.1102  0.0729 -0.4134
  124OSM   H13A13132   5.587  -0.068   6.192  1.5474 -0.1929 -1.1725
  124OSM   H13B13133   5.618  -0.125   6.361  0.8009 -0.6265 -0.9120
  124OSM   H13C13134   5.741  -0.042   6.257  0.8257  0.6748  2.1276
  124OSM    C1213135   5.684   0.110   6.462  0.1347 -0.2117  0.3579
  124OSM   H12A13136   5.668   0.033   6.535 -0.9358 -0.7392 -0.3999
  124OSM   H12B13137   5.643   0.202   6.501 -0.8037 -0.9303  1.1074
  124OSM    C1113138   5.834   0.136   6.444  0.4878  0.5237  0.8437
  124OSM   H11A13139   5.878   0.166   6.542  0.4395  0.3275  0.9260
  124OSM   H11B13140   5.846   0.225   6.379  0.9709 -1.0934 -1.4092
  124OSM      P13141   5.933  -0.101   6.455 -0.6783 -0.0376  0.4375
  124OSM    O1313142   5.883  -0.219   6.383 -0.5244 -0.3386  0.7201
  124OSM    O1413143   6.076  -0.101   6.482  0.1725  0.5748 -0.4179
  124OSM    O1113144   5.859  -0.085   6.595 -0.4580 -0.4582 -0.5270
  124OSM    O1213145   5.897   0.030   6.380  0.5618  0.1685  1.0913
  124OSM    C1S13146   5.919  -0.140   6.712  0.6163  0.1912 -0.3562
  124OSM    H1S13147   6.011  -0.080   6.729  1.1303  0.0620 -2.3866
  124OSM    H1T13148   5.943  -0.247   6.690  0.5034  0.2624 -0.8502
  124OSM     NF13149   5.878  -0.200   6.940  0.1906 -0.1085  0.3370
  124OSM    HNF13150   5.860  -0.296   6.958  1.3629 -0.2601  0.8346
  124OSM    C2S13151   5.814  -0.139   6.828  0.3225  0.2651  0.1164
  124OSM    H2S13152   5.793  -0.031   6.844 -0.7987  0.1786 -0.6233
  124OSM    C3S13153   5.687  -0.220   6.785  0.1741 -0.4119 -0.3350
  124OSM    H3S13154   5.705  -0.329   6.771  1.3052 -0.1033 -1.4826
  124OSM     O313155   5.620  -0.179   6.664  0.4620 -0.0998 -0.1503
  124OSM    HO313156   5.689  -0.143   6.609 -0.9292  0.3960 -1.6590
  124OSM    C4S13157   5.590  -0.200   6.894 -0.3855 -0.2289  0.1567
  124OSM    H4S13158   5.557  -0.095   6.899  0.7971  0.3093 -2.1430
  124OSM    C5S13159   5.543  -0.299   6.970 -0.6113  0.4727 -0.6272
  124OSM    H5S13160   5.579  -0.402   6.952  3.1053  1.5504 -0.1859
  124OSM    C6S13161   5.451  -0.291   7.086  0.9093  0.1012  0.2804
  124OSM    H6S13162   5.372  -0.368   7.075  0.7516  0.2213  0.5622
  124OSM    H6T13163   5.396  -0.195   7.081 -0.4000 -0.5960  0.7939
  124OSM    C7S13164   5.512  -0.302   7.232 -1.2590 -0.3371 -0.1295
  124OSM    H7S13165   5.430  -0.321   7.304  1.0390 -0.0891  2.7149
  124OSM    H7T13166   5.580  -0.218   7.259 -1.4770 -0.2590  0.1835
  124OSM    C8S13167   5.608  -0.424   7.252 -0.1360  0.5325 -0.4020
  124OSM    H8S13168   5.694  -0.422   7.182 -0.8801 -0.1911 -1.3738
  124OSM    H8T13169   5.564  -0.519   7.214  0.4654  0.0117  0.1976
  124OSM    C9S13170   5.655  -0.444   7.392 -0.2612 -0.1875 -0.2957
  124OSM    H9S13171   5.660  -0.348   7.447 -2.2235 -0.7055  0.8666
  124OSM    H9T13172   5.755  -0.492   7.397  0.4219  0.8407 -2.4413
  124OSM   C10S13173   5.551  -0.530   7.469 -0.4811  0.2004 -0.5672
  124OSM   H10S13174   5.546  -0.630   7.421  1.4382 -0.9729  1.4474
  124OSM   H10T13175   5.453  -0.479   7.478  1.3081  3.8720  0.4542
  124OSM   C11S13176   5.588  -0.545   7.621  0.2700  0.5725  0.7734
  124OSM   H11S13177   5.699  -0.552   7.628  0.3144  2.4141  2.8785
  124OSM   H11T13178   5.545  -0.641   7.658 -0.0622  0.7163  0.7592
  124OSM   C12S13179   5.562  -0.419   7.701 -1.1000 -0.5565 -0.4337
  124OSM   H12S13180   5.454  -0.400   7.683 -1.6415 -1.4934  1.5660
  124OSM   H12T13181   5.610  -0.330   7.656 -2.9274  0.1421 -1.1067
  124OSM   C13S13182   5.593  -0.433   7.849 -0.2388 -0.6864 -0.1696
  124OSM   H13S13183   5.704  -0.429   7.858 -0.3034  0.2582  0.4174
  124OSM   H13T13184   5.542  -0.527   7.880 -0.9206 -0.1725  0.2883
  124OSM   C14S13185   5.543  -0.314   7.939  0.0250  0.5817  0.9532
  124OSM   H14S13186   5.432  -0.311   7.940  0.0045  0.7875 -0.4589
  124OSM   H14T13187   5.581  -0.229   7.879  0.1773  0.1471  0.4151
  124OSM   C15S13188   5.602  -0.314   8.079 -0.1478  0.4319  0.6840
  124OSM   H15S13189   5.586  -0.211   8.119  0.0991  0.2307  1.3079
  124OSM   H15T13190   5.712  -0.327   8.079 -0.1118  0.5339 -0.8120
  124OSM   C16S13191   5.543  -0.427   8.170 -0.6901 -0.0834  0.6236
  124OSM   H16S13192   5.550  -0.525   8.119  0.5162  0.1728  0.2617
  124OSM   H16T13193   5.437  -0.408   8.196 -0.4190  1.5562  0.6746
  124OSM   C17S13194   5.608  -0.447   8.304 -0.3359  0.2337 -0.1395
  124OSM   H17S13195   5.715  -0.475   8.294 -0.4411  0.1885 -1.2120
  124OSM   H17T13196   5.556  -0.528   8.360 -1.4775  1.6273  0.8942
  124OSM   C18S13197   5.605  -0.331   8.397  0.1739 -0.3416  0.2640
  124OSM   H18S13198   5.507  -0.282   8.381  1.2712  1.4410 -1.4848
  124OSM   H18T13199   5.679  -0.254   8.368  0.0650  0.2865  1.5915
  124OSM   H18U13200   5.630  -0.364   8.500 -0.4757  1.3790  1.0024
  124OSM    C1F13201   5.971  -0.142   7.014  0.4688  0.0976 -0.1094
  124OSM     OF13202   6.006  -0.027   6.989 -0.8330  0.4663 -0.0747
  124OSM    C2F13203   6.027  -0.221   7.132  0.0650  0.1803  0.2633
  124OSM    H2F13204   6.133  -0.240   7.102 -0.6086 -1.2721 -1.3516
  124OSM    H2G13205   5.974  -0.318   7.148 -0.2796  0.6021  1.9340
  124OSM    C3F13206   6.027  -0.130   7.258 -0.1591  0.1253 -0.0154
  124OSM    H3F13207   6.082  -0.039   7.229  1.0832 -0.8170 -0.7266
  124OSM    H3G13208   6.083  -0.178   7.341 -2.9576 -1.3371  1.1723
  124OSM    C4F13209   5.892  -0.104   7.321  0.1373 -0.4065 -0.5107
  124OSM    H4F13210   5.843  -0.196   7.359 -2.1958  0.5779 -0.9387
  124OSM    H4G13211   5.823  -0.059   7.246 -1.7889 -3.4858 -0.7570
  124OSM    C5F13212   5.912  -0.011   7.446 -0.2531  0.6192  0.4387
  124OSM    H5F13213   5.960   0.086   7.418 -1.7390  1.7018  1.4720
  124OSM    H5G13214   5.985  -0.063   7.511 -0.0705  1.4659  0.9315
  124OSM    C6F13215   5.787   0.017   7.521  0.0358 -0.9365 -0.1730
  124OSM    H6F13216   5.754  -0.077   7.570  0.2131 -1.2299 -0.6137
  124OSM    H6G13217   5.709   0.043   7.447  0.9828  1.9728 -0.2704
  124OSM    C7F13218   5.804   0.124   7.638  0.3536  0.1774  0.3268
  124OSM    H7F13219   5.705   0.147   7.682  1.9695  2.0187  3.2825
  124OSM    H7G13220   5.842   0.213   7.584 -0.0259 -0.1189 -0.4493
  124OSM    C8F13221   5.902   0.082   7.746 -0.0870  0.4489  0.9166
  124OSM    H8F13222   5.924   0.176   7.802  1.8683  0.2103  0.6141
  124OSM    H8G13223   6.001   0.055   7.703 -0.5217  2.0747 -1.3089
  124OSM    C9F13224   5.843  -0.020   7.839  0.1071  0.7726  0.2671
  124OSM    H9F13225   5.852  -0.126   7.811  0.6023 -0.1618  3.6094
  124OSM   C10F13226   5.785   0.014   7.958 -0.5193 -0.7249 -1.2076
  124OSM   H10F13227   5.742  -0.067   8.019  0.1479  0.9498  1.6307
  124OSM   C11F13228   5.762   0.151   8.022  0.0026  0.0415 -0.3028
  124OSM   H11F13229   5.658   0.186   8.002  0.1564  0.7221  0.0522
  124OSM   H11G13230   5.833   0.226   7.980  0.2088 -0.2519 -0.4788
  124OSM   C12F13231   5.789   0.147   8.173 -0.0337 -0.0550 -0.2866
  124OSM   H12F13232   5.887   0.099   8.191  0.9396  1.8408 -0.3117
  124OSM   H12G13233   5.715   0.085   8.229  0.9150 -0.0719  0.9964
  124OSM   C13F13234   5.782   0.283   8.245 -0.3135 -0.5232  0.1162
  124OSM   H13F13235   5.677   0.318   8.240  0.1381  0.6431 -2.2587
  124OSM   H13G13236   5.849   0.352   8.189  1.2957 -1.6875  0.5375
  124OSM   C14F13237   5.816   0.274   8.393 -0.2373 -0.6982 -0.0682
  124OSM   H14F13238   5.810   0.374   8.441 -2.3598 -1.3667  1.1801
  124OSM   H14G13239   5.921   0.239   8.399 -0.3061 -0.8955  0.0218
  124OSM   C15F13240   5.729   0.177   8.475 -0.4005  0.3533  0.1319
  124OSM   H15F13241   5.732   0.075   8.431  0.6831 -1.2725  3.5924
  124OSM   H15G13242   5.622   0.208   8.470  0.1595  2.1886 -1.5002
  124OSM   C16F13243   5.787   0.162   8.618  0.4389 -0.3341  0.2979
  124OSM   H16F13244   5.833   0.261   8.640  0.6063 -0.4058  0.2640
  124OSM   H16G13245   5.877   0.100   8.603  0.3285 -0.3477 -0.3062
  124OSM   C17F13246   5.684   0.112   8.723  0.3781  0.0222 -0.2957
  124OSM   H17F13247   5.589   0.170   8.711 -1.3379 -2.5993 -0.1312
  124OSM   H17G13248   5.735   0.130   8.820 -1.3088 -1.7743  1.0104
  124OSM   C18F13249   5.671  -0.038   8.708 -0.0574  0.6809  0.4341
  124OSM   H18F13250   5.770  -0.085   8.688  0.0371  1.4665 -1.1298
  124OSM   H18G13251   5.618  -0.064   8.614 -1.5077 -2.4992  1.9702
  124OSM   H18H13252   5.622  -0.090   8.792 -0.3668 -0.5529 -0.4802
  125OSM      N13253   0.335   4.050   6.236  0.0619 -0.2119 -0.4423
  125OSM    C1513254   0.472   4.024   6.185 -1.0482 -0.4426  0.1145
  125OSM   H15A13255   0.513   4.117   6.149 -0.9027 -0.1088  1.1016
  125OSM   H15B13256   0.484   3.946   6.111 -0.0943  0.2157 -0.4576
  125OSM   H15C13257   0.538   3.984   6.261  1.3157 -0.5161 -1.8538
  125OSM    C1413258   0.241   4.056   6.122 -0.5210 -0.2850  0.1191
  125OSM   H14A13259   0.254   3.966   6.063  1.5466  0.0072  0.0549
  125OSM   H14B13260   0.257   4.142   6.059 -0.9077  0.2749  0.7692
  125OSM   H14C13261   0.138   4.051   6.155 -0.6184 -0.5794 -0.2214
  125OSM    C1313262   0.295   3.935   6.330 -0.4261 -0.6978  0.9552
  125OSM   H13A13263   0.369   3.913   6.406  0.6794  2.7216  1.0742
  125OSM   H13B13264   0.274   3.851   6.266  0.0706 -0.5626  0.6058
  125OSM   H13C13265   0.209   3.968   6.386 -2.6210 -0.7541 -2.1445
  125OSM    C1213266   0.329   4.181   6.310  0.2399  0.1972  1.1722
  125OSM   H12A13267   0.229   4.191   6.349 -0.6995  0.8837 -1.2547
  125OSM   H12B13268   0.344   4.268   6.248 -0.5962 -0.9049 -0.6519
  125OSM    C1113269   0.428   4.194   6.426 -0.0835 -0.1250 -0.2239
  125OSM   H11A13270   0.420   4.109   6.497 -1.6600 -1.1499 -1.5617
  125OSM   H11B13271   0.397   4.277   6.493  0.1934 -1.6007  1.8430
  125OSM      P13272   0.654   4.333   6.412  0.2115 -0.2544 -0.1902
  125OSM    O1313273   0.793   4.298   6.375 -0.7995  0.0361  0.0801
  125OSM    O1413274   0.600   4.456   6.352  0.4110 -0.1097  0.2110
  125OSM    O1113275   0.633   4.351   6.571 -0.7037  0.1567 -0.3790
  125OSM    O1213276   0.561   4.211   6.385 -0.0121  0.5431  0.4735
  125OSM    C1S13277   0.695   4.246   6.649  0.4497 -0.0437  0.1109
  125OSM    H1S13278   0.806   4.249   6.646  0.4161  1.6562 -1.6990
  125OSM    H1T13279   0.656   4.147   6.615 -1.1004  0.7850 -0.6357
  125OSM     NF13280   0.692   4.137   6.862  0.3728 -0.0824  0.5346
  125OSM    HNF13281   0.620   4.068   6.875 -2.5070  2.2850 -1.4410
  125OSM    C2S13282   0.657   4.256   6.797 -0.1719 -0.3883  0.1356
  125OSM    H2S13283   0.718   4.332   6.851 -0.9507  0.5910 -0.3380
  125OSM    C3S13284   0.508   4.292   6.812 -0.1612  0.3325  0.7554
  125OSM    H3S13285   0.448   4.217   6.755  0.7149 -0.7810  1.2707
  125OSM     O313286   0.477   4.415   6.751  0.6259  0.1516 -0.5828
  125OSM    HO313287   0.529   4.401   6.671  1.5686 -0.7619  0.1698
  125OSM    C4S13288   0.463   4.281   6.957 -0.2194 -0.3541  0.0612
  125OSM    H4S13289   0.419   4.182   6.976 -0.6556 -0.1245  0.2807
  125OSM    C5S13290   0.461   4.384   7.045  0.6693  0.6448  0.1728
  125OSM    H5S13291   0.492   4.484   7.013 -1.5157  1.9796  1.9210
  125OSM    C6S13292   0.413   4.382   7.188 -0.8220  0.4688  0.0553
  125OSM    H6S13293   0.427   4.278   7.226  2.6067  0.6394 -0.4340
  125OSM    H6T13294   0.304   4.396   7.203 -0.5984 -0.9915  4.0566
  125OSM    C7S13295   0.496   4.463   7.291  0.3317  0.5205  0.0987
  125OSM    H7S13296   0.493   4.570   7.261  0.9808  1.1955  2.2251
  125OSM    H7T13297   0.600   4.425   7.286 -0.0182 -0.3217 -1.2276
  125OSM    C8S13298   0.427   4.446   7.427  0.4610  0.0024  0.1193
  125OSM    H8S13299   0.437   4.337   7.443  1.2069 -0.2326 -1.6803
  125OSM    H8T13300   0.322   4.482   7.424  0.2329 -0.6580  0.0140
  125OSM    C9S13301   0.502   4.526   7.546  0.4730  0.6038  0.9462
  125OSM    H9S13302   0.498   4.632   7.513  0.3451 -0.3030 -2.2979
  125OSM    H9T13303   0.611   4.502   7.543 -0.0679 -2.3136  1.8476
  125OSM   C10S13304   0.436   4.508   7.682 -0.3011 -0.7267  0.3802
  125OSM   H10S13305   0.509   4.498   7.765 -1.2345  1.2425  1.4991
  125OSM   H10T13306   0.377   4.415   7.673 -2.2173  0.3432  1.2680
  125OSM   C11S13307   0.342   4.629   7.714  0.8744 -0.1034 -0.6215
  125OSM   H11S13308   0.406   4.715   7.684  0.0214  0.2093 -1.5860
  125OSM   H11T13309   0.317   4.623   7.822  1.1392 -1.5783 -0.6166
  125OSM   C12S13310   0.212   4.633   7.628  0.0649 -0.5307 -0.0050
  125OSM   H12S13311   0.143   4.546   7.631 -1.7413  0.8240 -0.6078
  125OSM   H12T13312   0.250   4.651   7.525  2.0563  0.4650  0.8384
  125OSM   C13S13313   0.119   4.749   7.654 -0.2449  0.0593  1.0077
  125OSM   H13S13314   0.178   4.827   7.707  1.7673  0.1886 -1.2514
  125OSM   H13T13315   0.031   4.709   7.708 -0.4264 -1.1692 -0.1584
  125OSM   C14S13316   0.073   4.804   7.521 -0.2963  0.0576 -0.1881
  125OSM   H14S13317   0.158   4.834   7.456 -0.9577  0.2216 -0.9944
  125OSM   H14T13318   0.003   4.889   7.537  0.5681  0.5940  0.8111
  125OSM   C15S13319  -0.003   4.701   7.447  0.8942  0.1427  0.3314
  125OSM   H15S13320  -0.097   4.683   7.503  0.0992 -0.5036 -1.1234
  125OSM   H15T13321   0.035   4.598   7.431 -0.2551 -0.2435 -0.0471
  125OSM   C16S13322  -0.034   4.744   7.302  0.0717 -0.3736  0.1171
  125OSM   H16S13323   0.066   4.747   7.253  0.0558  0.5685  0.1379
  125OSM   H16T13324  -0.067   4.850   7.304  0.2052 -0.2353 -2.1030
  125OSM   C17S13325  -0.136   4.664   7.232 -0.0429 -0.1480  0.5619
  125OSM   H17S13326  -0.207   4.610   7.299 -0.1049 -1.0721 -0.2123
  125OSM   H17T13327  -0.094   4.585   7.165 -0.4844 -0.0957  0.2178
  125OSM   C18S13328  -0.219   4.746   7.127 -0.3437  0.3243  0.0824
  125OSM   H18S13329  -0.285   4.820   7.176 -2.1190 -0.7459 -0.6216
  125OSM   H18T13330  -0.275   4.670   7.068 -0.6390  1.0052 -0.5284
  125OSM   H18U13331  -0.141   4.798   7.067  0.3996  0.1017  0.8226
  125OSM    C1F13332   0.821   4.092   6.880  0.6329  0.1955 -0.4934
  125OSM     OF13333   0.913   4.155   6.837 -0.3278  0.3602  0.1909
  125OSM    C2F13334   0.836   3.963   6.956 -0.2254 -0.1192 -0.2635
  125OSM    H2F13335   0.906   3.900   6.897 -0.0651  0.4176 -0.6559
  125OSM    H2G13336   0.739   3.909   6.950 -0.2917 -0.0217 -0.0819
  125OSM    C3F13337   0.880   3.991   7.100  0.2932  0.3398  0.1687
  125OSM    H3F13338   0.990   4.002   7.111  0.2339  1.8808 -0.5423
  125OSM    H3G13339   0.851   3.895   7.148 -1.2899 -0.2368 -1.8013
  125OSM    C4F13340   0.822   4.110   7.178 -0.7612  0.1371  0.5839
  125OSM    H4F13341   0.712   4.103   7.168 -0.7218 -0.6953  0.6180
  125OSM    H4G13342   0.857   4.203   7.129 -2.5102  0.1474 -0.7124
  125OSM    C5F13343   0.851   4.101   7.327 -0.1202 -0.0977  0.2886
  125OSM    H5F13344   0.959   4.079   7.332  0.1964  1.0142 -0.9921
  125OSM    H5G13345   0.791   4.024   7.382 -0.9168  0.6257  0.4584
  125OSM    C6F13346   0.828   4.231   7.408  0.1766 -0.6207  0.1441
  125OSM    H6F13347   0.720   4.243   7.431  0.3966 -0.4331  1.1344
  125OSM    H6G13348   0.849   4.321   7.347  0.4505 -0.2522  0.7755
  125OSM    C7F13349   0.916   4.231   7.535  0.2201 -0.5921 -0.1754
  125OSM    H7F13350   1.021   4.257   7.508  0.8677 -1.2720  1.5464
  125OSM    H7G13351   0.898   4.129   7.575  1.4308 -1.4293 -1.6496
  125OSM    C8F13352   0.870   4.323   7.645  0.1734 -0.1174 -1.1096
  125OSM    H8F13353   0.759   4.322   7.644  0.0592  0.1664  1.7143
  125OSM    H8G13354   0.898   4.428   7.624  3.5231 -0.4720  0.7956
  125OSM    C9F13355   0.915   4.291   7.786 -0.9766 -0.3093  1.0327
  125OSM    H9F13356   0.977   4.201   7.796  0.9335  1.0237  1.6659
  125OSM   C10F13357   0.907   4.366   7.891 -0.2648 -0.3074  0.3127
  125OSM   H10F13358   0.946   4.322   7.984  3.7532  1.6514 -0.2235
  125OSM   C11F13359   0.843   4.504   7.910 -0.2905  0.3469 -0.0243
  125OSM   H11F13360   0.800   4.533   7.811 -0.6176  0.3371  0.1108
  125OSM   H11G13361   0.921   4.579   7.933 -1.0541  0.9536  0.6853
  125OSM   C12F13362   0.727   4.511   8.006  0.1556 -0.0049 -0.0475
  125OSM   H12F13363   0.641   4.451   7.968 -1.2961  1.0877  1.3542
  125OSM   H12G13364   0.701   4.619   8.002  0.5508  0.0533 -1.6069
  125OSM   C13F13365   0.768   4.475   8.148  0.4320 -0.1223  0.5482
  125OSM   H13F13366   0.874   4.502   8.168  0.3775 -0.3847  1.2051
  125OSM   H13G13367   0.753   4.365   8.162 -3.5480  0.0732 -0.7130
  125OSM   C14F13368   0.679   4.542   8.256 -0.8577 -0.6933 -0.3805
  125OSM   H14F13369   0.573   4.524   8.229 -2.0438  3.9327  0.2499
  125OSM   H14G13370   0.699   4.651   8.248  1.4134 -1.0837 -0.8643
  125OSM   C15F13371   0.702   4.477   8.396 -0.4517 -0.3471 -0.1321
  125OSM   H15F13372   0.680   4.368   8.389 -3.2034  0.1290 -0.0931
  125OSM   H15G13373   0.636   4.528   8.470 -2.0268 -0.8067 -1.1679
  125OSM   C16F13374   0.847   4.501   8.454 -0.0237  0.2015 -0.0763
  125OSM   H16F13375   0.868   4.604   8.416 -0.5911  0.7953  1.1696
  125OSM   H16G13376   0.912   4.428   8.400  0.6435  0.3068  0.5628
  125OSM   C17F13377   0.855   4.493   8.607 -0.4046 -0.7850  0.4658
  125OSM   H17F13378   0.798   4.405   8.643 -0.2145 -0.0516  2.7461
  125OSM   H17G13379   0.799   4.582   8.644 -0.4496 -0.0827 -1.1934
  125OSM   C18F13380   0.998   4.480   8.646 -0.6647  0.3960 -0.3524
  125OSM   H18F13381   1.067   4.565   8.626  0.7464 -0.4374  0.7308
  125OSM   H18G13382   1.046   4.395   8.593  0.0870 -0.8484  2.1293
  125OSM   H18H13383   1.010   4.463   8.756 -0.1195  0.4972 -0.3899
  126OSM      N13384   2.621   2.759   6.384  0.8511 -0.6275  0.6152
  126OSM    C1513385   2.603   2.818   6.244  0.8767  0.1170 -0.1747
  126OSM   H15A13386   2.543   2.745   6.193 -0.8507  0.4268  1.3302
  126OSM   H15B13387   2.693   2.839   6.188  1.3024 -0.0222  0.4470
  126OSM   H15C13388   2.535   2.901   6.245  0.5339 -0.1379 -1.1154
  126OSM    C1413389   2.643   2.613   6.360  0.7390 -0.3219 -0.4946
  126OSM   H14A13390   2.715   2.583   6.286  1.0467  1.7055 -1.0736
  126OSM   H14B13391   2.547   2.568   6.341 -0.4627  0.4384  2.8894
  126OSM   H14C13392   2.670   2.563   6.452  1.9819 -0.1818 -0.7683
  126OSM    C1313393   2.745   2.821   6.442  0.6260  0.2090  0.0349
  126OSM   H13A13394   2.718   2.922   6.467 -0.5905 -0.0044 -0.3909
  126OSM   H13B13395   2.819   2.818   6.363 -0.3780 -2.7112 -0.9400
  126OSM   H13C13396   2.777   2.769   6.532 -0.0412 -0.8343 -0.3119
  126OSM    C1213397   2.494   2.783   6.468  0.2920  0.5687 -0.4264
  126OSM   H12A13398   2.410   2.742   6.414  2.4722  0.9067 -4.4342
  126OSM   H12B13399   2.469   2.888   6.475  1.1419  0.7097  0.8455
  126OSM    C1113400   2.495   2.731   6.609 -0.2575 -1.2407 -0.0040
  126OSM   H11A13401   2.518   2.623   6.623 -3.2026 -1.6714  3.2381
  126OSM   H11B13402   2.394   2.740   6.655 -0.6022 -0.1619 -0.9301
  126OSM      P13403   2.562   2.954   6.739 -0.3693 -0.0120  0.2550
  126OSM    O1313404   2.677   2.978   6.821  0.4095 -0.0966 -0.3038
  126OSM    O1413405   2.525   3.042   6.628 -0.4989  0.0681  0.1310
  126OSM    O1113406   2.439   2.932   6.827 -0.0378 -0.5783 -0.1265
  126OSM    O1213407   2.590   2.812   6.689  0.1445 -0.5855 -0.7372
  126OSM    C1S13408   2.399   2.836   6.920 -0.4467  0.8308 -0.4626
  126OSM    H1S13409   2.390   2.735   6.875  0.7312  0.7819 -0.6083
  126OSM    H1T13410   2.298   2.858   6.961 -0.4848  0.3220 -0.2717
  126OSM     NF13411   2.452   2.740   7.150  0.4278 -0.4826  0.0476
  126OSM    HNF13412   2.411   2.776   7.233  0.1773  2.4205 -1.2029
  126OSM    C2S13413   2.486   2.848   7.053 -0.3556  0.1224  0.3154
  126OSM    H2S13414   2.593   2.840   7.022 -0.8506  0.6260 -1.6661
  126OSM    C3S13415   2.457   2.993   7.106 -0.5854 -0.7261  0.1424
  126OSM    H3S13416   2.355   3.027   7.076 -0.1044  1.1373  0.4589
  126OSM     O313417   2.540   3.092   7.046  0.0390  0.1749 -0.2294
  126OSM    HO313418   2.576   3.049   6.968 -0.1217 -0.4832  0.0540
  126OSM    C4S13419   2.477   3.008   7.254  0.3619  0.0137  0.4798
  126OSM    H4S13420   2.581   2.982   7.277  0.4600 -2.0836 -1.8611
  126OSM    C5S13421   2.381   3.024   7.350  0.5729  0.0882  0.6012
  126OSM    H5S13422   2.275   3.041   7.327  0.1005  0.3137  2.7537
  126OSM    C6S13423   2.423   3.025   7.500  0.2327 -0.1946  0.7292
  126OSM    H6S13424   2.327   3.025   7.556 -0.7585  2.5103 -0.7779
  126OSM    H6T13425   2.470   3.122   7.526 -0.8936  0.3430  0.8323
  126OSM    C7S13426   2.491   2.893   7.533 -1.0754  0.3662 -0.0586
  126OSM    H7S13427   2.575   2.869   7.465 -0.8820 -1.4101  0.7652
  126OSM    H7T13428   2.424   2.805   7.533  0.9674 -1.2661  0.7610
  126OSM    C8S13429   2.557   2.898   7.677 -0.2268 -0.0186 -0.0569
  126OSM    H8S13430   2.619   2.990   7.685  0.4552 -0.5358  0.8408
  126OSM    H8T13431   2.631   2.815   7.683 -1.4117 -0.9620  3.3959
  126OSM    C9S13432   2.467   2.874   7.801 -0.0983  0.1315  0.3314
  126OSM    H9S13433   2.423   2.773   7.808 -0.5960  0.2190 -1.1730
  126OSM    H9T13434   2.374   2.935   7.790 -0.3142 -0.0539  1.1157
  126OSM   C10S13435   2.529   2.910   7.936  0.4486 -0.3677 -0.3465
  126OSM   H10S13436   2.620   2.971   7.921  1.0210 -1.0645  0.2092
  126OSM   H10T13437   2.560   2.813   7.981 -1.0077 -1.6922 -2.0232
  126OSM   C11S13438   2.432   2.984   8.034  0.2545  0.0800  0.0141
  126OSM   H11S13439   2.331   2.938   8.030 -0.1649  0.7862  1.5344
  126OSM   H11T13440   2.428   3.092   8.008  0.8027  0.0377 -0.2705
  126OSM   C12S13441   2.494   2.978   8.182 -0.5518 -0.0361  0.7063
  126OSM   H12S13442   2.590   3.035   8.183  0.1659 -0.9956 -2.3548
  126OSM   H12T13443   2.506   2.871   8.208 -0.7294 -0.6510 -1.4989
  126OSM   C13S13444   2.407   3.036   8.284  0.6085 -0.5268 -0.2266
  126OSM   H13S13445   2.305   2.993   8.289 -1.0966  3.1662  3.6479
  126OSM   H13T13446   2.384   3.142   8.261 -0.6605 -1.1762 -2.1967
  126OSM   C14S13447   2.465   3.022   8.429 -0.2046 -0.4760 -0.2078
  126OSM   H14S13448   2.562   3.073   8.449 -0.7050  0.1567  0.6960
  126OSM   H14T13449   2.482   2.914   8.446  2.3307  0.0658  1.2816
  126OSM   C15S13450   2.364   3.085   8.529  0.5131  0.1459 -0.0519
  126OSM   H15S13451   2.278   3.015   8.531  0.9668 -0.4095  1.3823
  126OSM   H15T13452   2.337   3.188   8.497  1.0213  0.1570 -0.4408
  126OSM   C16S13453   2.415   3.100   8.673  0.1697  0.0221 -0.2128
  126OSM   H16S13454   2.447   3.001   8.710 -0.2163 -1.3057 -3.1351
  126OSM   H16T13455   2.341   3.147   8.740 -0.3190 -1.3731  0.2535
  126OSM   C17S13456   2.541   3.193   8.687  0.2967 -0.0602 -0.2681
  126OSM   H17S13457   2.507   3.291   8.647  2.4829 -0.0591 -2.2974
  126OSM   H17T13458   2.620   3.156   8.619  2.4692  0.1099  2.0412
  126OSM   C18S13459   2.595   3.202   8.836  0.8310 -0.5075  0.8728
  126OSM   H18S13460   2.669   3.283   8.848  3.4879 -2.4722 -0.9858
  126OSM   H18T13461   2.653   3.111   8.864  3.1029  0.5963 -0.0127
  126OSM   H18U13462   2.513   3.214   8.910 -0.0393  2.6811 -0.4478
  126OSM    C1F13463   2.475   2.618   7.110  0.2630  0.3246  0.3841
  126OSM     OF13464   2.542   2.591   7.006  0.1095 -0.2800  0.3769
  126OSM    C2F13465   2.436   2.508   7.202 -0.0899  0.4417 -0.1149
  126OSM    H2F13466   2.530   2.458   7.236  0.0273 -0.2071 -1.3245
  126OSM    H2G13467   2.388   2.422   7.150  2.7340 -0.9523 -0.6470
  126OSM    C3F13468   2.351   2.561   7.317 -0.0287  0.1332 -0.3524
  126OSM    H3F13469   2.257   2.609   7.282 -0.9427 -2.2076 -1.2820
  126OSM    H3G13470   2.408   2.643   7.365  1.3151  0.6074 -2.6206
  126OSM    C4F13471   2.323   2.464   7.429 -0.3367  0.8274  0.1917
  126OSM    H4F13472   2.417   2.408   7.451 -0.1124  0.9536 -0.4123
  126OSM    H4G13473   2.253   2.382   7.400 -0.3118  1.6150 -2.3862
  126OSM    C5F13474   2.268   2.528   7.550  0.4404 -0.7743 -0.5257
  126OSM    H5F13475   2.167   2.572   7.534 -0.0635 -1.4070  0.7567
  126OSM    H5G13476   2.338   2.603   7.591  0.2166 -0.4425 -0.7483
  126OSM    C6F13477   2.255   2.422   7.661 -0.1763 -1.2064 -0.2352
  126OSM    H6F13478   2.342   2.355   7.674 -0.7979 -1.4314  4.1809
  126OSM    H6G13479   2.173   2.352   7.638 -1.8552  0.4927  0.3178
  126OSM    C7F13480   2.229   2.495   7.799 -0.5819  0.5927  0.9181
  126OSM    H7F13481   2.138   2.550   7.765 -1.1666 -0.6237  0.4689
  126OSM    H7G13482   2.315   2.564   7.810 -0.4684  0.5786  0.1908
  126OSM    C8F13483   2.201   2.398   7.911 -0.2037  0.1978 -0.0290
  126OSM    H8F13484   2.303   2.360   7.933 -1.1528 -1.1115  2.4309
  126OSM    H8G13485   2.140   2.308   7.886 -1.0447  0.8914 -0.5181
  126OSM    C9F13486   2.152   2.466   8.036 -0.1879 -0.0691  0.1813
  126OSM    H9F13487   2.052   2.509   8.024 -0.2712  0.2863  1.8433
  126OSM   C10F13488   2.209   2.472   8.161  0.4215 -0.8034  0.8048
  126OSM   H10F13489   2.157   2.529   8.239 -0.9888  0.9196 -1.2765
  126OSM   C11F13490   2.333   2.410   8.211 -0.5261  0.1950 -0.5127
  126OSM   H11F13491   2.409   2.492   8.213 -0.5317  0.2319  2.5638
  126OSM   H11G13492   2.364   2.322   8.151 -2.0419 -1.9237  1.6621
  126OSM   C12F13493   2.308   2.363   8.351  1.0450  0.3543 -1.6894
  126OSM   H12F13494   2.380   2.282   8.376  0.8955  0.5110 -0.7178
  126OSM   H12G13495   2.208   2.318   8.367  1.8992 -1.3020 -0.6973
  126OSM   C13F13496   2.337   2.470   8.454 -0.6006  0.0285  0.1387
  126OSM   H13F13497   2.253   2.543   8.450 -0.9084 -0.3700 -2.4642
  126OSM   H13G13498   2.429   2.523   8.424 -0.2492 -0.9137 -0.4857
  126OSM   C14F13499   2.344   2.411   8.594  0.6284  0.9098  0.4754
  126OSM   H14F13500   2.411   2.323   8.594 -2.1271 -1.3924  2.3498
  126OSM   H14G13501   2.247   2.356   8.591  1.3946 -0.5062  0.6590
  126OSM   C15F13502   2.359   2.502   8.723 -0.2053 -0.2691  0.5115
  126OSM   H15F13503   2.293   2.590   8.715  1.1932  0.6974 -1.2667
  126OSM   H15G13504   2.466   2.532   8.727 -0.0020 -0.3622 -2.3576
  126OSM   C16F13505   2.326   2.419   8.848 -0.2647  0.6681 -0.5824
  126OSM   H16F13506   2.377   2.321   8.836 -2.7569 -0.9518  1.1236
  126OSM   H16G13507   2.218   2.396   8.841 -0.4139  1.0457  0.3344
  126OSM   C17F13508   2.363   2.479   8.982 -0.2036 -0.7320 -0.4332
  126OSM   H17F13509   2.335   2.586   8.983 -1.6317 -1.0402  2.1610
  126OSM   H17G13510   2.473   2.468   8.993 -0.0231  0.6442 -0.7209
  126OSM   C18F13511   2.304   2.416   9.109  0.3615 -0.4857  0.4392
  126OSM   H18F13512   2.296   2.306   9.094 -1.9606  0.0590 -3.7087
  126OSM   H18G13513   2.202   2.456   9.123  0.7304  0.2339  1.1849
  126OSM   H18H13514   2.349   2.449   9.206  2.0767 -1.2655 -0.0395
  127OSM      N13515   1.937   2.865   6.679  0.1212  0.2119  0.2241
  127OSM    C1513516   1.912   3.012   6.676  0.5673  0.4261 -0.0472
  127OSM   H15A13517   1.959   3.080   6.607 -0.3710  4.5975  3.0131
  127OSM   H15B13518   1.932   3.053   6.774  4.7107 -0.4922 -0.3293
  127OSM   H15C13519   1.807   3.022   6.652  0.8146  2.1568 -0.6042
  127OSM    C1413520   1.931   2.821   6.537  0.0853 -0.0372  0.3014
  127OSM   H14A13521   1.941   2.713   6.528 -2.8614 -0.1993 -2.6896
  127OSM   H14B13522   2.005   2.874   6.480 -0.4088  0.9166  0.5377
  127OSM   H14C13523   1.828   2.829   6.508  0.1784 -1.0753 -0.3890
  127OSM    C1313524   2.078   2.832   6.726 -0.1514 -1.1314 -0.6612
  127OSM   H13A13525   2.098   2.876   6.823  0.3549 -0.4807 -1.0446
  127OSM   H13B13526   2.149   2.881   6.660  1.0192 -2.5380 -0.5084
  127OSM   H13C13527   2.099   2.727   6.738  0.0311 -0.8456  2.2351
  127OSM    C1213528   1.845   2.777   6.762 -0.0846 -0.9118  0.1746
  127OSM   H12A13529   1.870   2.785   6.867 -0.7632  0.0790  0.2792
  127OSM   H12B13530   1.860   2.674   6.734  1.4621 -0.8028  0.4937
  127OSM    C1113531   1.693   2.799   6.742 -0.6079 -0.0831 -0.1951
  127OSM   H11A13532   1.672   2.902   6.778 -1.1696 -0.8381  1.7703
  127OSM   H11B13533   1.642   2.732   6.815  2.1370 -1.2179  0.8230
  127OSM      P13534   1.514   2.779   6.553  0.3074  0.5039 -0.1972
  127OSM    O1313535   1.501   2.899   6.468 -0.4247 -0.1646 -1.1804
  127OSM    O1413536   1.482   2.643   6.492 -0.2348 -0.0640 -0.0095
  127OSM    O1113537   1.446   2.799   6.691  0.1003  0.0776 -1.0453
  127OSM    O1213538   1.660   2.777   6.603 -0.2928  0.5606 -0.0939
  127OSM    C1S13539   1.303   2.779   6.717  0.0142 -0.1721  0.4829
  127OSM    H1S13540   1.260   2.700   6.651 -0.5623 -0.4363  1.1636
  127OSM    H1T13541   1.244   2.873   6.705  0.6596 -0.0437 -2.9072
  127OSM     NF13542   1.157   2.683   6.895 -0.5986  0.3038 -0.3313
  127OSM    HNF13543   1.080   2.736   6.930 -0.0411  0.2209  1.1002
  127OSM    C2S13544   1.288   2.753   6.868 -0.4159 -0.6388 -0.5639
  127OSM    H2S13545   1.369   2.683   6.897 -0.3285  0.4503  2.1223
  127OSM    C3S13546   1.323   2.891   6.954  0.3875 -0.0637 -0.8521
  127OSM    H3S13547   1.271   2.975   6.903 -1.0292 -0.0857  0.4520
  127OSM     O313548   1.463   2.919   6.957  0.5496 -0.4994 -0.8680
  127OSM    HO313549   1.499   2.864   6.887 -0.1409 -2.6880  0.3832
  127OSM    C4S13550   1.285   2.863   7.094 -0.4866  0.3018 -1.1862
  127OSM    H4S13551   1.351   2.784   7.132 -0.5547  0.1137 -1.4578
  127OSM    C5S13552   1.184   2.916   7.166  0.1432 -0.8492 -0.3176
  127OSM    H5S13553   1.113   2.979   7.110 -0.6523 -1.1961  0.2852
  127OSM    C6S13554   1.138   2.880   7.308 -0.1424  0.3736 -0.2671
  127OSM    H6S13555   1.086   2.782   7.305 -1.2806  0.9757 -1.5648
  127OSM    H6T13556   1.062   2.957   7.331  2.9993  3.4721  0.6482
  127OSM    C7S13557   1.248   2.904   7.412 -0.3375  0.0004  0.7979
  127OSM    H7S13558   1.299   2.997   7.377 -1.8996  0.2592 -0.9461
  127OSM    H7T13559   1.328   2.827   7.405  0.5992  0.9797  0.3872
  127OSM    C8S13560   1.183   2.914   7.551  0.7266  0.1566 -0.5388
  127OSM    H8S13561   1.154   2.810   7.575 -1.9347  1.0693  0.5746
  127OSM    H8T13562   1.086   2.968   7.546 -0.2752 -1.7025 -2.3824
  127OSM    C9S13563   1.271   2.959   7.668 -0.1434  0.1772 -0.6915
  127OSM    H9S13564   1.298   3.066   7.655 -0.8738  0.5175  0.4852
  127OSM    H9T13565   1.365   2.904   7.687 -1.2575 -0.4371  4.3595
  127OSM   C10S13566   1.206   2.940   7.807 -0.2434  0.1648 -0.9691
  127OSM   H10S13567   1.202   2.833   7.838 -2.5119 -0.0311 -1.7543
  127OSM   H10T13568   1.102   2.979   7.812 -0.2435  0.0815 -0.0490
  127OSM   C11S13569   1.279   3.006   7.918  0.0280 -0.6964 -0.6543
  127OSM   H11S13570   1.201   3.026   7.995  1.8320 -0.0828  1.1083
  127OSM   H11T13571   1.318   3.109   7.903 -2.7718  0.2395 -2.4336
  127OSM   C12S13572   1.391   2.916   7.977  0.7027 -0.0782 -0.1552
  127OSM   H12S13573   1.470   2.912   7.900  0.4188 -2.3144 -0.3746
  127OSM   H12T13574   1.366   2.808   7.984 -0.2425  0.1021 -0.5590
  127OSM   C13S13575   1.454   2.973   8.107  0.1496 -0.0108  0.3009
  127OSM   H13S13576   1.457   3.084   8.095 -0.8313  0.2689  2.2947
  127OSM   H13T13577   1.559   2.939   8.119  0.4269 -0.6379 -3.0303
  127OSM   C14S13578   1.369   2.934   8.233 -0.6430 -0.2942  0.1601
  127OSM   H14S13579   1.370   2.823   8.227 -1.5634 -0.3411  0.5853
  127OSM   H14T13580   1.264   2.970   8.232 -0.3759  0.5099  0.4938
  127OSM   C15S13581   1.432   2.994   8.357 -0.1865  0.0520 -0.7878
  127OSM   H15S13582   1.437   3.105   8.350  0.5010  0.0118 -1.0501
  127OSM   H15T13583   1.535   2.959   8.379 -0.4497 -0.4754 -0.3893
  127OSM   C16S13584   1.352   2.965   8.483 -0.4534  0.2365 -0.0921
  127OSM   H16S13585   1.351   2.856   8.503 -0.5344 -0.4436 -3.2763
  127OSM   H16T13586   1.253   3.004   8.452 -0.3518  0.5138 -0.0766
  127OSM   C17S13587   1.393   3.051   8.606 -0.3071 -0.0569 -0.8302
  127OSM   H17S13588   1.382   3.157   8.575 -0.0198 -0.4940 -2.5437
  127OSM   H17T13589   1.501   3.029   8.618 -0.6805 -0.4018  4.4139
  127OSM   C18S13590   1.316   3.019   8.737 -0.3441 -0.4728  0.6475
  127OSM   H18S13591   1.210   3.053   8.735 -0.2972 -0.3118  0.8366
  127OSM   H18T13592   1.372   3.073   8.817 -2.1920 -0.9598  2.3701
  127OSM   H18U13593   1.315   2.911   8.766  0.3902 -0.4481  0.7899
  127OSM    C1F13594   1.137   2.560   6.857  0.5595 -0.6497 -0.0434
  127OSM     OF13595   1.211   2.496   6.783  0.1003 -0.0791  0.1174
  127OSM    C2F13596   1.009   2.491   6.907 -0.4855  0.1361  0.2628
  127OSM    H2F13597   0.976   2.418   6.831  1.2261  0.2557 -0.6428
  127OSM    H2G13598   0.930   2.566   6.928  1.1877  1.9054  0.5728
  127OSM    C3F13599   1.048   2.412   7.039  0.4731  0.2312  0.6267
  127OSM    H3F13600   1.123   2.335   7.015 -0.4441 -0.6492  0.5107
  127OSM    H3G13601   0.957   2.354   7.064  0.5410 -0.6203 -1.0001
  127OSM    C4F13602   1.096   2.493   7.154 -0.4028  0.1169 -0.5797
  127OSM    H4F13603   1.006   2.534   7.205  0.8827  0.9519  1.1434
  127OSM    H4G13604   1.166   2.576   7.129  0.0650 -0.4050 -1.0243
  127OSM    C5F13605   1.168   2.406   7.256 -0.0818  0.1862 -0.3823
  127OSM    H5F13606   1.250   2.366   7.192 -0.1330  1.0151 -0.9707
  127OSM    H5G13607   1.112   2.316   7.289  1.8476  0.0756  3.0789
  127OSM    C6F13608   1.219   2.479   7.384  0.0957 -0.1951 -0.3766
  127OSM    H6F13609   1.132   2.523   7.437 -0.5128 -0.1601 -1.3827
  127OSM    H6G13610   1.288   2.562   7.355 -0.4932  0.5232  0.2186
  127OSM    C7F13611   1.293   2.388   7.482 -0.3476 -0.2467 -0.2563
  127OSM    H7F13612   1.384   2.340   7.440 -1.0818 -2.9365  0.9968
  127OSM    H7G13613   1.227   2.310   7.525  0.3490  0.2825  1.9140
  127OSM    C8F13614   1.349   2.465   7.602 -0.0580  0.5082  0.0611
  127OSM    H8F13615   1.421   2.538   7.557  1.0909 -0.7357 -0.1693
  127OSM    H8G13616   1.410   2.389   7.655  1.5821  3.6831  3.1919
  127OSM    C9F13617   1.244   2.535   7.690 -0.2199 -0.3158  0.2906
  127OSM    H9F13618   1.200   2.626   7.649  0.1334 -0.1088  0.3708
  127OSM   C10F13619   1.214   2.506   7.818 -0.1916 -0.6803  0.3997
  127OSM   H10F13620   1.114   2.542   7.849  0.7184  1.0272  1.5036
  127OSM   C11F13621   1.271   2.396   7.902 -0.1853 -0.5583 -0.5114
  127OSM   H11F13622   1.374   2.367   7.875  0.5538  1.1628  0.2794
  127OSM   H11G13623   1.212   2.302   7.900  0.4410 -0.9456 -1.3294
  127OSM   C12F13624   1.263   2.444   8.054  0.6129  0.3478 -0.0222
  127OSM   H12F13625   1.299   2.544   8.085  0.2344 -0.2585  2.5348
  127OSM   H12G13626   1.333   2.373   8.103 -1.9607 -1.3362  1.4146
  127OSM   C13F13627   1.121   2.426   8.123  0.1026 -0.3152 -0.0774
  127OSM   H13F13628   1.100   2.323   8.088  0.3821 -0.0985 -0.8912
  127OSM   H13G13629   1.044   2.487   8.072  0.5363  0.9323  0.7070
  127OSM   C14F13630   1.129   2.423   8.269 -0.1762 -0.0687  0.0594
  127OSM   H14F13631   1.201   2.343   8.298  1.1780  1.3443  0.7135
  127OSM   H14G13632   1.027   2.390   8.298 -0.0247 -0.7402 -0.1451
  127OSM   C15F13633   1.168   2.551   8.335  0.1774 -0.0792 -0.3918
  127OSM   H15F13634   1.094   2.629   8.306  0.9694  0.9576  0.3184
  127OSM   H15G13635   1.264   2.591   8.296 -0.1485  2.2921  1.0396
  127OSM   C16F13636   1.185   2.546   8.489 -0.5379 -0.2224 -0.2195
  127OSM   H16F13637   1.278   2.601   8.513 -0.0161  0.0828 -2.6973
  127OSM   H16G13638   1.198   2.439   8.515  0.2485  0.6087  3.2200
  127OSM   C17F13639   1.071   2.607   8.573 -0.1292  0.6015 -0.3530
  127OSM   H17F13640   1.059   2.560   8.673  0.7772  0.3216 -0.3678
  127OSM   H17G13641   0.975   2.586   8.521 -0.1847  0.8904 -0.3723
  127OSM   C18F13642   1.078   2.759   8.576  0.0410 -0.4399 -0.1636
  127OSM   H18F13643   1.183   2.787   8.598 -0.6184  0.9981  1.3636
  127OSM   H18G13644   1.008   2.807   8.648  0.5760  1.2046 -0.6822
  127OSM   H18H13645   1.059   2.790   8.471  0.5924 -1.4501 -0.5780
  128OSM      N13646   2.370   0.311   5.925 -0.0047 -0.6694  0.1684
  128OSM    C1513647   2.517   0.334   5.954  0.1353 -0.5253  0.1377
  128OSM   H15A13648   2.516   0.428   6.008  1.2415 -0.7281  0.5331
  128OSM   H15B13649   2.579   0.334   5.865  1.4775 -2.8234  1.0129
  128OSM   H15C13650   2.555   0.259   6.021  2.1390  1.0444  0.8734
  128OSM    C1413651   2.323   0.436   5.852  0.7621 -0.6626 -0.1101
  128OSM   H14A13652   2.337   0.517   5.923  2.2808 -2.1244  1.3578
  128OSM   H14B13653   2.222   0.419   5.818  0.8061 -1.6461  0.2117
  128OSM   H14C13654   2.388   0.457   5.768 -2.2826 -0.1122 -2.5076
  128OSM    C1313655   2.372   0.195   5.836  0.4530  0.6294  0.0979
  128OSM   H13A13656   2.277   0.191   5.785  0.7575 -1.1520 -0.3974
  128OSM   H13B13657   2.385   0.108   5.898  0.0477  2.5006  3.0017
  128OSM   H13C13658   2.452   0.195   5.763  0.3163 -2.1023 -0.1607
  128OSM    C1213659   2.293   0.284   6.053  0.3236  0.5553 -0.3860
  128OSM   H12A13660   2.194   0.249   6.030 -0.6181  0.2013  3.5342
  128OSM   H12B13661   2.278   0.382   6.097 -1.6910  0.2594 -0.3184
  128OSM    C1113662   2.364   0.199   6.159 -0.7342  0.8616 -0.1342
  128OSM   H11A13663   2.393   0.107   6.104 -1.4939  1.5517 -1.7707
  128OSM   H11B13664   2.283   0.167   6.228  0.9702 -1.5804  0.8955
  128OSM      P13665   2.452   0.352   6.333 -0.3927  0.1702 -0.0542
  128OSM    O1313666   2.583   0.398   6.377 -0.1234 -0.1278  0.4937
  128OSM    O1413667   2.353   0.459   6.298  0.2346  0.1179 -0.0670
  128OSM    O1113668   2.384   0.266   6.439 -0.1639 -0.9274 -0.1619
  128OSM    O1213669   2.478   0.258   6.218  0.4277 -0.3012  0.0411
  128OSM    C1S13670   2.429   0.140   6.488 -0.1060  0.0444 -0.0808
  128OSM    H1S13671   2.522   0.100   6.443 -2.0774 -1.6154 -3.0166
  128OSM    H1T13672   2.357   0.061   6.457 -1.4734  2.2097 -2.8993
  128OSM     NF13673   2.494   0.028   6.699 -0.1410 -0.1700  0.2167
  128OSM    HNF13674   2.441  -0.048   6.735  0.4525 -0.4114  0.5876
  128OSM    C2S13675   2.433   0.153   6.651 -0.3281  0.0410 -0.1504
  128OSM    H2S13676   2.492   0.243   6.677  0.5956 -1.0470  1.7484
  128OSM    C3S13677   2.282   0.172   6.700  0.7183  0.2866  0.1001
  128OSM    H3S13678   2.224   0.086   6.662  1.7998 -0.5591  0.3036
  128OSM     O313679   2.211   0.280   6.643 -0.3511 -0.7259  0.5734
  128OSM    HO313680   2.260   0.293   6.562  0.4045  0.5864  1.2107
  128OSM    C4S13681   2.277   0.183   6.852 -0.1436 -0.0234  0.1929
  128OSM    H4S13682   2.316   0.279   6.888  0.8755  0.0377 -1.0011
  128OSM    C5S13683   2.222   0.097   6.937 -0.0889  0.2464  0.0448
  128OSM    H5S13684   2.186   0.001   6.898  0.6766 -0.4147  0.9379
  128OSM    C6S13685   2.241   0.103   7.085 -0.2261  0.0079 -0.0116
  128OSM    H6S13686   2.274  -0.001   7.106  0.1033 -0.0437 -0.7517
  128OSM    H6T13687   2.143   0.112   7.136 -1.1512  1.0785 -1.8383
  128OSM    C7S13688   2.333   0.215   7.149  0.2982  0.0294  0.4136
  128OSM    H7S13689   2.311   0.319   7.114  2.3167  0.9539  1.7285
  128OSM    H7T13690   2.434   0.188   7.112  0.0902  0.6779 -0.6832
  128OSM    C8S13691   2.346   0.208   7.307 -0.2080  0.3630  0.8564
  128OSM    H8S13692   2.444   0.257   7.325  0.1927 -0.5478  1.2738
  128OSM    H8T13693   2.355   0.100   7.332  0.1518  0.0514 -0.5523
  128OSM    C9S13694   2.234   0.268   7.393  0.4273 -0.1378  0.1317
  128OSM    H9S13695   2.133   0.231   7.365 -0.0756  0.8954  0.5132
  128OSM    H9T13696   2.236   0.374   7.358 -0.8655  0.2587  1.1836
  128OSM   C10S13697   2.247   0.255   7.544 -0.6238 -0.1122 -0.0936
  128OSM   H10S13698   2.265   0.149   7.573  0.7433  0.1555  0.1089
  128OSM   H10T13699   2.153   0.293   7.590  0.8673  0.9878  2.2003
  128OSM   C11S13700   2.358   0.350   7.608 -0.8263 -0.1403 -0.8137
  128OSM   H11S13701   2.336   0.457   7.590  1.2596  0.4694 -0.0493
  128OSM   H11T13702   2.456   0.325   7.562 -0.8514  0.8656 -1.4479
  128OSM   C12S13703   2.354   0.338   7.764 -0.0902 -0.1387  0.3588
  128OSM   H12S13704   2.408   0.254   7.812 -0.1488 -0.9789 -0.9869
  128OSM   H12T13705   2.246   0.329   7.792 -0.5049  2.8883  0.0955
  128OSM   C13S13706   2.407   0.463   7.829  0.1856 -0.5078 -0.5668
  128OSM   H13S13707   2.366   0.557   7.787 -1.7065 -0.5253  1.1055
  128OSM   H13T13708   2.518   0.464   7.829  0.2023  1.1816 -0.2574
  128OSM   C14S13709   2.359   0.473   7.974 -0.8125 -0.3029  0.0843
  128OSM   H14S13710   2.417   0.396   8.030 -2.0412 -0.0479  1.7645
  128OSM   H14T13711   2.251   0.450   7.983 -1.1055  0.8966 -0.1712
  128OSM   C15S13712   2.392   0.610   8.037  0.2089  0.0140  0.2435
  128OSM   H15S13713   2.367   0.688   7.962 -2.2552 -0.3393  0.6116
  128OSM   H15T13714   2.502   0.606   8.051  0.1260 -3.4469  0.9234
  128OSM   C16S13715   2.353   0.646   8.180  0.4340 -0.0986  0.0396
  128OSM   H16S13716   2.387   0.750   8.200 -0.3551  0.3047 -0.6881
  128OSM   H16T13717   2.393   0.574   8.255  1.8624  0.7458  0.1147
  128OSM   C17S13718   2.200   0.641   8.196  0.0430  0.2609 -0.8436
  128OSM   H17S13719   2.155   0.540   8.185 -1.7325  0.9536 -0.2832
  128OSM   H17T13720   2.144   0.716   8.135 -2.1176  0.0534  0.7660
  128OSM   C18S13721   2.171   0.677   8.339  0.2277 -0.4072  0.0471
  128OSM   H18S13722   2.173   0.591   8.409  0.4890 -0.4726 -0.0422
  128OSM   H18T13723   2.070   0.721   8.356  1.0754  0.7011  2.7480
  128OSM   H18U13724   2.245   0.754   8.369  0.6345  0.0548 -1.9787
  128OSM    C1F13725   2.623   0.006   6.690 -0.8129  0.2623  0.0840
  128OSM     OF13726   2.706   0.086   6.649 -0.0944 -0.0891 -0.6095
  128OSM    C2F13727   2.665  -0.137   6.722  0.1500  0.2812  0.0879
  128OSM    H2F13728   2.695  -0.178   6.623 -1.3776 -3.1482  0.8945
  128OSM    H2G13729   2.577  -0.196   6.757 -0.2050 -0.2351 -1.5614
  128OSM    C3F13730   2.764  -0.140   6.839 -0.2081  0.0612  1.0002
  128OSM    H3F13731   2.720  -0.095   6.930  0.4675 -1.9140  2.3436
  128OSM    H3G13732   2.852  -0.084   6.801 -0.6769 -0.7663 -1.4940
  128OSM    C4F13733   2.808  -0.282   6.872 -0.1116  0.6889 -0.2545
  128OSM    H4F13734   2.895  -0.271   6.940  1.0782 -1.5959 -1.3082
  128OSM    H4G13735   2.854  -0.326   6.781 -0.5985 -0.0219 -0.1602
  128OSM    C5F13736   2.701  -0.371   6.938 -0.4074 -0.6941 -0.4029
  128OSM    H5F13737   2.654  -0.438   6.863  0.0220 -0.5049 -0.8492
  128OSM    H5G13738   2.616  -0.307   6.967  0.3020  0.8229 -1.5081
  128OSM    C6F13739   2.759  -0.451   7.063  0.2269  0.0554  0.2661
  128OSM    H6F13740   2.835  -0.520   7.021 -1.3534 -0.8902 -1.1694
  128OSM    H6G13741   2.675  -0.517   7.092 -0.7696  0.7239 -1.0221
  128OSM    C7F13742   2.805  -0.367   7.171  0.0881 -0.4846 -0.1342
  128OSM    H7F13743   2.756  -0.267   7.168  1.2463  0.1156 -3.1883
  128OSM    H7G13744   2.909  -0.337   7.145  0.5952 -0.9459  1.2794
  128OSM    C8F13745   2.794  -0.417   7.316  0.0612 -0.1748 -0.0698
  128OSM    H8F13746   2.692  -0.434   7.359  0.1901 -0.1529  0.2504
  128OSM    H8G13747   2.832  -0.337   7.384  2.9581 -0.2016 -1.5433
  128OSM    C9F13748   2.867  -0.555   7.323  0.1993 -0.1016 -0.2328
  128OSM    H9F13749   2.819  -0.642   7.276  0.0182 -0.8589  1.2871
  128OSM   C10F13750   2.986  -0.576   7.389 -0.2852 -0.7228  0.4235
  128OSM   H10F13751   3.029  -0.677   7.380 -0.3601 -0.7995  0.9163
  128OSM   C11F13752   3.065  -0.474   7.461  0.0524 -0.5032  0.0149
  128OSM   H11F13753   3.039  -0.369   7.438  1.8697  0.0039  0.0751
  128OSM   H11G13754   3.171  -0.484   7.429 -0.0443  2.3242 -1.4499
  128OSM   C12F13755   3.075  -0.485   7.619 -0.0832  0.2245  0.6308
  128OSM   H12F13756   2.974  -0.452   7.652 -2.2606 -0.8369 -4.1472
  128OSM   H12G13757   3.159  -0.419   7.650  1.8548 -1.8931  0.1364
  128OSM   C13F13758   3.090  -0.631   7.663 -0.3331 -0.0718  0.4769
  128OSM   H13F13759   3.176  -0.677   7.609 -1.7613 -4.5061  1.5228
  128OSM   H13G13760   3.002  -0.697   7.646  0.2067 -1.1530  1.6651
  128OSM   C14F13761   3.120  -0.648   7.816 -0.2838  0.6149  0.0186
  128OSM   H14F13762   3.223  -0.612   7.839 -0.1055 -0.3703  0.8044
  128OSM   H14G13763   3.118  -0.758   7.832 -4.0199  0.5052 -0.4759
  128OSM   C15F13764   3.026  -0.584   7.913  0.1908 -0.3162  0.2139
  128OSM   H15F13765   2.921  -0.612   7.889  0.2771 -0.4822  0.0314
  128OSM   H15G13766   3.029  -0.473   7.911 -1.1817 -0.2110  1.6162
  128OSM   C16F13767   3.064  -0.628   8.057 -0.6427 -0.4400  0.1466
  128OSM   H16F13768   3.167  -0.589   8.070 -1.5328  1.6248  1.4609
  128OSM   H16G13769   3.086  -0.737   8.065  2.2162 -0.2043 -2.5056
  128OSM   C17F13770   2.968  -0.592   8.169  0.1492 -0.5289  0.7490
  128OSM   H17F13771   2.864  -0.625   8.147 -0.0475  0.7563 -0.4060
  128OSM   H17G13772   2.962  -0.481   8.172  0.7135 -0.4377 -0.5699
  128OSM   C18F13773   3.029  -0.643   8.300  0.5119  0.2886  0.0922
  128OSM   H18F13774   3.037  -0.754   8.289  0.1945  0.1714  0.9727
  128OSM   H18G13775   2.951  -0.625   8.378 -0.7804  1.0773 -1.3257
  128OSM   H18H13776   3.132  -0.607   8.322  0.4067  0.2146  0.7303
  129OSM      N13777   4.855   1.473   6.268 -0.2506  0.2855  0.3536
  129OSM    C1513778   4.743   1.400   6.339  0.0689 -0.1445  0.0564
  129OSM   H15A13779   4.736   1.439   6.440 -1.4554  1.2134 -0.5333
  129OSM   H15B13780   4.757   1.293   6.346 -1.3781 -0.4103 -0.8095
  129OSM   H15C13781   4.643   1.414   6.301 -0.6720 -1.8124  1.2634
  129OSM    C1413782   4.840   1.440   6.119 -0.0459  0.6383 -0.4732
  129OSM   H14A13783   4.887   1.509   6.050  2.1294 -0.8369 -0.5557
  129OSM   H14B13784   4.736   1.442   6.089 -0.0992 -2.9955 -1.0166
  129OSM   H14C13785   4.886   1.347   6.091 -0.9256  0.4324 -1.2970
  129OSM    C1313786   4.828   1.623   6.285 -0.0957 -0.1501 -0.3014
  129OSM   H13A13787   4.799   1.649   6.385 -2.8995 -0.5072 -0.9419
  129OSM   H13B13788   4.746   1.659   6.224 -0.2773 -0.9237 -0.5280
  129OSM   H13C13789   4.922   1.674   6.270 -0.7859  1.1295 -0.4010
  129OSM    C1213790   5.001   1.439   6.322 -0.1434  0.5129  0.0667
  129OSM   H12A13791   5.067   1.488   6.253  1.7781 -0.6679  0.9826
  129OSM   H12B13792   5.017   1.332   6.312 -0.9030  0.2600  1.2513
  129OSM    C1113793   5.037   1.476   6.470 -0.7407 -0.2221 -0.0236
  129OSM   H11A13794   5.139   1.439   6.491 -1.2619 -0.2531  2.9518
  129OSM   H11B13795   4.967   1.429   6.543 -0.7296  0.3373  0.3561
  129OSM      P13796   4.970   1.701   6.606  0.1695  0.0593  0.1018
  129OSM    O1313797   5.007   1.841   6.582  0.3201 -0.2818 -0.4428
  129OSM    O1413798   4.828   1.660   6.610  0.0731 -0.8363  0.4403
  129OSM    O1113799   5.042   1.649   6.735 -0.3793 -0.5323  0.6282
  129OSM    O1213800   5.044   1.622   6.491 -0.3576 -0.2393  0.1291
  129OSM    C1S13801   5.175   1.625   6.750 -0.4946 -0.7229  0.0600
  129OSM    H1S13802   5.233   1.708   6.702 -0.9947  0.2217  1.0667
  129OSM    H1T13803   5.201   1.525   6.708 -1.4047 -0.9610  0.0558
  129OSM     NF13804   5.349   1.620   6.918 -0.8490  0.3841 -0.3290
  129OSM    HNF13805   5.397   1.532   6.916  0.4731  1.0744 -0.4058
  129OSM    C2S13806   5.203   1.625   6.901 -0.1255 -0.3743 -0.6124
  129OSM    H2S13807   5.166   1.713   6.959  0.9433  0.2877 -0.8978
  129OSM    C3S13808   5.124   1.503   6.968  0.5054  0.1443  0.2293
  129OSM    H3S13809   5.184   1.417   6.932  1.2824  1.0966 -0.8422
  129OSM     O313810   4.998   1.473   6.916  0.1915  0.5297  0.4404
  129OSM    HO313811   4.990   1.531   6.840  1.0091  1.5860  1.1336
  129OSM    C4S13812   5.126   1.506   7.117  0.4010 -0.3704 -0.2860
  129OSM    H4S13813   5.055   1.580   7.158  1.6346 -0.0274  1.3579
  129OSM    C5S13814   5.186   1.414   7.197 -0.3927 -0.3735  0.2500
  129OSM    H5S13815   5.218   1.327   7.139 -1.2724  1.2177 -2.8588
  129OSM    C6S13816   5.194   1.403   7.348  0.1168 -0.8300  0.5073
  129OSM    H6S13817   5.288   1.351   7.376  0.3260  0.3113  2.0385
  129OSM    H6T13818   5.110   1.337   7.379 -1.5136  1.6749  1.7869
  129OSM    C7S13819   5.171   1.539   7.420 -0.1982 -0.5176 -0.9278
  129OSM    H7S13820   5.085   1.587   7.368 -1.0490  1.3724  1.9616
  129OSM    H7T13821   5.256   1.610   7.410 -1.3226  0.8717 -0.9418
  129OSM    C8S13822   5.117   1.522   7.568 -0.2643 -0.7379 -0.0897
  129OSM    H8S13823   5.013   1.482   7.564 -0.4033 -0.3056 -0.9912
  129OSM    H8T13824   5.106   1.622   7.615 -0.3344 -0.4767 -0.6478
  129OSM    C9S13825   5.218   1.445   7.652  0.1932 -0.6575 -0.1868
  129OSM    H9S13826   5.310   1.507   7.663  1.5761 -2.3012 -1.8067
  129OSM    H9T13827   5.252   1.357   7.594  2.4821  1.2798 -2.0046
  129OSM   C10S13828   5.154   1.414   7.788  0.8871 -0.8165 -0.4282
  129OSM   H10S13829   5.216   1.347   7.851  0.9957  1.1010  1.6380
  129OSM   H10T13830   5.052   1.372   7.782  0.2134  0.2104  2.3435
  129OSM   C11S13831   5.137   1.540   7.878  0.7873 -0.8918  0.6397
  129OSM   H11S13832   5.060   1.611   7.841  0.1355 -2.0357 -0.2647
  129OSM   H11T13833   5.235   1.591   7.889  1.3606 -1.9410  0.5028
  129OSM   C12S13834   5.088   1.503   8.014  0.3829 -0.1557 -0.8847
  129OSM   H12S13835   5.156   1.427   8.058  0.4245 -0.8663 -2.1243
  129OSM   H12T13836   4.984   1.467   7.998 -0.3231  1.8171 -0.9399
  129OSM   C13S13837   5.068   1.628   8.098 -0.2234  0.5235 -0.9451
  129OSM   H13S13838   4.993   1.693   8.048 -1.3622  0.7769  0.9724
  129OSM   H13T13839   5.160   1.689   8.105  1.5240 -2.0879  1.0010
  129OSM   C14S13840   5.018   1.586   8.240  0.2019 -0.1424  0.0434
  129OSM   H14S13841   5.016   1.683   8.294 -0.4052 -0.5906  0.8513
  129OSM   H14T13842   5.095   1.527   8.294 -0.4163  0.8053  2.0411
  129OSM   C15S13843   4.883   1.516   8.253 -0.0698 -0.6706 -0.1384
  129OSM   H15S13844   4.871   1.506   8.363  1.1762 -0.5088  0.0231
  129OSM   H15T13845   4.881   1.418   8.202 -0.6236 -1.2734  1.0006
  129OSM   C16S13846   4.763   1.588   8.191 -0.9424 -0.5978 -0.3239
  129OSM   H16S13847   4.799   1.614   8.089  1.0185  1.3762  0.8095
  129OSM   H16T13848   4.741   1.685   8.240 -0.8626 -0.8611  0.2349
  129OSM   C17S13849   4.642   1.502   8.191 -0.0147 -0.2649 -0.2701
  129OSM   H17S13850   4.612   1.481   8.296  2.9327  0.7189  0.8432
  129OSM   H17T13851   4.676   1.402   8.154  0.2525 -0.2286 -0.1184
  129OSM   C18S13852   4.529   1.552   8.101  0.4919  0.0460  0.0192
  129OSM   H18S13853   4.564   1.586   8.001 -2.3007 -0.2357 -1.1342
  129OSM   H18T13854   4.484   1.639   8.154  1.3404  1.9265 -2.1720
  129OSM   H18U13855   4.452   1.473   8.090 -3.2433  3.1844  1.1396
  129OSM    C1F13856   5.425   1.729   6.922 -0.1879  0.8050  0.2537
  129OSM     OF13857   5.377   1.831   6.881 -0.1211  0.2964  0.9195
  129OSM    C2F13858   5.569   1.715   6.960  0.0981  0.3213 -0.3690
  129OSM    H2F13859   5.636   1.705   6.873  1.1052 -2.0104  0.6071
  129OSM    H2G13860   5.581   1.612   7.000  0.9300  0.7929  0.6452
  129OSM    C3F13861   5.615   1.814   7.075  0.0016  0.4232  0.7464
  129OSM    H3F13862   5.600   1.919   7.042  0.0743  0.2438  0.1280
  129OSM    H3G13863   5.725   1.799   7.088  0.0890  1.7881  1.8315
  129OSM    C4F13864   5.553   1.798   7.212  0.4066  0.2346 -0.5045
  129OSM    H4F13865   5.571   1.701   7.262  2.0638  0.9960  0.4362
  129OSM    H4G13866   5.444   1.808   7.194 -0.1528 -2.1638  1.1118
  129OSM    C5F13867   5.596   1.913   7.308  0.2323 -0.1413  0.1641
  129OSM    H5F13868   5.546   2.006   7.273 -0.5003 -0.9892 -1.1172
  129OSM    H5G13869   5.705   1.934   7.304 -0.1085  1.6629 -0.6399
  129OSM    C6F13870   5.570   1.890   7.453 -0.6964 -0.2330 -0.0382
  129OSM    H6F13871   5.640   1.812   7.491 -1.8232 -1.1598  0.1740
  129OSM    H6G13872   5.465   1.854   7.460 -0.4511 -1.1276 -0.8509
  129OSM    C7F13873   5.587   2.018   7.529  0.3878 -0.6334  0.0118
  129OSM    H7F13874   5.504   2.084   7.496  0.1882 -1.1543 -0.5294
  129OSM    H7G13875   5.689   2.063   7.527  0.5844 -1.0593  0.3399
  129OSM    C8F13876   5.565   2.005   7.684  0.6247  1.4418 -0.2230
  129OSM    H8F13877   5.458   1.985   7.704  0.4856 -0.9735 -2.6939
  129OSM    H8G13878   5.594   2.103   7.728  0.5951  1.5971 -0.5416
  129OSM    C9F13879   5.660   1.899   7.746  0.2410  0.1132  0.1119
  129OSM    H9F13880   5.669   1.807   7.687  0.8458  0.1987  0.0604
  129OSM   C10F13881   5.723   1.898   7.869 -0.4256 -0.5820  0.5555
  129OSM   H10F13882   5.806   1.828   7.888  1.5528  1.4301 -0.1180
  129OSM   C11F13883   5.718   2.008   7.974 -0.3523  0.2548 -0.3546
  129OSM   H11F13884   5.652   2.090   7.938  1.5791  1.4475 -1.4221
  129OSM   H11G13885   5.814   2.065   7.983  0.0100 -0.1093 -1.6983
  129OSM   C12F13886   5.689   1.961   8.123 -0.1262  0.0163 -0.4809
  129OSM   H12F13887   5.757   1.886   8.169 -0.3155  1.5541  2.4891
  129OSM   H12G13888   5.597   1.899   8.116 -0.0695  0.0802 -2.6570
  129OSM   C13F13889   5.666   2.075   8.218 -0.6421 -0.5906 -0.1408
  129OSM   H13F13890   5.567   2.115   8.186 -1.1482 -3.1883 -2.2155
  129OSM   H13G13891   5.746   2.152   8.210 -0.9185 -0.4524 -2.0455
  129OSM   C14F13892   5.641   2.020   8.357 -0.0248  0.0490 -0.1105
  129OSM   H14F13893   5.571   1.935   8.346  1.4056 -1.0068 -1.5291
  129OSM   H14G13894   5.593   2.103   8.413 -0.8642  1.8149 -3.2079
  129OSM   C15F13895   5.763   1.974   8.435  0.1398  0.6316  0.2147
  129OSM   H15F13896   5.845   2.048   8.430  0.9833 -0.3486 -1.5341
  129OSM   H15G13897   5.802   1.878   8.395 -0.7279  0.5756 -0.5541
  129OSM   C16F13898   5.734   1.943   8.585  0.3157 -0.7291 -0.5803
  129OSM   H16F13899   5.790   1.850   8.606  0.8319 -1.3375 -4.0785
  129OSM   H16G13900   5.626   1.921   8.599 -0.3017  1.9204 -0.7195
  129OSM   C17F13901   5.762   2.062   8.680  0.5927  0.5247  0.1082
  129OSM   H17F13902   5.720   2.035   8.779  0.4040 -1.3847 -0.4595
  129OSM   H17G13903   5.708   2.148   8.635  1.0692  0.2510 -1.0343
  129OSM   C18F13904   5.916   2.101   8.691 -0.0747  0.5679 -0.8055
  129OSM   H18F13905   5.969   2.016   8.739  0.4956  2.2024  1.6394
  129OSM   H18G13906   5.924   2.191   8.756 -0.0707  0.0472 -0.0763
  129OSM   H18H13907   5.950   2.124   8.588 -0.2079  1.3774 -0.6744
  130OSM      N13908   0.668   5.355   6.417 -0.2946  0.2417  0.1638
  130OSM    C1513909   0.648   5.345   6.275  0.0540 -0.3610 -0.2598
  130OSM   H15A13910   0.726   5.286   6.228 -0.5847 -0.5238 -1.1541
  130OSM   H15B13911   0.644   5.445   6.234 -1.4939 -0.0078  0.6545
  130OSM   H15C13912   0.558   5.293   6.243 -0.5911 -0.4800  1.6146
  130OSM    C1413913   0.557   5.430   6.468 -0.4205 -0.0972  0.6584
  130OSM   H14A13914   0.452   5.405   6.462 -0.1972 -0.8694 -0.3429
  130OSM   H14B13915   0.562   5.533   6.434  1.6084 -0.4010 -0.1067
  130OSM   H14C13916   0.577   5.451   6.572 -0.7671 -0.4910  0.8055
  130OSM    C1313917   0.660   5.208   6.473  0.0455 -0.2106 -0.4242
  130OSM   H13A13918   0.741   5.145   6.441 -0.3284 -0.5441 -0.7324
  130OSM   H13B13919   0.577   5.153   6.431 -1.2644 -1.5456  3.5407
  130OSM   H13C13920   0.649   5.216   6.580 -1.0775 -0.7030 -0.4769
  130OSM    C1213921   0.794   5.417   6.462 -0.5632 -0.2659 -0.6589
  130OSM   H12A13922   0.876   5.347   6.460  0.1726  0.5867 -1.3438
  130OSM   H12B13923   0.783   5.434   6.568 -1.5639 -0.9462 -0.6442
  130OSM    C1113924   0.847   5.546   6.389  0.4726 -0.5029  0.2655
  130OSM   H11A13925   0.859   5.527   6.280  0.1543 -0.4485  0.2185
  130OSM   H11B13926   0.946   5.567   6.435  0.3396 -0.1076  0.3774
  130OSM      P13927   0.819   5.774   6.509 -0.1356 -0.2256 -0.1125
  130OSM    O1313928   0.957   5.809   6.471 -0.8726 -0.1526 -0.5670
  130OSM    O1413929   0.722   5.883   6.511  0.0810  0.0665  0.1131
  130OSM    O1113930   0.802   5.697   6.648 -0.3325 -0.5152 -0.1800
  130OSM    O1213931   0.768   5.669   6.409  0.0430  0.6291 -0.2514
  130OSM    C1S13932   0.842   5.757   6.772 -0.2364  0.1646  0.5136
  130OSM    H1S13933   0.845   5.868   6.774 -1.5540  0.2547 -0.7484
  130OSM    H1T13934   0.947   5.726   6.795 -0.1746 -0.5834 -0.7069
  130OSM     NF13935   0.786   5.764   7.023 -0.1118 -0.1199  0.1540
  130OSM    HNF13936   0.832   5.709   7.091  1.2053 -2.1076 -2.1782
  130OSM    C2S13937   0.752   5.704   6.894 -0.0643 -0.1344  0.3020
  130OSM    H2S13938   0.652   5.747   6.872  0.1671 -0.0342 -0.6121
  130OSM    C3S13939   0.752   5.553   6.898  0.2818 -0.0453  0.7966
  130OSM    H3S13940   0.852   5.516   6.928  0.2226 -0.1085  0.9142
  130OSM     O313941   0.736   5.484   6.768  0.0192 -0.3941  0.1704
  130OSM    HO313942   0.719   5.557   6.708 -1.0303  0.8543  1.8838
  130OSM    C4S13943   0.652   5.501   6.994 -0.2441 -0.3553  0.0640
  130OSM    H4S13944   0.555   5.551   6.982  1.3905  2.8913 -0.8203
  130OSM    C5S13945   0.681   5.411   7.090 -0.1584  0.0754 -0.3435
  130OSM    H5S13946   0.777   5.362   7.115 -0.4498  0.7131  2.4140
  130OSM    C6S13947   0.567   5.367   7.182 -0.3140 -0.1148  0.2200
  130OSM    H6S13948   0.610   5.338   7.280  2.2350 -1.2588 -1.1288
  130OSM    H6T13949   0.536   5.271   7.135  3.1615 -0.6440 -1.3325
  130OSM    C7S13950   0.447   5.464   7.206  0.3980  0.5072 -0.0207
  130OSM    H7S13951   0.373   5.399   7.258 -1.0962  1.9747 -0.2290
  130OSM    H7T13952   0.401   5.488   7.108 -1.2518  0.3370  0.6827
  130OSM    C8S13953   0.478   5.586   7.300  0.5940 -0.4982 -0.5497
  130OSM    H8S13954   0.387   5.648   7.316  1.5023  0.3902  1.5457
  130OSM    H8T13955   0.561   5.656   7.275 -0.8325  2.6926  2.7634
  130OSM    C9S13956   0.524   5.549   7.440 -0.8610 -0.2372 -0.3866
  130OSM    H9S13957   0.624   5.501   7.435 -0.9071 -0.3893  0.0990
  130OSM    H9T13958   0.464   5.466   7.485  2.0539 -2.2405  0.1195
  130OSM   C10S13959   0.536   5.666   7.534 -0.2815 -0.2516 -0.4647
  130OSM   H10S13960   0.474   5.756   7.513  1.1566  1.0565  0.6483
  130OSM   H10T13961   0.639   5.707   7.538 -0.0408 -0.9521  1.5848
  130OSM   C11S13962   0.516   5.645   7.683 -0.1986  0.3328 -0.4463
  130OSM   H11S13963   0.551   5.550   7.730 -2.8898  0.5593  2.3574
  130OSM   H11T13964   0.408   5.667   7.696 -0.2232  0.8710 -1.5179
  130OSM   C12S13965   0.593   5.758   7.769  0.2564 -0.6146  0.3850
  130OSM   H12S13966   0.541   5.852   7.742  0.1869 -1.2591 -1.9333
  130OSM   H12T13967   0.703   5.753   7.759  0.1832 -0.7866 -0.3951
  130OSM   C13S13968   0.580   5.733   7.917 -0.1194 -1.0552 -0.0528
  130OSM   H13S13969   0.623   5.636   7.951  0.6169 -0.1577  1.7264
  130OSM   H13T13970   0.477   5.750   7.956 -0.4961 -3.2158  0.0255
  130OSM   C14S13971   0.652   5.845   7.997 -0.4405 -0.4641  0.1118
  130OSM   H14S13972   0.612   5.942   7.962 -0.0752 -0.1429  0.5621
  130OSM   H14T13973   0.759   5.842   7.967 -0.5384  2.0099 -0.6614
  130OSM   C15S13974   0.642   5.822   8.150 -0.1650 -0.0411  0.1750
  130OSM   H15S13975   0.536   5.805   8.178 -0.3487  0.7184 -0.0215
  130OSM   H15T13976   0.677   5.916   8.198 -1.8765  0.2355  0.9562
  130OSM   C16S13977   0.719   5.698   8.208 -0.2411 -0.0743  0.2759
  130OSM   H16S13978   0.825   5.693   8.174 -1.0610 -1.2923 -2.2977
  130OSM   H16T13979   0.678   5.609   8.157 -0.2649  0.5978 -0.8919
  130OSM   C17S13980   0.714   5.679   8.361  0.0391 -0.2195  0.4081
  130OSM   H17S13981   0.777   5.763   8.398 -1.3968  0.8539  0.5328
  130OSM   H17T13982   0.756   5.581   8.392 -0.2170 -0.3820  0.2455
  130OSM   C18S13983   0.574   5.694   8.425  0.7336 -0.1879  0.8106
  130OSM   H18S13984   0.577   5.685   8.536  0.8063 -0.3227  0.7975
  130OSM   H18T13985   0.524   5.607   8.378  1.8664  0.5500 -1.9470
  130OSM   H18U13986   0.524   5.792   8.410  1.9055  0.2102 -0.6747
  130OSM    C1F13987   0.757   5.891   7.052  0.7932  0.6818 -0.1043
  130OSM     OF13988   0.723   5.960   6.962 -0.2048  0.0240 -0.3345
  130OSM    C2F13989   0.777   5.936   7.195  0.2878 -0.3147  0.4340
  130OSM    H2F13990   0.884   5.962   7.205 -0.3037  2.8544 -0.2606
  130OSM    H2G13991   0.744   5.849   7.255 -2.1676  0.0230 -0.2703
  130OSM    C3F13992   0.679   6.049   7.239  0.3258  0.5190  0.3862
  130OSM    H3F13993   0.572   6.023   7.220  0.6459 -1.5105  1.1219
  130OSM    H3G13994   0.711   6.140   7.186 -0.8833  0.1067 -1.1430
  130OSM    C4F13995   0.681   6.082   7.391 -0.3042  0.5211  0.1644
  130OSM    H4F13996   0.673   5.996   7.461 -0.2081  0.7615  0.4721
  130OSM    H4G13997   0.595   6.150   7.410 -1.4191 -0.8432  0.1597
  130OSM    C5F13998   0.810   6.159   7.428  0.8569 -0.0896 -0.2748
  130OSM    H5F13999   0.828   6.236   7.350 -0.3156 -0.1791 -0.6518
  130OSM    H5G14000   0.878   6.071   7.424 -3.0473 -3.5365  1.2231
  130OSM    C6F14001   0.803   6.236   7.564  0.2449  0.3122  0.1032
  130OSM    H6F14002   0.722   6.312   7.555 -2.6415 -2.5971 -0.4247
  130OSM    H6G14003   0.898   6.287   7.592 -0.2353  1.2259  0.1324
  130OSM    C7F14004   0.755   6.145   7.676 -0.4201 -0.0048 -0.3527
  130OSM    H7F14005   0.841   6.075   7.685  1.3859  1.9405 -1.4497
  130OSM    H7G14006   0.667   6.083   7.650 -1.4512  1.1070  0.3832
  130OSM    C8F14007   0.730   6.213   7.811  0.3715 -0.4987 -0.8393
  130OSM    H8F14008   0.808   6.288   7.833  0.9966 -0.7099 -2.2475
  130OSM    H8G14009   0.742   6.135   7.890  0.4530  0.9686  0.6548
  130OSM    C9F14010   0.594   6.281   7.824 -0.0941  0.3080  0.4237
  130OSM    H9F14011   0.531   6.256   7.738  0.2676 -2.9309  1.0027
  130OSM   C10F14012   0.549   6.383   7.896 -0.3234 -0.3722  0.0651
  130OSM   H10F14013   0.447   6.424   7.885  0.3648  1.7086  0.9998
  130OSM   C11F14014   0.633   6.461   7.999 -0.5486 -0.3139  0.3745
  130OSM   H11F14015   0.628   6.569   7.971 -0.4555 -0.6996 -1.2310
  130OSM   H11G14016   0.740   6.431   7.990 -0.6408 -0.0619 -2.5333
  130OSM   C12F14017   0.584   6.463   8.151  0.4408  0.6180 -0.6182
  130OSM   H12F14018   0.477   6.492   8.164 -0.2504 -1.9759  0.1352
  130OSM   H12G14019   0.642   6.546   8.196  0.7763  2.4958 -4.1753
  130OSM   C13F14020   0.610   6.334   8.224  0.5028  0.1055 -0.4832
  130OSM   H13F14021   0.716   6.303   8.219  0.4606  0.1178 -2.7022
  130OSM   H13G14022   0.544   6.249   8.195  0.1250  0.3699 -0.4162
  130OSM   C14F14023   0.576   6.343   8.373  0.0421 -0.1379 -0.7961
  130OSM   H14F14024   0.467   6.365   8.378  0.0484 -0.3786  1.5919
  130OSM   H14G14025   0.640   6.425   8.411 -1.3292 -0.0035  1.3383
  130OSM   C15F14026   0.615   6.222   8.470  0.1673 -0.4006 -0.2863
  130OSM   H15F14027   0.721   6.196   8.453  0.0898 -1.3553  0.6275
  130OSM   H15G14028   0.544   6.141   8.442 -0.9178  0.8424 -1.3414
  130OSM   C16F14029   0.606   6.247   8.618 -0.5039 -0.2597 -0.3259
  130OSM   H16F14030   0.504   6.285   8.642 -0.7046 -0.1451 -1.3189
  130OSM   H16G14031   0.675   6.329   8.646  1.4531 -2.7003  2.5733
  130OSM   C17F14032   0.635   6.123   8.693  0.3724 -0.6873 -0.4339
  130OSM   H17F14033   0.559   6.044   8.673  2.5616 -3.5260  1.5348
  130OSM   H17G14034   0.633   6.136   8.803  2.4453  0.6256 -0.4897
  130OSM   C18F14035   0.771   6.059   8.662 -0.3741  0.2175  0.4222
  130OSM   H18F14036   0.787   6.040   8.554 -0.7572 -0.3058  0.4536
  130OSM   H18G14037   0.773   5.964   8.720 -0.0636 -0.3661 -0.5285
  130OSM   H18H14038   0.858   6.119   8.697 -0.1861 -0.0119  0.3478
  131OSM      N14039   1.103   4.102   6.369 -0.1320  0.6643 -0.4606
  131OSM    C1514040   1.044   4.187   6.263 -0.4612  0.4066 -0.1040
  131OSM   H15A14041   0.977   4.254   6.314  0.6641  0.1640  1.8131
  131OSM   H15B14042   1.002   4.138   6.176 -1.0591  0.1489  0.3182
  131OSM   H15C14043   1.128   4.247   6.230  0.6876 -0.4309  1.1772
  131OSM    C1414044   1.209   4.015   6.309 -0.2611  0.4579 -0.3901
  131OSM   H14A14045   1.160   3.947   6.241 -0.9733  1.0665 -0.4981
  131OSM   H14B14046   1.248   3.946   6.383  2.4792  1.5225 -0.6991
  131OSM   H14C14047   1.290   4.065   6.259 -0.6039 -1.1338 -2.6747
  131OSM    C1314048   1.160   4.189   6.471  0.3854  0.1424  0.3234
  131OSM   H13A14049   1.200   4.126   6.548 -1.0544 -1.8774 -0.5012
  131OSM   H13B14050   1.083   4.250   6.516  0.5106  0.0621  0.6437
  131OSM   H13C14051   1.236   4.253   6.427  0.4365 -1.0848 -1.4863
  131OSM    C1214052   1.004   4.013   6.442  0.0014 -0.4999  0.4264
  131OSM   H12A14053   0.975   3.937   6.371 -0.2125  1.2210 -1.4132
  131OSM   H12B14054   0.913   4.068   6.462  0.2427 -0.0021  0.1940
  131OSM    C1114055   1.052   3.955   6.575  0.8859 -0.0869 -0.1220
  131OSM   H11A14056   0.957   3.907   6.607  2.1626 -3.7425 -1.2812
  131OSM   H11B14057   1.067   4.037   6.648 -0.3932  1.4263 -1.4660
  131OSM      P14058   1.122   3.703   6.520  0.2152 -0.2186 -0.3128
  131OSM    O1314059   1.006   3.685   6.433  0.3946 -0.1994  0.0597
  131OSM    O1414060   1.248   3.623   6.490  0.0252  0.2541  0.3130
  131OSM    O1114061   1.066   3.657   6.661 -0.2658  0.6823 -1.0578
  131OSM    O1214062   1.147   3.856   6.551  0.3402  0.8073  0.2380
  131OSM    C1S14063   1.152   3.653   6.775 -0.3261 -0.6079  0.3366
  131OSM    H1S14064   1.169   3.759   6.801 -1.7866 -0.2575 -0.0141
  131OSM    H1T14065   1.246   3.597   6.755 -0.2905 -0.2719 -0.4653
  131OSM     NF14066   1.185   3.596   7.010 -0.3235  0.1868  0.2591
  131OSM    HNF14067   1.248   3.519   7.017  1.9815  1.7363 -1.6543
  131OSM    C2S14068   1.096   3.576   6.897  0.0404 -0.2530  0.2392
  131OSM    H2S14069   1.002   3.624   6.933  1.0271 -0.9779  4.4003
  131OSM    C3S14070   1.064   3.431   6.858  1.0561  0.1029  0.2517
  131OSM    H3S14071   1.156   3.368   6.862  0.6127 -0.8276 -2.1957
  131OSM     O314072   1.002   3.416   6.727  0.6300 -0.4826 -0.0116
  131OSM    HO314073   1.004   3.508   6.699 -2.1847 -0.5944 -0.8509
  131OSM    C4S14074   0.970   3.377   6.956  0.4753  0.9451 -0.0992
  131OSM    H4S14075   0.871   3.423   6.941 -0.3276 -0.8145 -0.5164
  131OSM    C5S14076   0.994   3.289   7.048 -0.4030 -0.3323  0.4096
  131OSM    H5S14077   1.100   3.260   7.056 -0.1257  0.3341 -0.6428
  131OSM    C6S14078   0.892   3.232   7.154  0.0323 -0.0318 -0.0767
  131OSM    H6S14079   0.876   3.122   7.152 -1.4767  0.1292  1.0786
  131OSM    H6T14080   0.791   3.274   7.134 -0.1531  0.3078  1.4236
  131OSM    C7S14081   0.954   3.269   7.285  0.3931  0.7131 -0.6638
  131OSM    H7S14082   0.977   3.378   7.293  1.0817  0.5311 -0.0330
  131OSM    H7T14083   1.044   3.206   7.300  0.9692  1.1493 -2.1589
  131OSM    C8S14084   0.865   3.215   7.401 -0.3274 -0.4245  0.3013
  131OSM    H8S14085   0.855   3.104   7.396 -1.7854 -0.6377  4.1128
  131OSM    H8T14086   0.764   3.258   7.387 -0.2570  0.3682  1.9870
  131OSM    C9S14087   0.924   3.248   7.539 -0.1233  0.9737 -0.0962
  131OSM    H9S14088   0.951   3.355   7.552  1.2089  0.6053  0.3840
  131OSM    H9T14089   1.021   3.194   7.549 -0.2421  0.9845  1.3560
  131OSM   C10S14090   0.827   3.203   7.646  0.8534  0.0038 -0.0593
  131OSM   H10S14091   0.812   3.094   7.635  1.3540 -0.0171 -0.5506
  131OSM   H10T14092   0.734   3.264   7.639  1.0083  0.4833  1.5550
  131OSM   C11S14093   0.875   3.219   7.791 -0.1065 -0.3375  0.5482
  131OSM   H11S14094   0.969   3.164   7.810  0.2604 -0.2402 -0.8494
  131OSM   H11T14095   0.798   3.181   7.861 -0.2103  2.6103  2.2038
  131OSM   C12S14096   0.873   3.367   7.829  0.0812 -0.7709  0.2360
  131OSM   H12S14097   0.775   3.419   7.828  1.0226  1.2714  2.7553
  131OSM   H12T14098   0.941   3.413   7.755 -1.4934 -1.7652 -1.9195
  131OSM   C13S14099   0.920   3.404   7.978  0.4276  0.6134  1.1219
  131OSM   H13S14100   0.859   3.362   8.061  1.9709  0.8257  2.4102
  131OSM   H13T14101   0.904   3.513   7.987 -0.8137  0.3656  2.2976
  131OSM   C14S14102   1.062   3.360   8.005 -0.0894 -0.1126  0.3968
  131OSM   H14S14103   1.121   3.398   7.919  0.1273  0.9645  0.9964
  131OSM   H14T14104   1.062   3.250   8.016 -0.2447 -0.1623 -0.0995
  131OSM   C15S14105   1.133   3.426   8.129 -0.0145  0.4186 -0.0802
  131OSM   H15S14106   1.096   3.531   8.135 -1.8490 -0.0997 -1.5983
  131OSM   H15T14107   1.241   3.416   8.107  0.2186  0.0649  1.1653
  131OSM   C16S14108   1.117   3.341   8.261 -0.1268 -0.2034  0.4720
  131OSM   H16S14109   1.155   3.239   8.244 -1.6245 -0.5156 -1.3794
  131OSM   H16T14110   1.008   3.330   8.277 -0.3458 -1.3650 -1.4289
  131OSM   C17S14111   1.187   3.385   8.392 -0.1800 -0.5716 -0.0207
  131OSM   H17S14112   1.297   3.367   8.386  0.4917  2.5417  0.9729
  131OSM   H17T14113   1.157   3.328   8.482 -0.7104  0.4796  0.4849
  131OSM   C18S14114   1.170   3.539   8.416 -0.5505 -0.0270  0.1953
  131OSM   H18S14115   1.063   3.549   8.443 -0.3559  0.4382  0.8205
  131OSM   H18T14116   1.188   3.605   8.328  0.4854 -0.4255  0.0987
  131OSM   H18U14117   1.236   3.574   8.498  1.6875  1.9599 -2.2591
  131OSM    C1F14118   1.222   3.707   7.063  0.4454 -0.4216  0.1913
  131OSM     OF14119   1.182   3.812   7.025  0.3970 -0.5589  0.2968
  131OSM    C2F14120   1.333   3.701   7.152 -0.2628  0.2729 -0.4642
  131OSM    H2F14121   1.431   3.681   7.103  0.6676 -0.0471  1.4227
  131OSM    H2G14122   1.325   3.618   7.225 -1.8437  0.9991  0.2363
  131OSM    C3F14123   1.362   3.830   7.229 -0.0479 -0.3428  0.4793
  131OSM    H3F14124   1.275   3.896   7.248  0.6151  1.1355 -1.3511
  131OSM    H3G14125   1.422   3.883   7.152 -1.9949  2.0899  0.5189
  131OSM    C4F14126   1.440   3.814   7.358  0.0463  0.0155  0.1509
  131OSM    H4F14127   1.538   3.765   7.341  1.6127  2.8980  0.0811
  131OSM    H4G14128   1.380   3.742   7.417 -2.7134  0.5557 -1.7898
  131OSM    C5F14129   1.478   3.941   7.436  0.2192  0.5163  0.5918
  131OSM    H5F14130   1.506   4.017   7.360 -0.6632  0.2212 -0.0471
  131OSM    H5G14131   1.566   3.915   7.498 -0.3017 -0.0700  1.0988
  131OSM    C6F14132   1.363   3.982   7.518 -0.0909  0.7402 -0.4956
  131OSM    H6F14133   1.337   3.903   7.591 -1.9542  1.3151 -0.4931
  131OSM    H6G14134   1.275   3.975   7.451 -1.0758 -1.5797  0.9548
  131OSM    C7F14135   1.381   4.117   7.577 -0.3887 -0.2387  0.4635
  131OSM    H7F14136   1.365   4.180   7.486 -0.8364 -1.3150 -0.2180
  131OSM    H7G14137   1.488   4.135   7.601 -0.2935 -1.0628  0.6766
  131OSM    C8F14138   1.291   4.166   7.690 -1.0635 -0.7693  0.2625
  131OSM    H8F14139   1.187   4.147   7.656 -1.0346  1.8255 -1.5679
  131OSM    H8G14140   1.311   4.276   7.688 -0.1931 -0.9295 -0.2056
  131OSM    C9F14141   1.321   4.082   7.818 -0.1572 -0.0714 -0.2891
  131OSM    H9F14142   1.284   3.979   7.810 -0.5641 -0.0516  1.1703
  131OSM   C10F14143   1.365   4.131   7.936  0.4575  0.3758 -0.1434
  131OSM   H10F14144   1.364   4.063   8.023 -0.4161  0.5076 -0.0417
  131OSM   C11F14145   1.405   4.278   7.969 -0.0474  0.2465  0.5274
  131OSM   H11F14146   1.363   4.310   8.066 -0.1874 -0.7748  0.8143
  131OSM   H11G14147   1.373   4.346   7.887 -1.0391 -0.1212  0.5994
  131OSM   C12F14148   1.557   4.297   7.984 -0.4066 -0.0807 -0.0897
  131OSM   H12F14149   1.610   4.283   7.887 -2.4803  2.8067 -1.7972
  131OSM   H12G14150   1.602   4.230   8.060  1.9941  2.2430  0.7112
  131OSM   C13F14151   1.603   4.442   8.035 -0.2859  1.0761  0.3283
  131OSM   H13F14152   1.581   4.514   7.953  0.1073 -0.8361 -1.5539
  131OSM   H13G14153   1.714   4.440   8.041 -0.3042  2.3535  1.5862
  131OSM   C14F14154   1.541   4.481   8.168  0.2643 -0.4601 -0.3902
  131OSM   H14F14155   1.430   4.482   8.163  0.0878  0.2151  2.2476
  131OSM   H14G14156   1.569   4.587   8.188  1.5104 -0.7802 -0.3737
  131OSM   C15F14157   1.568   4.382   8.288 -0.4089  0.0965  0.0338
  131OSM   H15F14158   1.673   4.384   8.324 -0.4504 -0.9455  0.2362
  131OSM   H15G14159   1.550   4.276   8.259  0.8328  0.5023 -2.5100
  131OSM   C16F14160   1.470   4.410   8.402  0.1927  0.4099 -0.5454
  131OSM   H16F14161   1.367   4.399   8.363 -0.3473 -0.2204  0.9986
  131OSM   H16G14162   1.488   4.515   8.434  0.8733 -0.1560  1.0622
  131OSM   C17F14163   1.490   4.316   8.524  0.1481 -0.0250 -0.2350
  131OSM   H17F14164   1.593   4.334   8.561  0.5262 -1.5255 -0.4991
  131OSM   H17G14165   1.472   4.212   8.490 -0.1334 -0.1091  0.1640
  131OSM   C18F14166   1.396   4.357   8.637 -0.1051 -0.2264  0.1793
  131OSM   H18F14167   1.297   4.308   8.623  0.3266 -1.2687  0.6768
  131OSM   H18G14168   1.381   4.467   8.636 -0.4114 -0.2687  0.1200
  131OSM   H18H14169   1.440   4.316   8.731 -1.2557 -2.9085 -0.3587
  132OSM      N14170   3.114   1.168   6.522  0.1809 -0.7218 -0.4369
  132OSM    C1514171   3.215   1.282   6.513 -0.0151  0.8122  0.2765
  132OSM   H15A14172   3.316   1.249   6.494  0.1263 -0.0441  2.2775
  132OSM   H15B14173   3.217   1.355   6.593 -0.2934  1.2106 -0.0760
  132OSM   H15C14174   3.198   1.341   6.424  3.0875  1.3213 -0.0887
  132OSM    C1414175   2.983   1.221   6.575 -0.3208 -0.5386  0.4210
  132OSM   H14A14176   2.909   1.143   6.589 -2.1268  1.0766  0.2747
  132OSM   H14B14177   2.940   1.291   6.505  0.1137 -0.3826  0.3094
  132OSM   H14C14178   3.001   1.272   6.669 -0.0533 -1.5791  0.9509
  132OSM    C1314179   3.105   1.111   6.387 -0.0481 -0.1692  0.2238
  132OSM   H13A14180   3.055   1.016   6.398 -1.2058  0.2070 -1.3737
  132OSM   H13B14181   3.196   1.096   6.332 -1.2284 -0.7187 -1.6739
  132OSM   H13C14182   3.030   1.164   6.329  0.0337  0.4899  0.7090
  132OSM    C1214183   3.160   1.072   6.621 -0.7235  0.1124 -0.2900
  132OSM   H12A14184   3.183   1.123   6.713  0.9632 -1.1957  0.0773
  132OSM   H12B14185   3.255   1.034   6.585 -0.1941 -0.2018  1.3540
  132OSM    C1114186   3.067   0.953   6.654  0.0772  0.4038  1.0134
  132OSM   H11A14187   2.967   0.986   6.689 -0.5866 -1.1046  0.6218
  132OSM   H11B14188   3.103   0.888   6.736 -1.8918  0.4619  1.9940
  132OSM      P14189   3.081   0.726   6.519  0.1879 -0.0755 -0.5290
  132OSM    O1314190   2.987   0.647   6.435  0.3298  0.5228  0.2768
  132OSM    O1414191   3.221   0.740   6.466 -0.2875 -0.0584  0.0355
  132OSM    O1114192   3.072   0.661   6.661  0.3436 -0.7565  1.1146
  132OSM    O1214193   3.037   0.882   6.530 -0.0875  0.6881  0.3772
  132OSM    C1S14194   2.941   0.668   6.722  0.6439  0.3431  0.6331
  132OSM    H1S14195   2.872   0.607   6.660  1.9435  2.1443 -2.9005
  132OSM    H1T14196   2.900   0.771   6.721  0.7410  0.4371 -2.0633
  132OSM     NF14197   2.826   0.620   6.942 -0.7565  0.0012  0.4452
  132OSM    HNF14198   2.830   0.699   7.002  1.0846 -0.9889  1.7325
  132OSM    C2S14199   2.945   0.597   6.862  0.5093 -0.5350  0.8280
  132OSM    H2S14200   2.967   0.488   6.852  1.7183 -0.1878 -0.7910
  132OSM    C3S14201   3.072   0.651   6.945  0.2705  0.0024  0.0222
  132OSM    H3S14202   3.041   0.753   6.977  0.1777 -0.1279  0.3549
  132OSM     O314203   3.193   0.676   6.877 -0.3970 -0.5034 -0.1071
  132OSM    HO314204   3.176   0.655   6.785 -0.6578  1.8740 -0.6654
  132OSM    C4S14205   3.100   0.567   7.073  0.9151 -0.0013  0.6990
  132OSM    H4S14206   3.034   0.593   7.158  4.0906  0.9255  3.0869
  132OSM    C5S14207   3.184   0.465   7.094 -0.2046  0.1096 -0.1397
  132OSM    H5S14208   3.241   0.427   7.008  0.1375  0.6984 -0.1714
  132OSM    C6S14209   3.187   0.393   7.229  0.4938 -1.2851 -0.5314
  132OSM    H6S14210   3.201   0.285   7.208  1.9584 -1.0369 -0.9298
  132OSM    H6T14211   3.084   0.412   7.268  0.9550  0.2589 -0.0094
  132OSM    C7S14212   3.267   0.435   7.352  0.5510 -0.2910 -0.1504
  132OSM    H7S14213   3.260   0.545   7.364  3.6521 -0.1931  1.7565
  132OSM    H7T14214   3.373   0.404   7.337  0.5633 -0.7025  0.7195
  132OSM    C8S14215   3.237   0.347   7.471  0.1248 -0.0472 -1.0985
  132OSM    H8S14216   3.293   0.251   7.468 -1.5348 -1.0789 -0.6491
  132OSM    H8T14217   3.128   0.326   7.477  0.3167 -0.6242  1.7540
  132OSM    C9S14218   3.268   0.420   7.606  0.1442  0.2524 -0.6130
  132OSM    H9S14219   3.235   0.526   7.594 -0.1234  0.2747  0.2755
  132OSM    H9T14220   3.376   0.424   7.632  0.0158 -2.9832  0.9217
  132OSM   C10S14221   3.186   0.373   7.734  0.1786  0.0437 -0.1483
  132OSM   H10S14222   3.196   0.263   7.743  0.1194  0.1378  1.2170
  132OSM   H10T14223   3.082   0.401   7.709 -0.1264 -3.6881 -4.3545
  132OSM   C11S14224   3.224   0.455   7.858 -0.0070  0.4786 -0.2086
  132OSM   H11S14225   3.218   0.563   7.832  0.2935  1.3801  2.9976
  132OSM   H11T14226   3.327   0.444   7.897  0.9526  0.6502 -2.5663
  132OSM   C12S14227   3.129   0.433   7.972  0.9813 -0.7579  0.2444
  132OSM   H12S14228   3.142   0.330   8.013 -1.1211 -1.4915 -0.7860
  132OSM   H12T14229   3.024   0.446   7.938  1.2586  1.7087  0.1600
  132OSM   C13S14230   3.141   0.533   8.088  0.3328  0.1972 -0.6828
  132OSM   H13S14231   3.140   0.634   8.041 -2.1598  0.1940 -0.7926
  132OSM   H13T14232   3.231   0.502   8.146  0.0158 -0.9237 -0.7588
  132OSM   C14S14233   3.020   0.526   8.184  0.4329  0.2840 -0.4228
  132OSM   H14S14234   3.008   0.422   8.221  0.1970  0.9629  1.5100
  132OSM   H14T14235   2.929   0.554   8.125  0.4872  0.2335 -0.5315
  132OSM   C15S14236   3.039   0.629   8.299  0.4637 -0.5092  0.5555
  132OSM   H15S14237   3.077   0.728   8.263 -1.1218 -0.4289 -1.0131
  132OSM   H15T14238   3.125   0.589   8.357  0.7406  1.1243  1.3480
  132OSM   C16S14239   2.926   0.646   8.394  0.1006  0.1145 -0.6184
  132OSM   H16S14240   2.955   0.713   8.479 -1.3989  0.7773 -0.6109
  132OSM   H16T14241   2.897   0.548   8.436 -0.2655  1.0548  1.4440
  132OSM   C17S14242   2.803   0.714   8.328 -0.3045 -1.0853 -0.1395
  132OSM   H17S14243   2.811   0.695   8.219 -0.6498  0.1594 -0.3979
  132OSM   H17T14244   2.810   0.825   8.335 -0.1769 -1.1565  1.1194
  132OSM   C18S14245   2.671   0.662   8.390 -0.1287  0.0807 -0.1556
  132OSM   H18S14246   2.667   0.551   8.381 -2.8643 -0.0650  1.8325
  132OSM   H18T14247   2.586   0.704   8.332  0.6970  1.6596 -0.2635
  132OSM   H18U14248   2.658   0.686   8.497 -1.4253  0.5764 -0.4154
  132OSM    C1F14249   2.703   0.573   6.920 -0.3950 -0.7179 -0.6825
  132OSM     OF14250   2.673   0.501   6.828 -0.0910 -0.1698  0.1958
  132OSM    C2F14251   2.606   0.632   7.020  0.2862 -0.5605  0.3915
  132OSM    H2F14252   2.541   0.701   6.963  0.7308 -0.7931 -0.4189
  132OSM    H2G14253   2.658   0.691   7.098 -0.3162 -0.5983  0.8296
  132OSM    C3F14254   2.528   0.522   7.095 -0.3472 -0.2457 -0.4862
  132OSM    H3F14255   2.598   0.437   7.109  0.6159  0.6246  0.1504
  132OSM    H3G14256   2.453   0.475   7.029  0.5768 -3.3467  0.5096
  132OSM    C4F14257   2.462   0.559   7.221 -0.0540  0.1234 -0.7080
  132OSM    H4F14258   2.386   0.483   7.249 -1.2677  1.6542  0.3233
  132OSM    H4G14259   2.391   0.639   7.193 -0.1898 -0.1538 -1.1545
  132OSM    C5F14260   2.553   0.595   7.339  0.2988  0.4023  0.2378
  132OSM    H5F14261   2.482   0.596   7.425 -1.2828 -1.0469 -0.9863
  132OSM    H5G14262   2.605   0.693   7.333  1.3468  0.0263  2.3593
  132OSM    C6F14263   2.670   0.497   7.366  0.1591  0.2619 -0.0909
  132OSM    H6F14264   2.737   0.496   7.277 -0.2288 -2.8250 -0.4572
  132OSM    H6G14265   2.630   0.393   7.362 -1.1083  0.6116  2.0250
  132OSM    C7F14266   2.741   0.514   7.498  0.1712 -0.5211 -0.8145
  132OSM    H7F14267   2.790   0.418   7.522 -0.3162 -0.4678  0.5243
  132OSM    H7G14268   2.662   0.530   7.575 -0.1271 -1.2208 -0.9692
  132OSM    C8F14269   2.848   0.636   7.503 -0.4104  0.1967  0.1988
  132OSM    H8F14270   2.786   0.728   7.503 -0.9691 -0.0657  3.0941
  132OSM    H8G14271   2.917   0.619   7.418  0.6091 -1.3528  1.2654
  132OSM    C9F14272   2.939   0.624   7.619  0.5397 -0.5122  0.3019
  132OSM    H9F14273   3.025   0.563   7.589  2.0916  0.8471  1.7473
  132OSM   C10F14274   2.932   0.684   7.740 -0.3731 -0.5820 -0.7533
  132OSM   H10F14275   3.019   0.664   7.805 -1.4001 -0.4233  0.7134
  132OSM   C11F14276   2.827   0.775   7.801  0.1049 -0.0442  0.1352
  132OSM   H11F14277   2.728   0.757   7.752 -0.1936 -2.1092  1.3766
  132OSM   H11G14278   2.863   0.878   7.779  2.0287 -0.5077  0.9195
  132OSM   C12F14279   2.800   0.758   7.956 -1.2356  0.5408 -0.2926
  132OSM   H12F14280   2.893   0.804   7.996 -0.1534  0.0978 -2.1324
  132OSM   H12G14281   2.791   0.650   7.982  0.3838  0.9899  2.5711
  132OSM   C13F14282   2.668   0.826   7.999  0.0484  0.0399 -0.2556
  132OSM   H13F14283   2.654   0.792   8.104  0.5678 -0.7100 -0.4225
  132OSM   H13G14284   2.588   0.790   7.930 -1.8313  0.8617  1.3727
  132OSM   C14F14285   2.668   0.979   7.986  0.0566 -0.5274 -0.3665
  132OSM   H14F14286   2.645   1.008   7.882 -0.8197  1.0877  0.2469
  132OSM   H14G14287   2.774   1.012   7.998  0.4043 -1.4443 -0.8320
  132OSM   C15F14288   2.585   1.048   8.102 -0.2601 -0.1703 -0.1217
  132OSM   H15F14289   2.616   1.153   8.122  0.4954  0.1771 -2.7306
  132OSM   H15G14290   2.609   0.994   8.197  0.0437  2.5153  1.4276
  132OSM   C16F14291   2.439   1.062   8.065  0.2852  0.0953  0.3075
  132OSM   H16F14292   2.386   0.965   8.060  0.8768 -0.2402  0.5817
  132OSM   H16G14293   2.439   1.098   7.960  0.5274  0.3182  0.3835
  132OSM   C17F14294   2.374   1.175   8.160 -0.1563  0.4846 -0.0115
  132OSM   H17F14295   2.273   1.197   8.119  0.1106 -0.7878 -1.4592
  132OSM   H17G14296   2.439   1.264   8.142  0.9374 -0.0327  1.1905
  132OSM   C18F14297   2.359   1.142   8.310 -0.3851 -0.4519  1.0442
  132OSM   H18F14298   2.281   1.064   8.326  0.0186 -0.7389  1.6753
  132OSM   H18G14299   2.331   1.236   8.362 -2.6256  0.8692 -2.2596
  132OSM   H18H14300   2.451   1.096   8.354  0.6522 -1.4418 -1.9121
  133SAPE     N14301   5.341   6.566  11.033 -0.2433 -0.0592  0.6217
  133SAPE   HN114302   5.423   6.557  11.097 -0.8186  1.3138  1.6185
  133SAPE   HN214303   5.359   6.526  10.939 -1.3692 -0.0925  0.3976
  133SAPE   HN314304   5.325   6.666  11.011  0.1585 -0.6257 -2.7339
  133SAPE   C1214305   5.218   6.511  11.086 -0.5225 -0.7525  0.3610
  133SAPE  H12A14306   5.157   6.594  11.127 -0.8749 -1.4465  1.2549
  133SAPE  H12B14307   5.245   6.444  11.171  0.4788  0.8017  1.3264
  133SAPE   C1114308   5.146   6.439  10.971  0.2958 -0.0513  0.6852
  133SAPE  H11A14309   5.118   6.520  10.900  0.5742 -0.7775 -0.2737
  133SAPE  H11B14310   5.054   6.402  11.022  1.3199 -0.4303  2.3395
  133SAPE     P14311   5.206   6.193  10.893  0.1766 -0.1748 -0.1836
  133SAPE   O1314312   5.338   6.138  10.866 -0.1968 -0.6998 -0.1533
  133SAPE   O1414313   5.136   6.145  11.010  0.0719  0.4438  0.5947
  133SAPE   O1214314   5.224   6.346  10.897 -0.0861  0.0980  0.1820
  133SAPE   O1114315   5.116   6.167  10.762  0.0143 -0.5446 -0.5016
  133SAPE    C114316   5.140   6.220  10.636  0.4903  0.5755  0.0611
  133SAPE    HA14317   5.189   6.320  10.630 -0.6686  1.1353 -0.3103
  133SAPE    HB14318   5.206   6.152  10.578 -0.0055  0.9526 -0.9712
  133SAPE    C214319   5.011   6.237  10.551  0.3396 -0.1835  0.4153
  133SAPE    HS14320   4.960   6.139  10.546  0.8068 -0.6051  2.7452
  133SAPE   O2114321   5.037   6.293  10.421  0.5046 -0.1759  0.9733
  133SAPE   C2114322   5.116   6.224  10.340 -0.1152 -0.5783  0.0890
  133SAPE   O2214323   5.152   6.112  10.354 -0.1187 -0.1863 -0.1932
  133SAPE   C2214324   5.145   6.300  10.210 -0.1782 -0.0626  0.8602
  133SAPE   H2R14325   5.130   6.409  10.224  1.3938  0.3824 -0.6294
  133SAPE   H2S14326   5.250   6.274  10.182 -1.1028 -2.2254 -0.8997
  133SAPE    C314327   4.914   6.332  10.627 -0.8349 -0.0288 -0.5874
  133SAPE    HX14328   4.967   6.414  10.680 -1.4662 -0.8539  1.3776
  133SAPE    HY14329   4.889   6.272  10.717  4.0056 -1.6947 -0.0621
  133SAPE   O3114330   4.797   6.350  10.556 -0.7289 -0.5194  0.2943
  133SAPE   C3114331   4.779   6.471  10.509 -0.4062  0.1793 -0.2825
  133SAPE   O3214332   4.851   6.566  10.522 -0.4685  0.0508 -0.0987
  133SAPE   C3214333   4.651   6.465  10.425  0.0640 -0.3934 -0.0248
  133SAPE   H2X14334   4.583   6.528  10.486  1.9356  1.0956  0.6298
  133SAPE   H2Y14335   4.614   6.361  10.410 -2.0717  0.2065  0.6589
  133SAPE   C2314336   5.048   6.263  10.095  0.3769  0.4090 -0.3106
  133SAPE   H3R14337   5.052   6.350  10.027 -2.3584  1.4337  0.7294
  133SAPE   H3S14338   4.940   6.256  10.122  1.1675 -2.1612  2.8575
  133SAPE   C2414339   5.103   6.138  10.013  0.8583  0.5968 -0.0583
  133SAPE   H4R14340   5.103   6.050  10.080  1.1050  1.3706  0.9786
  133SAPE   H4S14341   5.204   6.175   9.984  1.8708  0.3197  2.8161
  133SAPE   C2514342   5.031   6.104   9.886 -0.0461  0.7475  0.4448
  133SAPE   H5R14343   5.075   6.014   9.841  1.4565  1.3125  0.7357
  133SAPE   C2614344   4.924   6.160   9.820 -0.1415 -1.0330 -0.3966
  133SAPE   H6R14345   4.912   6.109   9.723  2.7840 -0.7456 -1.0091
  133SAPE   C2714346   4.834   6.279   9.843 -0.6938 -0.0736 -0.7091
  133SAPE   H7R14347   4.899   6.369   9.836 -1.4417  0.9531  3.1669
  133SAPE   H7S14348   4.808   6.291   9.950  1.1676 -1.1609 -0.0991
  133SAPE   C2814349   4.712   6.283   9.761  0.0948 -0.5038  0.3094
  133SAPE   H8R14350   4.620   6.241   9.804 -0.0672  0.1704  0.6315
  133SAPE   C2914351   4.704   6.334   9.631 -0.1406 -0.4473  0.3289
  133SAPE   H9R14352   4.607   6.340   9.578 -1.7365  0.0010  3.1245
  133SAPE  C21014353   4.817   6.393   9.558 -0.0529 -0.8378  0.8079
  133SAPE  H10R14354   4.840   6.491   9.605  1.5779 -0.1668 -1.1937
  133SAPE  H10S14355   4.781   6.418   9.456 -2.2605 -0.8740  1.5323
  133SAPE  C21114356   4.954   6.332   9.535 -0.3532  0.9965 -0.4816
  133SAPE  H11R14357   5.028   6.381   9.600  1.4532 -0.2495 -1.5147
  133SAPE  C21214358   4.980   6.232   9.450  0.3888  0.2692  0.5849
  133SAPE  H12R14359   5.080   6.188   9.438 -0.0232  0.1271 -3.9926
  133SAPE  C21314360   4.884   6.161   9.364  0.0537 -0.2296 -0.0281
  133SAPE  H13R14361   4.926   6.132   9.265 -1.9660 -0.4711 -0.8588
  133SAPE  H13S14362   4.797   6.224   9.336  0.9235  1.2447  0.4699
  133SAPE  C21414363   4.832   6.038   9.441 -0.1447  0.0331 -0.0962
  133SAPE  H14R14364   4.744   6.054   9.504  0.1008 -0.9657  0.5178
  133SAPE  C21514365   4.878   5.915   9.420  1.0243  0.2729 -0.4116
  133SAPE  H15R14366   4.850   5.832   9.488 -1.3912 -0.6266 -2.3732
  133SAPE  C21614367   4.988   5.869   9.332  0.4597 -0.6037  0.3449
  133SAPE  H16R14368   5.018   5.948   9.259  0.8561 -1.6991 -0.7050
  133SAPE  H16S14369   4.952   5.790   9.263 -0.5474 -1.1474  1.4721
  133SAPE  C21714370   5.119   5.814   9.393 -0.0855 -0.0687  0.4592
  133SAPE  H17R14371   5.166   5.899   9.446 -2.9661  1.8881  0.0939
  133SAPE  H17S14372   5.192   5.774   9.319  0.2863 -1.4786  1.5372
  133SAPE  C21814373   5.085   5.710   9.501 -0.9182 -0.0097  0.9699
  133SAPE  H18R14374   5.004   5.651   9.454 -0.0551 -1.2067  0.9556
  133SAPE  H18S14375   5.041   5.760   9.590  0.7632  2.0623  0.7125
  133SAPE  C21914376   5.212   5.635   9.536 -0.7951  0.0318 -0.4425
  133SAPE  H19R14377   5.270   5.597   9.449  1.3670  1.5912  0.2194
  133SAPE  H19S14378   5.182   5.539   9.584 -1.7320  1.2636  1.5379
  133SAPE  C22014379   5.305   5.715   9.630 -0.2416  0.5422  0.0167
  133SAPE  H20R14380   5.249   5.744   9.722 -0.6475 -0.6977  0.1817
  133SAPE  H20S14381   5.348   5.806   9.583  1.5414  0.5076  1.5030
  133SAPE  H20T14382   5.395   5.658   9.659  1.7570  2.7298 -1.4821
  133SAPE   C3314383   4.675   6.537  10.285  0.3376 -0.4283 -0.4377
  133SAPE   H3X14384   4.741   6.469  10.227 -0.6569 -1.9317  0.1355
  133SAPE   H3Y14385   4.721   6.636  10.306 -1.5771  0.3029  0.5618
  133SAPE   C3414386   4.545   6.561  10.199  0.4527 -0.9051 -0.4229
  133SAPE   H4X14387   4.478   6.611  10.272 -0.0641 -1.3318 -0.5999
  133SAPE   H4Y14388   4.497   6.464  10.176 -1.6798 -1.0840  3.8858
  133SAPE   C3514389   4.580   6.640  10.074 -0.4595  0.4284  0.0208
  133SAPE   H5X14390   4.636   6.577  10.003 -0.8487 -0.9323  0.8854
  133SAPE   H5Y14391   4.644   6.726  10.103 -0.9384  0.3619  1.3752
  133SAPE   C3614392   4.452   6.691  10.007  0.2649  0.4343 -0.6116
  133SAPE   H6X14393   4.390   6.747  10.080 -0.7079 -2.7997  1.2659
  133SAPE   H6Y14394   4.390   6.605   9.974 -1.4666  0.5275  2.0476
  133SAPE   C3714395   4.479   6.778   9.884  1.1422  0.2794  0.3476
  133SAPE   H7X14396   4.570   6.728   9.845  1.5980  1.4782 -0.1628
  133SAPE   H7Y14397   4.514   6.879   9.916  0.6788  0.6049 -0.1636
  133SAPE   C3814398   4.378   6.772   9.772 -0.3490 -0.3177 -0.3249
  133SAPE   H8X14399   4.281   6.795   9.820 -0.3186 -2.2887  0.7770
  133SAPE   H8Y14400   4.366   6.669   9.732  3.5972 -1.2049  0.3554
  133SAPE   C3914401   4.401   6.875   9.665  0.5487 -0.4651  0.1575
  133SAPE   H9X14402   4.508   6.867   9.637  0.8046  0.3010  0.8488
  133SAPE   H9Y14403   4.379   6.970   9.720 -0.0895  0.5045 -1.6775
  133SAPE  C31014404   4.309   6.856   9.544  0.4817  0.3218  0.4870
  133SAPE  H10X14405   4.301   6.950   9.484 -0.1878 -0.5491 -0.8310
  133SAPE  H10Y14406   4.207   6.828   9.576 -0.4887  2.1262 -0.8251
  133SAPE  C31114407   4.358   6.757   9.436 -0.1129 -0.0292 -0.4576
  133SAPE  H11X14408   4.365   6.658   9.485 -2.7022 -0.0052  0.1056
  133SAPE  H11Y14409   4.448   6.800   9.386 -0.7103  0.3790 -1.2157
  133SAPE  C31214410   4.248   6.726   9.319 -0.4747 -0.0456 -0.3210
  133SAPE  H12X14411   4.309   6.684   9.236  1.0447  1.7323 -0.1540
  133SAPE  H12Y14412   4.204   6.825   9.292  0.9019  0.4705 -0.7548
  133SAPE  C31314413   4.133   6.632   9.345  0.5893 -0.0653 -0.4476
  133SAPE  H13X14414   4.057   6.674   9.415  1.6306  0.0995  0.6302
  133SAPE  H13Y14415   4.181   6.545   9.395 -0.1954  0.8168  2.0014
  133SAPE  C31414416   4.059   6.575   9.226 -0.1226  0.1373 -0.2464
  133SAPE  H14X14417   4.116   6.542   9.136 -1.5773  0.5502 -1.3567
  133SAPE  H14Y14418   4.012   6.664   9.179  0.9100  0.0081 -1.6143
  133SAPE  C31514419   3.952   6.472   9.263  0.3505  0.5219 -0.6357
  133SAPE  H15X14420   3.878   6.521   9.329 -2.4115 -1.3236 -2.1742
  133SAPE  H15Y14421   3.993   6.388   9.323 -2.5941 -1.4855 -1.2281
  133SAPE  C31614422   3.864   6.407   9.152  0.7066  0.0828 -0.0799
  133SAPE  H16X14423   3.925   6.342   9.087 -0.2359 -1.1755  0.2545
  133SAPE  H16Y14424   3.825   6.481   9.079  1.7199 -0.2868 -1.0273
  133SAPE  C31714425   3.739   6.328   9.200  0.4649 -0.0779 -0.3691
  133SAPE  H17X14426   3.672   6.323   9.112  0.3249  0.7999 -0.3166
  133SAPE  H17Y14427   3.688   6.375   9.286  0.4570 -1.1219  0.2129
  133SAPE  C31814428   3.772   6.182   9.248 -0.1350  0.3621  0.6201
  133SAPE  H18X14429   3.836   6.197   9.338 -0.5815  0.5888  0.9010
  133SAPE  H18Y14430   3.835   6.131   9.172 -0.8077 -1.6562  1.3743
  133SAPE  H18Z14431   3.683   6.120   9.268  0.1690 -0.1884  0.2855
  134SAPE     N14432   0.271   6.326  10.987 -0.1161  0.1536  0.4886
  134SAPE   HN114433   0.303   6.228  10.998  0.8126  0.6413  2.4645
  134SAPE   HN214434   0.178   6.338  10.942  0.5923  1.9142 -0.6101
  134SAPE   HN314435   0.333   6.382  10.925 -1.8653  1.0425 -0.5779
  134SAPE   C1214436   0.269   6.392  11.125 -0.6201  0.3290  0.4363
  134SAPE  H12A14437   0.216   6.326  11.198  0.8339 -0.5338  0.7504
  134SAPE  H12B14438   0.219   6.491  11.123 -0.0294  0.6610  1.6247
  134SAPE   C1114439   0.414   6.410  11.176 -0.1525  0.4018  0.2409
  134SAPE  H11A14440   0.440   6.304  11.197 -0.7008  0.2367  0.0993
  134SAPE  H11B14441   0.417   6.464  11.273  0.9468  1.2779 -0.2503
  134SAPE     P14442   0.662   6.449  11.092 -0.2305 -0.0956 -0.2517
  134SAPE   O1314443   0.701   6.411  11.228 -0.0149 -0.0270 -0.2119
  134SAPE   O1414444   0.709   6.360  10.976  0.3555  0.3562 -0.8284
  134SAPE   O1214445   0.503   6.466  11.078 -0.1322 -0.0716  0.2977
  134SAPE   O1114446   0.697   6.605  11.077  0.0387  0.0491  0.0880
  134SAPE    C114447   0.658   6.689  10.968 -0.9731 -0.2895 -0.1566
  134SAPE    HA14448   0.547   6.696  10.975 -1.3772 -0.2279 -4.3532
  134SAPE    HB14449   0.701   6.790  10.980 -0.2658 -0.6532  0.4807
  134SAPE    C214450   0.702   6.640  10.826 -0.7863 -0.3366  1.1630
  134SAPE    HS14451   0.638   6.549  10.820 -0.0910 -0.7744  0.1464
  134SAPE   O2114452   0.845   6.610  10.832  0.4781  0.7990  0.0037
  134SAPE   C2114453   0.874   6.501  10.759 -0.2704 -0.4426  0.4406
  134SAPE   O2214454   0.789   6.434  10.701 -0.2514 -0.5325  0.4593
  134SAPE   C2214455   1.021   6.482  10.754 -0.0598  0.5780 -0.1587
  134SAPE   H2R14456   1.074   6.560  10.695 -0.1541 -0.5413 -1.8108
  134SAPE   H2S14457   1.047   6.500  10.860 -1.5469  0.0117  0.3203
  134SAPE    C314458   0.649   6.737  10.713  0.2512 -0.2382 -0.5574
  134SAPE    HX14459   0.709   6.829  10.731 -0.0224 -0.3172  0.8657
  134SAPE    HY14460   0.543   6.756  10.741  0.7217  1.4200  0.1971
  134SAPE   O3114461   0.670   6.701  10.576  0.6003  0.0578 -0.5349
  134SAPE   C3114462   0.590   6.603  10.531 -0.2852  0.4176  0.1746
  134SAPE   O3214463   0.495   6.555  10.598 -0.2137  0.0747  0.0761
  134SAPE   C3214464   0.630   6.552  10.399 -0.5336 -0.1326 -0.0278
  134SAPE   H2X14465   0.545   6.543  10.328  0.0439 -0.8890 -0.6422
  134SAPE   H2Y14466   0.667   6.448  10.398 -1.7825 -0.6275 -2.3166
  134SAPE   C2314467   1.055   6.331  10.711 -0.1592  0.5025  0.8110
  134SAPE   H3R14468   1.012   6.255  10.779  0.2460  0.0985  0.6232
  134SAPE   H3S14469   1.165   6.331  10.727  0.4409 -0.7219 -2.4806
  134SAPE   C2414470   1.030   6.288  10.561 -0.2910 -0.2273 -0.4288
  134SAPE   H4R14471   0.920   6.279  10.551 -0.6288  0.6235  1.9204
  134SAPE   H4S14472   1.080   6.191  10.541  0.4263  0.4792 -2.2993
  134SAPE   C2514473   1.082   6.375  10.449 -0.2916  0.0920 -1.7833
  134SAPE   H5R14474   1.112   6.477  10.477  2.1125 -1.3292  1.3682
  134SAPE   C2614475   1.090   6.339  10.319  0.7891 -0.4758 -0.5927
  134SAPE   H6R14476   1.108   6.417  10.244  0.0667  1.9502  1.5900
  134SAPE   C2714477   1.050   6.207  10.261  0.1044  0.1057 -0.0697
  134SAPE   H7R14478   1.013   6.136  10.337 -1.9103 -1.4699 -2.3444
  134SAPE   H7S14479   1.136   6.154  10.215 -0.0343 -0.0520 -0.1509
  134SAPE   C2814480   0.945   6.234  10.154 -0.6129 -0.3178 -0.0230
  134SAPE   H8R14481   0.844   6.224  10.195  0.3506 -1.5228  2.2809
  134SAPE   C2914482   0.963   6.248  10.020  0.2255  1.1652 -0.3551
  134SAPE   H9R14483   0.870   6.270   9.966 -0.6721 -0.4773  0.4257
  134SAPE  C21014484   1.093   6.244   9.944  0.4667 -0.1875  0.5472
  134SAPE  H10R14485   1.175   6.219  10.014  0.7039  0.3327  0.4568
  134SAPE  H10S14486   1.119   6.346   9.908 -1.3876 -0.3123 -1.3761
  134SAPE  C21114487   1.104   6.144   9.828 -0.1112 -0.3536  0.1882
  134SAPE  H11R14488   1.106   6.037   9.854 -1.4212 -0.7067 -1.0394
  134SAPE  C21214489   1.111   6.166   9.700 -0.2655 -1.1667  0.2217
  134SAPE  H12R14490   1.111   6.083   9.628 -2.3759 -0.3552 -0.8018
  134SAPE  C21314491   1.096   6.303   9.638  0.0426 -0.2826  0.0157
  134SAPE  H13R14492   1.058   6.377   9.711 -2.0418 -0.6401 -0.6366
  134SAPE  H13S14493   1.009   6.295   9.569 -0.4123 -1.5992  0.7116
  134SAPE  C21414494   1.217   6.356   9.564  0.5508 -0.9320 -0.6260
  134SAPE  H14R14495   1.313   6.311   9.596  0.2932 -0.4532  0.8892
  134SAPE  C21514496   1.223   6.440   9.458 -0.1685 -0.4629 -0.6195
  134SAPE  H15R14497   1.319   6.459   9.409 -0.5540  0.5289 -1.0105
  134SAPE  C21614498   1.100   6.497   9.395  0.1346  0.3044  0.2786
  134SAPE  H16R14499   1.034   6.536   9.476  1.1125  0.8354  0.8555
  134SAPE  H16S14500   1.040   6.422   9.341 -0.1589  0.0198  0.9818
  134SAPE  C21714501   1.092   6.622   9.300 -0.0497  0.6997 -0.2958
  134SAPE  H17R14502   1.134   6.703   9.364  0.9693 -0.3862  0.4526
  134SAPE  H17S14503   0.985   6.648   9.286  0.1788  0.5530 -2.7881
  134SAPE  C21814504   1.151   6.596   9.167  0.2148 -0.1505 -0.1703
  134SAPE  H18R14505   1.154   6.694   9.114 -1.4994 -0.9793 -1.9130
  134SAPE  H18S14506   1.088   6.524   9.111  0.3842 -0.3562 -0.0947
  134SAPE  C21914507   1.303   6.551   9.154 -0.0597 -0.0005 -0.0261
  134SAPE  H19R14508   1.300   6.441   9.161  3.1020 -0.1660 -0.0598
  134SAPE  H19S14509   1.356   6.597   9.240  0.1435 -0.1782 -0.0573
  134SAPE  C22014510   1.379   6.599   9.027 -0.5198  0.8494  0.1059
  134SAPE  H20R14511   1.485   6.566   9.038 -0.5346  0.5675 -0.5778
  134SAPE  H20S14512   1.378   6.710   9.024 -1.2218  0.8162 -1.5111
  134SAPE  H20T14513   1.333   6.553   8.937  0.6401 -2.3325  0.9964
  134SAPE   C3314514   0.743   6.639  10.324 -0.2399 -0.1797  0.0159
  134SAPE   H3X14515   0.824   6.659  10.397 -0.3716 -1.4036  0.5345
  134SAPE   H3Y14516   0.695   6.735  10.297  1.7434  0.5512 -1.0969
  134SAPE   C3414517   0.795   6.573  10.199  0.4962  0.3326 -0.6019
  134SAPE   H4X14518   0.701   6.562  10.140  0.5338  0.1271 -0.6254
  134SAPE   H4Y14519   0.838   6.473  10.221 -0.1307  0.1299 -0.2885
  134SAPE   C3514520   0.909   6.659  10.136 -0.4747  0.0548  0.0219
  134SAPE   H5X14521   1.000   6.658  10.199  0.4965 -2.1151 -1.3093
  134SAPE   H5Y14522   0.861   6.756  10.108 -0.5231  0.4014  1.2415
  134SAPE   C3614523   0.965   6.594  10.003  0.2424  0.2394 -0.0051
  134SAPE   H6X14524   1.022   6.509  10.044  3.2512  2.2096  0.1789
  134SAPE   H6Y14525   1.043   6.667   9.972  0.1037  0.4478  0.1323
  134SAPE   C3714526   0.870   6.570   9.887  0.1027 -0.7564  0.6313
  134SAPE   H7X14527   0.784   6.508   9.920 -0.4536 -1.3397 -1.7083
  134SAPE   H7Y14528   0.934   6.514   9.816 -1.0740  0.4901 -1.5131
  134SAPE   C3814529   0.814   6.703   9.822 -0.3876  0.8741  0.1251
  134SAPE   H8X14530   0.896   6.776   9.837 -0.7369  0.8071  2.9716
  134SAPE   H8Y14531   0.727   6.742   9.879 -0.3270 -1.9755  2.4067
  134SAPE   C3914532   0.789   6.690   9.668 -0.3080 -0.7098  0.1383
  134SAPE   H9X14533   0.742   6.595   9.635  0.2995 -0.4776 -1.4878
  134SAPE   H9Y14534   0.887   6.696   9.615 -0.2246 -1.1415  0.2383
  134SAPE  C31014535   0.714   6.807   9.604  0.6408 -1.1286  0.1362
  134SAPE  H10X14536   0.770   6.903   9.599 -0.0595 -0.7706 -1.0620
  134SAPE  H10Y14537   0.630   6.824   9.675  1.7336 -0.5807  1.3383
  134SAPE  C31114538   0.658   6.783   9.463 -0.1175  0.3814 -0.7489
  134SAPE  H11X14539   0.563   6.728   9.474 -0.3025  0.2188 -2.8279
  134SAPE  H11Y14540   0.725   6.716   9.404  0.1009  0.3350 -0.4519
  134SAPE  C31214541   0.618   6.909   9.396 -0.2204 -0.5752 -0.0896
  134SAPE  H12X14542   0.710   6.971   9.382 -0.5750  1.0084  3.3647
  134SAPE  H12Y14543   0.553   6.960   9.470  2.1466 -1.7269  3.0525
  134SAPE  C31314544   0.545   6.895   9.262  0.5636  0.7659 -0.6816
  134SAPE  H13X14545   0.455   6.832   9.280 -0.2144  1.2945 -2.5457
  134SAPE  H13Y14546   0.608   6.836   9.192  1.0469  0.0423  0.3288
  134SAPE  C31414547   0.492   7.029   9.188 -0.0778  0.0533  0.1548
  134SAPE  H14X14548   0.586   7.087   9.193  0.7617 -1.0342 -1.8014
  134SAPE  H14Y14549   0.420   7.076   9.258  2.5195 -0.8948  3.8002
  134SAPE  C31514550   0.440   7.013   9.042 -0.3573 -0.1883  0.0538
  134SAPE  H15X14551   0.404   7.109   9.000 -1.6981 -0.6171  0.1886
  134SAPE  H15Y14552   0.343   6.960   9.052 -1.3394  1.5134 -0.0794
  134SAPE  C31614553   0.532   6.942   8.942 -0.2069 -0.1027 -0.0191
  134SAPE  H16X14554   0.466   6.929   8.854  0.6514 -0.0782 -0.6715
  134SAPE  H16Y14555   0.574   6.845   8.976  1.7234  0.0682 -1.7800
  134SAPE  C31714556   0.662   7.028   8.895 -0.1054 -0.2097 -0.6093
  134SAPE  H17X14557   0.714   7.050   8.991 -0.1063 -1.8744 -0.1916
  134SAPE  H17Y14558   0.626   7.122   8.848 -0.1437 -0.4526 -1.0704
  134SAPE  C31814559   0.745   6.948   8.794  0.5327  0.5055 -0.9349
  134SAPE  H18X14560   0.825   7.011   8.751  0.5684  2.0575  1.2801
  134SAPE  H18Y14561   0.681   6.915   8.709 -1.8214  1.0993  0.5196
  134SAPE  H18Z14562   0.792   6.862   8.847 -1.5959  0.3894  0.9555
  135SAPE     N14563   6.635   5.115  10.837  0.4055  0.2013 -0.3252
  135SAPE   HN114564   6.620   5.128  10.734  1.9254  2.1862 -0.3721
  135SAPE   HN214565   6.710   5.046  10.856  0.6493  1.0504  2.1095
  135SAPE   HN314566   6.539   5.098  10.873 -0.2463  1.0949 -1.5420
  135SAPE   C1214567   6.692   5.245  10.899 -0.2657 -0.2980  0.5878
  135SAPE  H12A14568   6.786   5.265  10.843 -2.7373 -0.3300 -4.1598
  135SAPE  H12B14569   6.706   5.219  11.006  2.4106 -1.4973  0.0157
  135SAPE   C1114570   6.597   5.374  10.888  0.5684 -0.3818 -0.0235
  135SAPE  H11A14571   6.592   5.413  10.784 -2.4183 -0.2019  0.0883
  135SAPE  H11B14572   6.646   5.460  10.939 -0.8679  0.3959  0.1208
  135SAPE     P14573   6.359   5.455  10.917  0.2133 -0.2074 -0.1406
  135SAPE   O1314574   6.247   5.429  11.007  0.0860 -0.0219  0.0041
  135SAPE   O1414575   6.437   5.583  10.933  0.9499 -0.1728 -0.1298
  135SAPE   O1214576   6.462   5.339  10.923 -0.2251  0.6862 -0.3429
  135SAPE   O1114577   6.299   5.448  10.775 -0.3499  0.3406  0.4840
  135SAPE    C114578   6.269   5.322  10.711  0.4718  0.3607  0.2333
  135SAPE    HA14579   6.337   5.238  10.736 -0.5064 -0.6328 -0.3744
  135SAPE    HB14580   6.166   5.283  10.729  1.3688 -2.8994 -1.0997
  135SAPE    C214581   6.261   5.339  10.556  0.8358  0.3826 -0.4423
  135SAPE    HS14582   6.247   5.240  10.506  0.6067  0.1370  0.0995
  135SAPE   O2114583   6.379   5.397  10.509 -0.0055 -0.5809 -0.5301
  135SAPE   C2114584   6.488   5.327  10.528 -0.3568  0.2603  0.2531
  135SAPE   O2214585   6.496   5.215  10.581  0.0218 -0.0585 -0.5558
  135SAPE   C2214586   6.616   5.408  10.491  0.0329 -0.0865  0.0545
  135SAPE   H2R14587   6.587   5.515  10.479 -1.2254 -0.4957 -0.7163
  135SAPE   H2S14588   6.686   5.391  10.575  1.6271 -0.4428 -1.2863
  135SAPE    C314589   6.145   5.439  10.523  0.3610 -0.6951 -0.6737
  135SAPE    HX14590   6.159   5.528  10.588 -0.4525 -1.5289  0.6673
  135SAPE    HY14591   6.042   5.407  10.549  0.0506 -1.3155 -2.5277
  135SAPE   O3114592   6.152   5.494  10.387 -0.1798 -0.3392 -0.1352
  135SAPE   C3114593   6.110   5.401  10.298  0.0199  0.2434  0.5806
  135SAPE   O3214594   6.038   5.307  10.329  0.1565  0.1979  0.1156
  135SAPE   C3214595   6.152   5.444  10.153  0.6600  0.7279  0.0366
  135SAPE   H2X14596   6.260   5.467  10.156  0.3584  2.4254  3.7969
  135SAPE   H2Y14597   6.088   5.527  10.116 -2.1050 -0.7067  1.2794
  135SAPE   C2314598   6.678   5.356  10.357 -0.6829 -0.2175 -0.1084
  135SAPE   H3R14599   6.681   5.245  10.369  0.2583 -0.4263 -1.9163
  135SAPE   H3S14600   6.783   5.392  10.357 -1.0261  0.8694  1.0913
  135SAPE   C2414601   6.602   5.406  10.232 -0.0150 -0.0147  0.6782
  135SAPE   H4R14602   6.495   5.402  10.261 -0.4571  0.7841 -0.7041
  135SAPE   H4S14603   6.603   5.347  10.137  1.4105 -0.4357  0.9440
  135SAPE   C2514604   6.635   5.552  10.215 -0.6118  0.4392 -0.4997
  135SAPE   H5R14605   6.592   5.613  10.295  3.3460  2.4971  0.2985
  135SAPE   C2614606   6.702   5.616  10.118 -0.2873  0.0383  0.5373
  135SAPE   H6R14607   6.708   5.725  10.123 -0.1694  0.1797 -1.6583
  135SAPE   C2714608   6.760   5.547   9.997  0.2478  0.2663 -0.9816
  135SAPE   H7R14609   6.778   5.441  10.025 -1.9525  0.3398  1.0861
  135SAPE   H7S14610   6.858   5.592   9.967  0.0203  1.9271  0.5603
  135SAPE   C2814611   6.663   5.560   9.881 -0.5686  0.8348  0.3642
  135SAPE   H8R14612   6.565   5.599   9.910 -1.9812 -2.8313  1.1564
  135SAPE   C2914613   6.692   5.545   9.749 -0.2638 -0.1277 -0.3099
  135SAPE   H9R14614   6.612   5.565   9.676 -0.9120  0.6621  0.5756
  135SAPE  C21014615   6.830   5.520   9.689  0.2644  0.2317  0.7896
  135SAPE  H10R14616   6.833   5.412   9.661  1.3594  1.0822 -2.9148
  135SAPE  H10S14617   6.909   5.540   9.765  0.0788 -0.2238  1.1019
  135SAPE  C21114618   6.873   5.623   9.587 -0.3210  0.0396  0.2518
  135SAPE  H11R14619   6.924   5.707   9.635 -0.9745  1.7914 -1.9428
  135SAPE  C21214620   6.877   5.603   9.453  0.1497  0.4544  0.7884
  135SAPE  H12R14621   6.898   5.688   9.387 -0.4647 -0.7499 -1.0327
  135SAPE  C21314622   6.841   5.478   9.378 -0.1543 -0.3390 -0.4667
  135SAPE  H13R14623   6.769   5.415   9.434  0.4066 -0.2931  0.3259
  135SAPE  H13S14624   6.934   5.418   9.384 -1.0818 -1.7998 -0.2008
  135SAPE  C21414625   6.794   5.490   9.240  0.6859  0.5458 -0.1919
  135SAPE  H14R14626   6.881   5.482   9.172  1.9391  0.7683  1.3277
  135SAPE  C21514627   6.683   5.535   9.190  0.0921  0.7908  0.5607
  135SAPE  H15R14628   6.665   5.536   9.081 -0.2410 -0.7815  0.5797
  135SAPE  C21614629   6.565   5.581   9.273  0.5943  0.4889 -0.2475
  135SAPE  H16R14630   6.584   5.563   9.381 -1.8030  0.7777  0.2815
  135SAPE  H16S14631   6.479   5.523   9.234 -1.9899  2.7494  1.6514
  135SAPE  C21714632   6.549   5.737   9.265 -0.2266  0.1973  0.8068
  135SAPE  H17R14633   6.638   5.784   9.312  0.4787  0.7982 -1.0459
  135SAPE  H17S14634   6.449   5.765   9.305  0.5429  0.3960  2.7094
  135SAPE  C21814635   6.534   5.791   9.116 -0.1070 -1.0511  1.1971
  135SAPE  H18R14636   6.633   5.790   9.065 -0.3838  2.1762  0.3778
  135SAPE  H18S14637   6.492   5.894   9.118 -1.5164 -1.6036  1.3852
  135SAPE  C21914638   6.426   5.728   9.021  0.1627  0.8738 -0.0324
  135SAPE  H19R14639   6.333   5.705   9.078 -0.8568 -3.7586 -3.0353
  135SAPE  H19S14640   6.461   5.625   8.997 -0.5672  0.6200 -0.0305
  135SAPE  C22014641   6.404   5.801   8.887 -0.0884 -0.3375  0.6855
  135SAPE  H20R14642   6.465   5.754   8.806 -1.2694 -2.6998  1.0708
  135SAPE  H20S14643   6.429   5.907   8.907  0.9351 -0.7110  1.5038
  135SAPE  H20T14644   6.295   5.800   8.866  0.0767  1.6521 -0.4995
  135SAPE   C3314645   6.124   5.325  10.064  0.5846 -0.2093  0.1941
  135SAPE   H3X14646   6.015   5.310  10.057  0.7046 -0.7902 -0.6345
  135SAPE   H3Y14647   6.163   5.223  10.084 -1.4363 -1.2663 -0.9549
  135SAPE   C3414648   6.172   5.339   9.919  0.2745 -1.0559 -0.3631
  135SAPE   H4X14649   6.281   5.361   9.910  0.3082  2.2539  4.2731
  135SAPE   H4Y14650   6.125   5.431   9.879  0.3943 -1.1534 -0.7303
  135SAPE   C3514651   6.133   5.214   9.837  0.2865  0.0201  0.4558
  135SAPE   H5X14652   6.025   5.211   9.865 -0.2992 -1.8213 -1.6757
  135SAPE   H5Y14653   6.191   5.127   9.872 -2.3336 -2.8873 -1.8075
  135SAPE   C3614654   6.155   5.244   9.689  0.3988 -0.9694  0.2841
  135SAPE   H6X14655   6.259   5.279   9.674 -0.3974  1.1556 -0.6353
  135SAPE   H6Y14656   6.086   5.330   9.674 -0.6884 -1.5451  1.7330
  135SAPE   C3714657   6.111   5.126   9.596 -0.2764 -0.2179  0.0624
  135SAPE   H7X14658   6.007   5.099   9.623  0.2872 -1.5955  0.9406
  135SAPE   H7Y14659   6.168   5.036   9.626 -0.7166 -0.7402 -0.6270
  135SAPE   C3814660   6.135   5.157   9.447  0.5765  0.1052 -0.2034
  135SAPE   H8X14661   6.236   5.202   9.449  0.9361 -0.6346 -1.1548
  135SAPE   H8Y14662   6.051   5.227   9.427 -0.8407 -1.6049 -0.5382
  135SAPE   C3914663   6.134   5.034   9.347 -0.4850 -0.5787  0.1541
  135SAPE   H9X14664   6.211   4.970   9.394 -0.4918  0.4855  1.6867
  135SAPE   H9Y14665   6.172   5.068   9.248 -0.8968  1.2529  0.5904
  135SAPE  C31014666   5.999   4.961   9.344 -0.2722  0.7077  0.4594
  135SAPE  H10X14667   5.919   5.038   9.338  0.1885  1.1952  0.4879
  135SAPE  H10Y14668   5.977   4.901   9.435 -2.7464 -0.9628 -1.1237
  135SAPE  C31114669   5.993   4.849   9.243  0.4279  0.1963  0.3715
  135SAPE  H11X14670   5.892   4.802   9.246 -0.8101  2.5952 -0.5339
  135SAPE  H11Y14671   6.072   4.773   9.261  0.7089 -0.1160 -1.9152
  135SAPE  C31214672   5.986   4.895   9.095 -0.3421  0.4883 -0.7427
  135SAPE  H12X14673   6.074   4.944   9.049  0.7387 -0.7360 -0.0693
  135SAPE  H12Y14674   5.894   4.955   9.106 -1.6692 -1.8507  3.3485
  135SAPE  C31314675   5.963   4.770   9.010  0.0617  0.2896 -0.3000
  135SAPE  H13X14676   5.878   4.704   9.037 -0.0948 -0.5905 -2.6462
  135SAPE  H13Y14677   6.060   4.717   9.002 -0.5887 -0.6529 -2.8476
  135SAPE  C31414678   5.936   4.807   8.864  0.2491  0.3022  1.1330
  135SAPE  H14X14679   6.029   4.850   8.822  2.2963 -3.7018  1.0621
  135SAPE  H14Y14680   5.856   4.884   8.852 -1.3599 -1.6639 -2.4468
  135SAPE  C31514681   5.897   4.684   8.775  0.1863 -0.0669 -0.5398
  135SAPE  H15X14682   5.906   4.710   8.668  1.9901 -0.7052 -0.5798
  135SAPE  H15Y14683   5.792   4.653   8.794 -0.6444  1.3769 -2.4046
  135SAPE  C31614684   5.991   4.561   8.808  0.3137 -0.9241  0.1356
  135SAPE  H16X14685   5.944   4.492   8.882 -2.6976  1.1381  0.3332
  135SAPE  H16Y14686   6.095   4.586   8.835  0.5542  1.1815 -2.2944
  135SAPE  C31714687   6.001   4.473   8.680 -0.9212 -0.0839 -0.2620
  135SAPE  H17X14688   6.047   4.542   8.607 -1.5557 -0.0060 -0.5977
  135SAPE  H17Y14689   5.896   4.449   8.652 -0.8336 -0.8236  0.0179
  135SAPE  C31814690   6.080   4.343   8.705 -0.0836 -0.1132  0.5341
  135SAPE  H18X14691   6.086   4.296   8.605 -0.6735  1.5411 -0.3124
  135SAPE  H18Y14692   6.022   4.275   8.771 -1.2677  0.7041  0.3559
  135SAPE  H18Z14693   6.175   4.380   8.751  0.1693 -0.6710  0.4645
  136SAPE     N14694   2.778   5.689  11.511 -0.1086  0.0868  0.4994
  136SAPE   HN114695   2.722   5.647  11.589 -2.3184 -1.1099 -1.5880
  136SAPE   HN214696   2.869   5.638  11.505 -0.9890 -1.5484  0.3782
  136SAPE   HN314697   2.795   5.785  11.545  0.3194  0.0376  0.4373
  136SAPE   C1214698   2.706   5.687  11.377  1.1496  0.2075  0.1208
  136SAPE  H12A14699   2.611   5.745  11.385  0.1585 -1.3521  0.0613
  136SAPE  H12B14700   2.678   5.581  11.364 -1.2401  0.3534  2.9511
  136SAPE   C1114701   2.796   5.732  11.263 -0.0143 -0.1824 -0.2845
  136SAPE  H11A14702   2.821   5.840  11.266  0.3261 -0.2833  0.7553
  136SAPE  H11B14703   2.736   5.724  11.170 -0.3415  1.7154 -0.2834
  136SAPE     P14704   2.932   5.517  11.181 -0.1556 -0.2822 -0.0980
  136SAPE   O1314705   3.021   5.435  11.263 -0.2568 -0.3908 -0.2713
  136SAPE   O1414706   2.798   5.462  11.150  0.1415 -0.0860 -0.1222
  136SAPE   O1214707   2.913   5.648  11.262 -1.1976  0.8671 -0.4601
  136SAPE   O1114708   3.016   5.560  11.053 -0.2297 -0.1212  0.7673
  136SAPE    C114709   2.997   5.682  10.984  0.0460  0.0159  0.1560
  136SAPE    HA14710   2.891   5.713  10.990  0.3039  0.7622  0.9732
  136SAPE    HB14711   3.053   5.767  11.028  2.9655 -1.1604 -1.0043
  136SAPE    C214712   3.056   5.687  10.836 -0.4089  0.2212 -0.4061
  136SAPE    HS14713   3.007   5.770  10.781  0.4505  0.1786 -1.2549
  136SAPE   O2114714   3.036   5.560  10.770 -0.2389  0.0294 -0.2583
  136SAPE   C2114715   2.918   5.525  10.731 -0.0167  0.4678 -0.2119
  136SAPE   O2214716   2.816   5.587  10.730 -0.4408  0.0546 -0.2359
  136SAPE   C2214717   2.923   5.375  10.689  0.2041 -0.2889  0.0500
  136SAPE   H2R14718   3.022   5.342  10.726  0.8623  3.1791  1.8182
  136SAPE   H2S14719   2.837   5.329  10.743  0.5839 -0.4881  0.4894
  136SAPE    C314720   3.208   5.719  10.841  0.6051 -0.1417 -0.3869
  136SAPE    HX14721   3.252   5.642  10.907  1.0931  0.9427  0.5803
  136SAPE    HY14722   3.219   5.812  10.901 -0.9009 -0.8703  1.1139
  136SAPE   O3114723   3.246   5.745  10.705 -0.2261  0.1772 -0.8085
  136SAPE   C3114724   3.307   5.633  10.647  0.2271 -1.2313 -0.0593
  136SAPE   O3214725   3.339   5.534  10.707 -0.3559 -0.2333 -0.2400
  136SAPE   C3214726   3.362   5.674  10.509 -0.3019  0.0595 -0.1127
  136SAPE   H2X14727   3.466   5.702  10.536 -0.8481 -0.5963  3.0590
  136SAPE   H2Y14728   3.309   5.765  10.475  0.2949  1.0217  1.4311
  136SAPE   C2314729   2.922   5.365  10.528 -0.0960  0.3625  0.1293
  136SAPE   H3R14730   2.963   5.266  10.500  0.7553  0.6580  0.3100
  136SAPE   H3S14731   3.000   5.432  10.486  1.5661 -1.8716 -0.5286
  136SAPE   C2414732   2.794   5.405  10.459 -0.0484 -0.2463 -0.2073
  136SAPE   H4R14733   2.779   5.515  10.459 -2.0626 -0.4531 -1.4283
  136SAPE   H4S14734   2.706   5.360  10.510 -0.8501  4.4318  3.1650
  136SAPE   C2514735   2.808   5.354  10.319  0.4478  0.5732  0.7787
  136SAPE   H5R14736   2.804   5.245  10.307  2.6527  0.6270 -1.2710
  136SAPE   C2614737   2.824   5.427  10.207  0.0494 -0.3007  0.0095
  136SAPE   H6R14738   2.817   5.371  10.112  0.6383 -0.4152  0.0289
  136SAPE   C2714739   2.826   5.573  10.189  0.5107 -0.3715 -0.0658
  136SAPE   H7R14740   2.774   5.624  10.273  1.9182 -0.3326  0.8104
  136SAPE   H7S14741   2.773   5.599  10.095  1.7352  0.2140 -0.6191
  136SAPE   C2814742   2.957   5.634  10.168 -0.4301  0.6570 -0.6802
  136SAPE   H8R14743   3.005   5.675  10.258  1.0401  1.8040 -1.9266
  136SAPE   C2914744   3.020   5.639  10.053 -0.4954  0.0274  0.7259
  136SAPE   H9R14745   3.122   5.677  10.044 -0.8221  0.4179 -4.4018
  136SAPE  C21014746   2.972   5.585   9.918  0.3552  0.0187 -0.4369
  136SAPE  H10R14747   2.958   5.476   9.930  0.0605 -0.0201 -1.0915
  136SAPE  H10S14748   3.061   5.604   9.854 -0.1066 -1.4449 -1.5697
  136SAPE  C21114749   2.855   5.661   9.851 -0.2193  1.3915  0.4906
  136SAPE  H11R14750   2.791   5.725   9.914 -2.4106 -0.3516  0.1723
  136SAPE  C21214751   2.830   5.646   9.720  0.2646 -0.3072 -0.6963
  136SAPE  H12R14752   2.746   5.702   9.679 -0.7667 -0.8736  0.5662
  136SAPE  C21314753   2.911   5.569   9.616 -0.4475 -0.1897  0.0883
  136SAPE  H13R14754   2.854   5.485   9.571  3.5287 -2.3393 -1.5257
  136SAPE  H13S14755   3.008   5.534   9.658  1.3273  1.8977 -1.9356
  136SAPE  C21414756   2.953   5.677   9.512  0.0653 -0.6205  0.7598
  136SAPE  H14R14757   3.032   5.748   9.541  1.7897 -2.4142  0.6819
  136SAPE  C21514758   2.901   5.683   9.385  0.4066  0.0567  0.2541
  136SAPE  H15R14759   2.947   5.742   9.306 -2.2231  3.0736  0.7869
  136SAPE  C21614760   2.783   5.595   9.344  0.9364 -0.3663  0.0008
  136SAPE  H16R14761   2.715   5.650   9.274  1.7137  2.4241  1.3053
  136SAPE  H16S14762   2.720   5.570   9.432 -1.3766 -2.2113 -2.0150
  136SAPE  C21714763   2.828   5.461   9.273 -0.4827  0.3997 -0.4563
  136SAPE  H17R14764   2.735   5.402   9.284 -0.2984  0.6137  3.6600
  136SAPE  H17S14765   2.898   5.408   9.341 -1.4704  0.2330  0.4598
  136SAPE  C21814766   2.878   5.477   9.128  0.5555  0.4716 -0.0127
  136SAPE  H18R14767   2.827   5.568   9.089 -0.4105  0.3928  0.9798
  136SAPE  H18S14768   2.835   5.399   9.061 -0.2651 -0.7660  1.8488
  136SAPE  C21914769   3.027   5.490   9.112 -0.2871 -0.7058 -0.8322
  136SAPE  H19R14770   3.084   5.417   9.173  2.2296  0.5939 -1.4874
  136SAPE  H19S14771   3.058   5.586   9.158  1.5690 -1.0935 -1.1773
  136SAPE  C22014772   3.074   5.483   8.969 -0.0294 -0.3209 -0.9496
  136SAPE  H20R14773   3.041   5.574   8.914 -1.2286  0.8729  1.5678
  136SAPE  H20S14774   3.028   5.392   8.925  1.7693 -1.6589 -0.1903
  136SAPE  H20T14775   3.184   5.473   8.973 -0.0277  0.0022  1.8632
  136SAPE   C3314776   3.346   5.557  10.407  0.1054  0.0905 -0.6860
  136SAPE   H3X14777   3.236   5.542  10.403  0.2181 -1.4992  0.8389
  136SAPE   H3Y14778   3.395   5.474  10.462  0.3576  1.0326  0.5484
  136SAPE   C3414779   3.408   5.602  10.272 -0.2588 -0.1302 -0.3510
  136SAPE   H4X14780   3.518   5.611  10.262 -0.3884  2.2977 -0.3341
  136SAPE   H4Y14781   3.360   5.698  10.241  2.3664  0.3860 -3.3321
  136SAPE   C3514782   3.381   5.501  10.159  0.1189 -0.7611 -0.6434
  136SAPE   H5X14783   3.272   5.480  10.159 -0.3012  1.1557  0.4427
  136SAPE   H5Y14784   3.443   5.409  10.160 -0.9860 -1.5370  0.2929
  136SAPE   C3614785   3.407   5.576  10.024  0.5318 -0.1774 -0.1968
  136SAPE   H6X14786   3.510   5.618  10.024  0.2902  0.4263  0.0692
  136SAPE   H6Y14787   3.348   5.670  10.025  1.3566  0.3553 -0.5148
  136SAPE   C3714788   3.379   5.484   9.903 -0.1690  0.3767  0.4532
  136SAPE   H7X14789   3.274   5.450   9.905 -0.5605  1.5708  1.8660
  136SAPE   H7Y14790   3.430   5.387   9.923 -2.0156 -0.8314 -0.4727
  136SAPE   C3814791   3.414   5.529   9.768 -0.4892  0.0014  0.8927
  136SAPE   H8X14792   3.517   5.568   9.760 -0.4378 -0.0824  1.1452
  136SAPE   H8Y14793   3.334   5.599   9.738  0.2536  1.1197  1.4710
  136SAPE   C3914794   3.406   5.410   9.662  0.6247 -0.2388  0.5470
  136SAPE   H9X14795   3.302   5.374   9.680  1.0019 -1.8896 -0.4281
  136SAPE   H9Y14796   3.473   5.330   9.699 -0.7460 -2.1907 -0.9598
  136SAPE  C31014797   3.427   5.451   9.510  0.4372 -0.1377  0.7600
  136SAPE  H10X14798   3.535   5.433   9.489 -0.3655 -3.8134 -1.2006
  136SAPE  H10Y14799   3.395   5.554   9.486  1.0680 -0.1176 -0.0310
  136SAPE  C31114800   3.332   5.355   9.425 -0.7073  0.1934  0.2081
  136SAPE  H11X14801   3.309   5.396   9.324 -0.1926 -2.6662 -1.1814
  136SAPE  H11Y14802   3.234   5.348   9.476 -0.1667 -2.4417  1.0527
  136SAPE  C31214803   3.397   5.214   9.404 -0.0790  0.3295 -0.7571
  136SAPE  H12X14804   3.411   5.169   9.504 -0.2564 -1.2337 -1.4077
  136SAPE  H12Y14805   3.496   5.209   9.354  0.1881 -0.9279 -0.1337
  136SAPE  C31314806   3.296   5.127   9.329  0.5206  0.3441  0.1706
  136SAPE  H13X14807   3.240   5.182   9.250 -2.3253 -0.4705  1.4905
  136SAPE  H13Y14808   3.215   5.114   9.404  0.2952  0.9193  0.0342
  136SAPE  C31414809   3.362   4.992   9.292 -1.0345  0.1231  0.9968
  136SAPE  H14X14810   3.386   4.921   9.374 -1.8323 -0.1340  1.0168
  136SAPE  H14Y14811   3.460   5.019   9.248  0.9261 -1.1715  4.1814
  136SAPE  C31514812   3.284   4.918   9.191 -0.3281 -0.0600  0.1315
  136SAPE  H15X14813   3.180   4.890   9.220 -0.4020 -1.2814 -1.1769
  136SAPE  H15Y14814   3.336   4.820   9.179  1.5763  0.9162  0.1132
  136SAPE  C31614815   3.277   4.995   9.053 -0.4714 -0.2771 -0.1873
  136SAPE  H16X14816   3.382   5.017   9.025 -0.5164  0.6575  0.3471
  136SAPE  H16Y14817   3.228   5.093   9.068  0.3968  0.6154 -2.6790
  136SAPE  C31714818   3.202   4.913   8.950  0.7909  0.1923  0.1229
  136SAPE  H17X14819   3.094   4.898   8.969  0.9948  0.6332  1.7900
  136SAPE  H17Y14820   3.252   4.814   8.948 -0.6908 -0.5746  0.2202
  136SAPE  C31814821   3.223   4.979   8.812 -0.6864 -0.1467 -0.1101
  136SAPE  H18X14822   3.332   4.989   8.795 -0.5058 -2.5768 -0.8465
  136SAPE  H18Y14823   3.175   5.079   8.813 -0.8339 -0.2177 -0.1108
  136SAPE  H18Z14824   3.177   4.911   8.737 -0.7219 -0.1858 -0.0532
  137SAPE     N14825   2.187   1.202  11.364 -0.2683  0.3808  0.1453
  137SAPE   HN114826   2.099   1.251  11.342  0.3851  1.4661 -0.1437
  137SAPE   HN214827   2.147   1.152  11.446 -0.7471  0.2784 -0.1482
  137SAPE   HN314828   2.257   1.275  11.390 -0.9349  1.1895 -0.2865
  137SAPE   C1214829   2.232   1.124  11.244 -0.4248  0.1860 -0.2309
  137SAPE  H12A14830   2.222   1.188  11.153  0.4012  0.5833 -0.0517
  137SAPE  H12B14831   2.184   1.024  11.243  0.8831 -0.6661  3.7915
  137SAPE   C1114832   2.371   1.082  11.259  0.4470  0.2185 -0.0163
  137SAPE  H11A14833   2.385   1.021  11.352 -0.8696  0.0791  0.1016
  137SAPE  H11B14834   2.425   1.176  11.281  0.7045  0.0077  0.2785
  137SAPE     P14835   2.548   1.025  11.071 -0.5446 -0.0653 -0.1244
  137SAPE   O1314836   2.641   1.073  11.172 -0.3396 -0.1784  0.2128
  137SAPE   O1414837   2.587   0.902  11.008 -0.1577 -0.4775 -0.0244
  137SAPE   O1214838   2.413   1.006  11.144  0.4621  0.3112  0.2095
  137SAPE   O1114839   2.532   1.132  10.963 -0.1196  0.1922 -0.2872
  137SAPE    C114840   2.405   1.175  10.906  0.6811 -0.4208 -0.4582
  137SAPE    HA14841   2.348   1.090  10.862  0.3232  0.7158 -2.3233
  137SAPE    HB14842   2.340   1.220  10.983  1.7708  0.4361 -0.0082
  137SAPE    C214843   2.425   1.279  10.787  0.4096 -0.2912 -0.7415
  137SAPE    HS14844   2.328   1.310  10.742  0.4777 -1.5404 -1.8076
  137SAPE   O2114845   2.525   1.220  10.703  0.0558  0.2010  0.6893
  137SAPE   C2114846   2.467   1.163  10.598 -0.5420 -0.5210  0.3995
  137SAPE   O2214847   2.347   1.139  10.584 -0.3943 -0.0258  0.1436
  137SAPE   C2214848   2.577   1.143  10.492  0.4457  0.1792 -0.2163
  137SAPE   H2R14849   2.632   1.239  10.486 -0.6953  0.7889 -1.4279
  137SAPE   H2S14850   2.650   1.068  10.530  2.5190  1.7743 -0.9007
  137SAPE    C314851   2.476   1.410  10.841 -0.4138 -0.1852 -0.0654
  137SAPE    HX14852   2.574   1.382  10.886 -1.1597 -1.0253  1.0703
  137SAPE    HY14853   2.406   1.443  10.920 -0.1637  0.6522 -0.1878
  137SAPE   O3114854   2.485   1.513  10.743  0.1374 -0.0472  0.4058
  137SAPE   C3114855   2.600   1.511  10.669  0.3833  0.2006 -0.1118
  137SAPE   O3214856   2.698   1.444  10.685  0.1363 -0.0321 -0.2952
  137SAPE   C3214857   2.582   1.616  10.558 -0.3248  0.0314 -0.4003
  137SAPE   H2X14858   2.678   1.672  10.563  0.1915 -0.9486  1.5766
  137SAPE   H2Y14859   2.494   1.679  10.585  0.6808  1.2747  0.1020
  137SAPE   C2314860   2.530   1.085  10.354 -0.1183 -0.2682  0.7202
  137SAPE   H3R14861   2.457   1.005  10.379  0.3321 -0.7911  0.3797
  137SAPE   H3S14862   2.609   1.036  10.294 -0.3908 -2.1450  1.8240
  137SAPE   C2414863   2.476   1.186  10.248 -0.0367 -0.6638  0.6780
  137SAPE   H4R14864   2.409   1.261  10.294  2.4104  1.8709  0.3865
  137SAPE   H4S14865   2.423   1.127  10.170  0.0238  1.1332 -0.7946
  137SAPE   C2514866   2.578   1.275  10.180  0.4003  0.2392  1.2157
  137SAPE   H5R14867   2.639   1.328  10.256 -1.0875  1.9709  1.2662
  137SAPE   C2614868   2.601   1.290  10.049 -0.0388 -0.5348  0.5803
  137SAPE   H6R14869   2.674   1.362  10.009 -0.9082  0.1270  0.1567
  137SAPE   C2714870   2.533   1.215   9.935  0.1629 -0.1903 -0.0267
  137SAPE   H7R14871   2.515   1.109   9.963 -1.2755 -0.5599 -2.1371
  137SAPE   H7S14872   2.614   1.208   9.859  0.7044  2.8129  0.1418
  137SAPE   C2814873   2.400   1.268   9.875  0.1922  0.5451 -0.8067
  137SAPE   H8R14874   2.326   1.285   9.955  0.2759 -0.2477 -0.5460
  137SAPE   C2914875   2.382   1.301   9.747 -0.7855  0.3674  0.7226
  137SAPE   H9R14876   2.282   1.334   9.714 -0.2273  0.9318 -0.5073
  137SAPE  C21014877   2.478   1.288   9.624  0.3411 -0.4988  0.2705
  137SAPE  H10R14878   2.572   1.339   9.652 -1.1384  1.5985  1.7434
  137SAPE  H10S14879   2.435   1.340   9.536  0.4581  0.4405  0.7544
  137SAPE  C21114880   2.506   1.140   9.586 -1.1269 -0.3592  0.8549
  137SAPE  H11R14881   2.487   1.067   9.666  1.9453 -0.7762  1.3036
  137SAPE  C21214882   2.543   1.099   9.463  0.7035 -0.3142 -1.0690
  137SAPE  H12R14883   2.564   0.992   9.451  1.7806 -0.1754 -0.5013
  137SAPE  C21314884   2.564   1.194   9.354  0.6174 -0.1891 -0.2787
  137SAPE  H13R14885   2.614   1.285   9.394  0.8476 -0.5090  0.1623
  137SAPE  H13S14886   2.464   1.220   9.313  1.1270 -0.4821 -1.7639
  137SAPE  C21414887   2.643   1.136   9.237 -0.2006 -0.4820 -0.4602
  137SAPE  H14R14888   2.740   1.187   9.229 -0.2098 -0.0803  1.6099
  137SAPE  C21514889   2.614   1.051   9.138  0.2659 -0.1130 -0.3735
  137SAPE  H15R14890   2.690   1.043   9.059  0.1550 -1.5664 -0.3598
  137SAPE  C21614891   2.487   0.967   9.116  0.0760  0.4362 -0.1773
  137SAPE  H16R14892   2.407   1.003   9.184  0.4517  1.5501 -0.2999
  137SAPE  H16S14893   2.511   0.859   9.116  0.2998  0.4803 -1.2573
  137SAPE  C21714894   2.414   0.987   8.983  0.2324  0.3601  0.3138
  137SAPE  H17R14895   2.423   1.093   8.950  2.3105  0.3150  0.6356
  137SAPE  H17S14896   2.308   0.957   9.000  0.7081 -0.1648  2.6367
  137SAPE  C21814897   2.471   0.907   8.865 -0.5014  0.6307 -0.1416
  137SAPE  H18R14898   2.501   0.810   8.909 -1.4972  0.0609 -0.6646
  137SAPE  H18S14899   2.570   0.954   8.846  0.2922 -0.5335  0.9634
  137SAPE  C21914900   2.388   0.900   8.738 -0.0071  0.6258 -1.0207
  137SAPE  H19R14901   2.354   1.002   8.712  1.4177  1.2500 -0.5336
  137SAPE  H19S14902   2.300   0.832   8.746 -1.1619  1.8194 -2.8190
  137SAPE  C22014903   2.472   0.844   8.614  0.7980  0.4274  0.1811
  137SAPE  H20R14904   2.404   0.828   8.528  0.6224  0.1821  0.3639
  137SAPE  H20S14905   2.511   0.741   8.629 -0.0958 -0.0366 -0.5326
  137SAPE  H20T14906   2.555   0.911   8.582  0.5200  0.2017 -1.0872
  137SAPE   C3314907   2.570   1.544  10.417 -0.0991  0.5536 -0.4216
  137SAPE   H3X14908   2.512   1.449  10.415  2.7109 -1.2612 -1.5801
  137SAPE   H3Y14909   2.664   1.503  10.374 -1.2755 -0.8363 -1.8140
  137SAPE   C3414910   2.513   1.653  10.322  0.0654 -0.4639  0.5283
  137SAPE   H4X14911   2.576   1.743  10.331 -2.8364  1.5647  2.4446
  137SAPE   H4Y14912   2.412   1.676  10.362 -0.5033 -2.5211  0.4021
  137SAPE   C3514913   2.484   1.601  10.175  0.5103 -0.1849  0.1465
  137SAPE   H5X14914   2.403   1.525  10.179 -0.0641  0.4549  0.8232
  137SAPE   H5Y14915   2.580   1.556  10.141  0.0569 -0.8127 -0.3472
  137SAPE   C3614916   2.450   1.702  10.067 -0.5025 -0.7712 -0.0166
  137SAPE   H6X14917   2.513   1.794  10.075 -0.6527 -0.5347 -1.3444
  137SAPE   H6Y14918   2.349   1.746  10.081 -0.5142 -1.1910  1.3465
  137SAPE   C3714919   2.481   1.642   9.935 -0.3677  0.0949 -0.5416
  137SAPE   H7X14920   2.408   1.569   9.896 -0.4419  0.1263 -0.4618
  137SAPE   H7Y14921   2.584   1.600   9.935 -0.1530  0.6141 -1.0908
  137SAPE   C3814922   2.509   1.748   9.820 -1.4344  0.2611  0.1562
  137SAPE   H8X14923   2.598   1.807   9.852  0.9833 -2.4359 -1.1489
  137SAPE   H8Y14924   2.422   1.814   9.801 -0.4686  1.7736  0.8090
  137SAPE   C3914925   2.542   1.693   9.689  0.1751 -0.0502  0.9164
  137SAPE   H9X14926   2.456   1.635   9.651 -3.3772  2.5521  4.2001
  137SAPE   H9Y14927   2.632   1.628   9.699 -0.2485 -0.7658  0.1380
  137SAPE  C31014928   2.569   1.810   9.593 -0.4165  0.1360  0.3787
  137SAPE  H10X14929   2.644   1.867   9.653  1.7126 -1.5097 -0.5754
  137SAPE  H10Y14930   2.480   1.872   9.568 -0.1908  0.1730 -0.3530
  137SAPE  C31114931   2.644   1.756   9.466  0.3073  0.5412  0.2360
  137SAPE  H11X14932   2.582   1.683   9.410 -1.7635  0.0801  2.9081
  137SAPE  H11Y14933   2.735   1.700   9.496 -0.0405 -0.2423 -0.1615
  137SAPE  C31214934   2.676   1.873   9.377  0.8147 -0.4105 -0.2605
  137SAPE  H12X14935   2.588   1.941   9.367 -1.9826 -3.6663  0.2998
  137SAPE  H12Y14936   2.684   1.825   9.278  0.2279 -0.0651 -0.4815
  137SAPE  C31314937   2.808   1.947   9.412  0.3943 -0.1059 -0.7321
  137SAPE  H13X14938   2.879   1.865   9.388  0.0414 -0.4115 -0.7257
  137SAPE  H13Y14939   2.837   1.979   9.514  0.7657 -3.0920  0.1973
  137SAPE  C31414940   2.844   2.064   9.316  0.1579 -0.4132 -0.2580
  137SAPE  H14X14941   2.951   2.085   9.339 -0.7427  2.0834  2.1202
  137SAPE  H14Y14942   2.784   2.154   9.340 -2.4207 -1.7314 -1.3813
  137SAPE  C31514943   2.823   2.023   9.174 -0.0875 -0.9344 -0.2196
  137SAPE  H15X14944   2.716   2.021   9.143  0.0848 -0.1902 -0.8798
  137SAPE  H15Y14945   2.865   1.923   9.148  1.4958  0.0866 -1.7824
  137SAPE  C31614946   2.884   2.135   9.081  0.3191  0.6534 -0.2904
  137SAPE  H16X14947   2.890   2.093   8.978 -0.8208  2.2417 -1.0405
  137SAPE  H16Y14948   2.984   2.162   9.121 -0.1217  2.2536 -0.2182
  137SAPE  C31714949   2.793   2.254   9.064  0.1829  0.2510 -0.6795
  137SAPE  H17X14950   2.846   2.338   9.014 -0.7114  2.0638  1.2340
  137SAPE  H17Y14951   2.771   2.298   9.164 -0.8015 -1.2771 -0.1871
  137SAPE  C31814952   2.664   2.232   8.981 -0.3458  0.3718 -0.2878
  137SAPE  H18X14953   2.600   2.165   9.043  0.9964 -0.4680  0.2404
  137SAPE  H18Y14954   2.686   2.174   8.889  0.0382  1.2026 -0.7275
  137SAPE  H18Z14955   2.599   2.320   8.960 -1.1712  0.1583  1.2241
  138SAPE     N14956   5.903   2.784  11.116 -0.2131 -0.1358  0.0013
  138SAPE   HN114957   5.906   2.867  11.179 -0.3324 -0.5237  0.5206
  138SAPE   HN214958   5.872   2.705  11.175 -2.5857  0.0149 -0.9316
  138SAPE   HN314959   6.002   2.769  11.088  0.9539  2.5529  2.2521
  138SAPE   C1214960   5.780   2.793  11.029 -0.3321  0.0027 -0.2404
  138SAPE  H12A14961   5.797   2.871  10.951  3.4248 -0.8546 -0.4593
  138SAPE  H12B14962   5.692   2.821  11.090 -1.1477  3.1890 -2.5958
  138SAPE   C1114963   5.764   2.667  10.943  0.4212  0.2538 -0.7710
  138SAPE  H11A14964   5.698   2.686  10.856 -1.9773  0.0904  0.9263
  138SAPE  H11B14965   5.713   2.594  11.010  0.2954  1.4161  0.4313
  138SAPE     P14966   5.916   2.446  10.873  0.4734  0.2092 -0.0821
  138SAPE   O1314967   6.059   2.439  10.834  0.0755 -0.0605 -0.3463
  138SAPE   O1414968   5.860   2.361  10.983 -0.0304 -0.0462  0.3164
  138SAPE   O1214969   5.890   2.607  10.902  0.2969 -0.3266 -0.4404
  138SAPE   O1114970   5.824   2.412  10.749 -0.5603 -0.1583  0.2320
  138SAPE    C114971   5.811   2.504  10.641  0.0761 -0.4927  0.2578
  138SAPE    HA14972   5.861   2.600  10.667 -0.5705  0.4995 -1.9881
  138SAPE    HB14973   5.863   2.467  10.550 -1.0334  2.2043 -1.5964
  138SAPE    C214974   5.663   2.538  10.594 -0.1669  0.7563  0.3787
  138SAPE    HS14975   5.608   2.568  10.685 -3.9189 -2.7350 -0.4282
  138SAPE   O2114976   5.611   2.408  10.540 -0.5978 -0.2607 -0.2622
  138SAPE   C2114977   5.547   2.329  10.633 -0.4880 -0.4460  0.1803
  138SAPE   O2214978   5.520   2.369  10.743 -0.2439  0.4114  0.4340
  138SAPE   C2214979   5.524   2.191  10.575 -0.1254  0.0341 -0.2937
  138SAPE   H2R14980   5.621   2.141  10.553 -0.4845  0.6954 -4.0840
  138SAPE   H2S14981   5.477   2.133  10.657  0.3641  1.2068  0.8520
  138SAPE    C314982   5.660   2.656  10.491  0.3965  0.1634 -0.0892
  138SAPE    HX14983   5.670   2.756  10.538 -4.0000  0.1940  1.2601
  138SAPE    HY14984   5.558   2.653  10.447  0.1175 -0.7516  0.6050
  138SAPE   O3114985   5.734   2.637  10.376 -0.0653 -0.1568 -0.2045
  138SAPE   C3114986   5.854   2.695  10.369  0.0750  0.5857 -0.1029
  138SAPE   O3214987   5.898   2.780  10.447  0.6041  0.3931 -0.1458
  138SAPE   C3214988   5.929   2.641  10.253 -0.4917  0.4473 -0.2231
  138SAPE   H2X14989   5.892   2.552  10.197  0.7617 -0.1456 -0.1592
  138SAPE   H2Y14990   6.022   2.602  10.300 -0.7272  0.0538 -0.0797
  138SAPE   C2314991   5.454   2.191  10.443  0.9402  0.3959 -0.0808
  138SAPE   H3R14992   5.515   2.263  10.385 -0.5092  2.1291  0.4698
  138SAPE   H3S14993   5.349   2.226  10.452  0.7002 -0.6971  1.7924
  138SAPE   C2414994   5.472   2.051  10.378 -0.3434 -0.0355 -0.1476
  138SAPE   H4R14995   5.577   2.031  10.349 -0.6353  0.0307 -1.3104
  138SAPE   H4S14996   5.419   2.065  10.281 -0.5315 -0.4097 -0.0997
  138SAPE   C2514997   5.401   1.941  10.466  0.0352 -0.9460  0.3708
  138SAPE   H5R14998   5.469   1.880  10.527  2.2088  0.1953 -0.7756
  138SAPE   C2614999   5.273   1.910  10.448  0.1264 -0.1044 -0.2404
  138SAPE   H6R15000   5.228   1.837  10.517  1.1611 -0.6129 -0.0834
  138SAPE   C2715001   5.174   1.968  10.348 -0.3584 -0.0988 -0.3953
  138SAPE   H7R15002   5.185   2.078  10.341  0.7133 -0.0790  1.0071
  138SAPE   H7S15003   5.072   1.949  10.387  0.4771  2.4500  3.6622
  138SAPE   C2815004   5.193   1.899  10.217 -0.3360 -0.4653  0.4571
  138SAPE   H8R15005   5.175   1.790  10.223  2.7114 -1.2305 -1.7973
  138SAPE   C2915006   5.228   1.955  10.098 -0.0056  0.6537 -0.0923
  138SAPE   H9R15007   5.237   1.892  10.008 -0.0213  1.0813 -0.3968
  138SAPE  C21015008   5.254   2.098  10.072 -0.4360 -0.1885  0.0716
  138SAPE  H10R15009   5.244   2.159  10.164 -1.6280 -0.9726  0.4867
  138SAPE  H10S15010   5.181   2.144  10.002  1.7679  1.2031 -1.4523
  138SAPE  C21115011   5.383   2.126  10.003  0.0944 -0.3935  0.1232
  138SAPE  H11R15012   5.435   2.038   9.965 -2.6929 -2.6049  1.0693
  138SAPE  C21215013   5.441   2.251   9.991 -0.6861  0.7247 -1.2302
  138SAPE  H12R15014   5.536   2.265   9.937  0.4596 -1.2676  0.1064
  138SAPE  C21315015   5.376   2.375  10.036  0.2679  0.2427 -0.0491
  138SAPE  H13R15016   5.281   2.365  10.092  1.1165 -2.6794  1.0116
  138SAPE  H13S15017   5.354   2.447   9.953  0.7216  0.8602  0.3554
  138SAPE  C21415018   5.465   2.451  10.133 -0.2633 -1.1139 -0.4150
  138SAPE  H14R15019   5.486   2.394  10.225  0.9616  1.3590  0.9323
  138SAPE  C21515020   5.518   2.575  10.116  0.3120  0.9043 -0.2554
  138SAPE  H15R15021   5.588   2.610  10.193  0.8238  0.3947 -0.4779
  138SAPE  C21615022   5.483   2.661  10.004  0.0893  0.2703 -0.7636
  138SAPE  H16R15023   5.394   2.720  10.034  1.3602  1.1031  1.6840
  138SAPE  H16S15024   5.465   2.607   9.909 -0.9824  1.8305 -1.4928
  138SAPE  C21715025   5.593   2.764   9.973  0.1429  0.0377  0.3950
  138SAPE  H17R15026   5.692   2.726   9.941  0.0801  0.8540 -0.8180
  138SAPE  H17S15027   5.615   2.815  10.070 -0.2712  3.8341 -1.3377
  138SAPE  C21815028   5.536   2.867   9.877 -0.3298  0.2478  0.5103
  138SAPE  H18R15029   5.431   2.899   9.896 -0.3415 -0.3936  1.5935
  138SAPE  H18S15030   5.541   2.808   9.782 -1.0583 -1.4952  1.4972
  138SAPE  C21915031   5.623   3.000   9.870 -0.3513  0.5552 -0.0362
  138SAPE  H19R15032   5.728   2.962   9.873  0.4172  2.6271  1.2378
  138SAPE  H19S15033   5.608   3.048   9.969 -1.1498 -4.2862  2.4815
  138SAPE  C22015034   5.604   3.083   9.748 -0.0188  0.0848 -0.0853
  138SAPE  H20R15035   5.670   3.172   9.745  0.1815 -0.0671 -0.2014
  138SAPE  H20S15036   5.497   3.112   9.739  0.0368  0.2027 -0.3695
  138SAPE  H20T15037   5.625   3.023   9.657 -0.8742 -0.4252  0.0483
  138SAPE   C3315038   5.977   2.756  10.166  0.3123 -0.3208 -0.0525
  138SAPE   H3X15039   6.049   2.812  10.229  2.3130 -2.1725 -0.5451
  138SAPE   H3Y15040   5.886   2.811  10.134  1.7725  2.2588 -0.0451
  138SAPE   C3415041   6.035   2.711  10.031 -0.1741  0.1943 -0.5004
  138SAPE   H4X15042   5.959   2.639   9.994 -0.8195  0.2150  0.7564
  138SAPE   H4Y15043   6.130   2.658  10.052 -0.9660 -0.9057  0.4540
  138SAPE   C3515044   6.042   2.822   9.924  0.0323 -0.7771  0.7823
  138SAPE   H5X15045   6.098   2.909   9.966 -0.7249 -0.3546  0.9375
  138SAPE   H5Y15046   5.934   2.838   9.902  0.7548  0.2173 -2.5996
  138SAPE   C3615047   6.108   2.764   9.798  0.4853 -0.6444  0.2271
  138SAPE   H6X15048   6.061   2.664   9.789 -1.2122  0.2315 -1.4135
  138SAPE   H6Y15049   6.218   2.757   9.812  0.6624  2.4953  1.2188
  138SAPE   C3715050   6.079   2.843   9.668 -1.1187 -0.7358  0.7094
  138SAPE   H7X15051   6.096   2.951   9.685 -1.2655 -0.9504  2.3218
  138SAPE   H7Y15052   5.970   2.840   9.649 -0.8968 -1.0418 -0.6772
  138SAPE   C3815053   6.163   2.791   9.552  0.3254 -0.3302 -0.2890
  138SAPE   H8X15054   6.168   2.680   9.564  0.5949 -0.3960 -0.9460
  138SAPE   H8Y15055   6.269   2.823   9.565 -0.1970  1.0031  0.9346
  138SAPE   C3915056   6.122   2.816   9.401 -0.1542 -0.3147 -1.4575
  138SAPE   H9X15057   6.203   2.801   9.326 -0.6050  1.1407 -2.2794
  138SAPE   H9Y15058   6.104   2.925   9.395  0.5570  0.0736  1.5411
  138SAPE  C31015059   6.003   2.743   9.358  0.2165 -0.1705  0.4015
  138SAPE  H10X15060   5.920   2.781   9.421  0.6747  2.9144 -0.7027
  138SAPE  H10Y15061   5.998   2.634   9.380 -0.7005 -0.3198 -0.4793
  138SAPE  C31115062   5.969   2.771   9.206 -0.3500  0.1165 -0.2157
  138SAPE  H11X15063   6.042   2.713   9.145  0.0681  0.2932  0.1070
  138SAPE  H11Y15064   5.993   2.878   9.189 -1.2435  0.4370  0.4567
  138SAPE  C31215065   5.823   2.747   9.172  0.6313  0.1365 -0.2919
  138SAPE  H12X15066   5.763   2.791   9.254  0.6764 -2.1494  1.0465
  138SAPE  H12Y15067   5.792   2.640   9.175 -1.3106  0.7029  2.2215
  138SAPE  C31315068   5.787   2.812   9.036  0.3010 -0.0058  0.1297
  138SAPE  H13X15069   5.867   2.793   8.962  0.8449  2.4588  0.0209
  138SAPE  H13Y15070   5.779   2.922   9.044 -0.7733 -0.0155 -0.5834
  138SAPE  C31415071   5.650   2.758   8.979 -0.2064 -0.5627 -0.1685
  138SAPE  H14X15072   5.572   2.801   9.045  0.8086  2.2060 -0.6529
  138SAPE  H14Y15073   5.640   2.647   8.987  1.4060 -0.6757  0.8555
  138SAPE  C31515074   5.628   2.805   8.837 -0.2896 -0.0556 -0.1658
  138SAPE  H15X15075   5.669   2.728   8.769 -2.3419 -1.0359 -0.3662
  138SAPE  H15Y15076   5.679   2.903   8.827  0.0400 -0.1533  0.5240
  138SAPE  C31615077   5.478   2.820   8.806  0.8019 -0.0215 -0.2871
  138SAPE  H16X15078   5.455   2.854   8.703  1.0877 -0.0900 -0.3735
  138SAPE  H16Y15079   5.441   2.897   8.877 -1.4814 -1.2996 -0.0056
  138SAPE  C31715080   5.404   2.686   8.833 -0.8251  0.0197 -0.0607
  138SAPE  H17X15081   5.382   2.688   8.941  1.8818  1.6970  0.5586
  138SAPE  H17Y15082   5.459   2.592   8.811  0.2062  0.4662  0.5436
  138SAPE  C31815083   5.267   2.693   8.769 -0.9537  0.2330  0.2368
  138SAPE  H18X15084   5.218   2.787   8.802 -0.1396  0.3504  1.1491
  138SAPE  H18Y15085   5.206   2.602   8.788 -0.5354 -0.4883 -1.6063
  138SAPE  H18Z15086   5.266   2.697   8.658 -0.3358 -1.4040  0.1381
  139SAPE     N15087   3.194   6.606  10.977 -0.1145  0.5678 -0.3093
  139SAPE   HN115088   3.190   6.664  10.890 -0.4685  1.6517  0.4084
  139SAPE   HN215089   3.102   6.567  11.007  0.1251  0.6674  0.5922
  139SAPE   HN315090   3.219   6.677  11.049 -0.3087  0.6948 -0.3660
  139SAPE   C1215091   3.297   6.492  10.980 -0.6327  0.5289 -0.8496
  139SAPE  H12A15092   3.265   6.401  10.926  1.2595  0.5599 -2.1203
  139SAPE  H12B15093   3.310   6.468  11.088  0.2925  0.4970 -0.9608
  139SAPE   C1115094   3.438   6.531  10.922  0.1562  0.4573  0.6232
  139SAPE  H11A15095   3.435   6.534  10.811  1.5305  0.7113  0.5782
  139SAPE  H11B15096   3.510   6.449  10.943  0.1669  0.6850  1.5124
  139SAPE     P15097   3.623   6.669  11.054  0.1379  0.2075 -0.0232
  139SAPE   O1315098   3.629   6.807  11.104  0.2050  0.7703  0.5972
  139SAPE   O1415099   3.605   6.561  11.159  0.3888 -0.3167  0.0257
  139SAPE   O1215100   3.491   6.656  10.966  0.1998  0.4355 -0.5482
  139SAPE   O1115101   3.738   6.633  10.957 -0.1426  0.0460  0.1904
  139SAPE    C115102   3.738   6.695  10.824  0.0529  0.0368 -0.0149
  139SAPE    HA15103   3.632   6.708  10.792  0.1251  0.4956 -0.0752
  139SAPE    HB15104   3.786   6.795  10.824 -2.2279  1.2297 -1.5623
  139SAPE    C215105   3.812   6.596  10.724  0.4136 -0.6762 -0.1688
  139SAPE    HS15106   3.730   6.521  10.719 -4.0763  3.8010 -1.4497
  139SAPE   O2115107   3.935   6.557  10.786 -0.4899  0.4559 -0.3878
  139SAPE   C2115108   3.976   6.439  10.744  0.5409 -0.1620  0.1699
  139SAPE   O2215109   3.941   6.378  10.644 -0.2478  0.6180  0.1737
  139SAPE   C2215110   4.072   6.380  10.849  0.6819  0.3052 -0.2810
  139SAPE   H2R15111   4.135   6.464  10.886 -0.9776  1.5391 -0.1409
  139SAPE   H2S15112   4.006   6.358  10.936  0.5128 -1.9925 -0.9488
  139SAPE    C315113   3.843   6.668  10.594  0.8664 -0.0560  0.1305
  139SAPE    HX15114   3.887   6.594  10.524  0.4966  1.2814 -1.5944
  139SAPE    HY15115   3.921   6.743  10.616  0.4838 -0.3794  2.8789
  139SAPE   O3115116   3.734   6.736  10.544  0.1293 -0.1967  0.2086
  139SAPE   C3115117   3.646   6.662  10.476  0.3218 -0.3764 -0.4741
  139SAPE   O3215118   3.640   6.543  10.466  0.2625  0.0783  0.3894
  139SAPE   C3215119   3.546   6.752  10.406  0.1518 -0.6539 -0.2190
  139SAPE   H2X15120   3.489   6.805  10.485  2.3649 -1.0508  1.7449
  139SAPE   H2Y15121   3.478   6.681  10.355  2.0176 -2.4941 -0.2894
  139SAPE   C2315122   4.151   6.248  10.826 -0.2298  0.2194  0.3472
  139SAPE   H3R15123   4.077   6.183  10.774  0.7387 -1.1913  0.6836
  139SAPE   H3S15124   4.162   6.199  10.925 -3.1060  0.6187  0.9573
  139SAPE   C2415125   4.289   6.260  10.763  0.3948 -0.4549  1.1285
  139SAPE   H4R15126   4.342   6.163  10.762  1.2953  0.0058 -0.6756
  139SAPE   H4S15127   4.340   6.331  10.832  0.4122  3.3318 -2.3788
  139SAPE   C2515128   4.289   6.316  10.615  0.0405  0.3554  0.2826
  139SAPE   H5R15129   4.339   6.413  10.605  0.2805  0.2285  0.2294
  139SAPE   C2615130   4.248   6.242  10.510  0.1676  0.4720 -0.0234
  139SAPE   H6R15131   4.252   6.298  10.415 -1.9847  1.0653  0.1964
  139SAPE   C2715132   4.192   6.105  10.495  0.4258  0.3068  1.1242
  139SAPE   H7R15133   4.081   6.115  10.487  0.1645 -2.2519  0.4717
  139SAPE   H7S15134   4.196   6.065  10.598  0.1473  0.2309  1.1082
  139SAPE   C2815135   4.265   6.009  10.393 -0.3642 -0.3220  0.5577
  139SAPE   H8R15136   4.289   5.916  10.447 -1.1779  0.4148  2.2744
  139SAPE   C2915137   4.296   6.017  10.264 -0.4196 -0.1475  0.1362
  139SAPE   H9R15138   4.339   5.934  10.206 -0.6108  0.7789 -1.3901
  139SAPE  C21015139   4.258   6.129  10.170 -0.4597  0.4785  0.1901
  139SAPE  H10R15140   4.196   6.209  10.216  0.2846  0.8061  0.6540
  139SAPE  H10S15141   4.186   6.090  10.095  0.9920  0.9576 -1.5265
  139SAPE  C21115142   4.385   6.182  10.107 -0.4560 -0.2926 -0.3099
  139SAPE  H11R15143   4.474   6.151  10.163  0.8149  0.0853 -2.0323
  139SAPE  C21215144   4.391   6.255   9.997  0.1596 -0.4431 -0.4974
  139SAPE  H12R15145   4.486   6.298   9.962  0.4678 -1.0897 -0.4500
  139SAPE  C21315146   4.269   6.299   9.920  0.4141  0.8854  0.6633
  139SAPE  H13R15147   4.183   6.317   9.987  0.4761  2.0120  0.4731
  139SAPE  H13S15148   4.242   6.205   9.868  0.8959  0.2316  1.5666
  139SAPE  C21415149   4.277   6.401   9.806  0.1695  0.2462 -0.8502
  139SAPE  H14R15150   4.381   6.425   9.781  0.8620 -0.5216  1.0636
  139SAPE  C21515151   4.182   6.459   9.741  0.0654  0.4730  0.0594
  139SAPE  H15R15152   4.223   6.523   9.661  1.8822 -0.8960 -0.1767
  139SAPE  C21615153   4.035   6.427   9.758  0.5313  0.0447 -0.5798
  139SAPE  H16R15154   3.989   6.525   9.786  1.3545  0.6726 -1.3657
  139SAPE  H16S15155   4.010   6.356   9.839 -3.4513 -1.0210 -2.4860
  139SAPE  C21715156   3.946   6.374   9.643 -0.3359  0.8966 -0.5580
  139SAPE  H17R15157   3.956   6.265   9.626  0.2282  0.8237  0.2161
  139SAPE  H17S15158   3.974   6.432   9.553  1.1353  1.7967  0.4440
  139SAPE  C21815159   3.799   6.418   9.663 -0.4935  0.6927 -0.1967
  139SAPE  H18R15160   3.793   6.528   9.679 -3.0714  0.5782  0.0466
  139SAPE  H18S15161   3.763   6.371   9.757  0.1915 -2.3321 -1.3434
  139SAPE  C21915162   3.704   6.365   9.555  0.8153  0.0399  0.5030
  139SAPE  H19R15163   3.751   6.283   9.496 -0.3812  1.0545 -2.0206
  139SAPE  H19S15164   3.697   6.456   9.492  0.8226  0.1314  0.6341
  139SAPE  C22015165   3.562   6.335   9.618 -0.8170  0.5907  0.7546
  139SAPE  H20R15166   3.486   6.302   9.544 -0.0855  0.2928  0.1239
  139SAPE  H20S15167   3.514   6.418   9.674 -2.0512 -0.0898  0.7486
  139SAPE  H20T15168   3.568   6.246   9.683 -2.1677  0.3139  0.5425
  139SAPE   C3315169   3.605   6.837  10.294  0.4213 -0.7365  0.0287
  139SAPE   H3X15170   3.672   6.917  10.332 -1.1062 -0.4158  2.1825
  139SAPE   H3Y15171   3.533   6.894  10.231  2.1008  0.0462 -1.2658
  139SAPE   C3415172   3.688   6.750  10.196 -0.0717  0.4709  0.6831
  139SAPE   H4X15173   3.627   6.665  10.158  1.7315 -0.4591 -0.3033
  139SAPE   H4Y15174   3.769   6.702  10.254 -0.4797 -1.7004 -0.4445
  139SAPE   C3515175   3.754   6.830  10.076  0.0083 -0.1894  0.2343
  139SAPE   H5X15176   3.818   6.908  10.124 -0.0778 -1.0833  1.8934
  139SAPE   H5Y15177   3.679   6.881  10.013 -0.7593  0.4420  1.6055
  139SAPE   C3615178   3.845   6.743   9.986  0.4828 -0.2010  0.0378
  139SAPE   H6X15179   3.777   6.671   9.935  0.6605  1.0036 -2.0010
  139SAPE   H6Y15180   3.909   6.683  10.055  0.1059  1.2385  1.7066
  139SAPE   C3715181   3.942   6.814   9.900 -0.2942 -0.1853 -0.9636
  139SAPE   H7X15182   4.001   6.736   9.849 -0.4991 -0.9113 -0.1074
  139SAPE   H7Y15183   4.013   6.879   9.956 -1.2654 -0.2263  0.3518
  139SAPE   C3815184   3.877   6.898   9.790 -0.9565  0.0159 -0.1732
  139SAPE   H8X15185   3.966   6.958   9.761  0.3008 -1.7893 -0.2037
  139SAPE   H8Y15186   3.802   6.963   9.840 -0.4627  1.5009 -1.2727
  139SAPE   C3915187   3.813   6.827   9.684  0.2249 -0.3993  0.1168
  139SAPE   H9X15188   3.748   6.748   9.728  2.1769 -0.5090  3.1241
  139SAPE   H9Y15189   3.884   6.770   9.620  0.6542 -0.5701  0.7342
  139SAPE  C31015190   3.733   6.917   9.589 -0.2788  0.4086  0.4221
  139SAPE  H10X15191   3.807   6.997   9.567 -0.8917  1.4416  1.9524
  139SAPE  H10Y15192   3.658   6.974   9.647 -0.2485 -0.5475  1.4281
  139SAPE  C31115193   3.672   6.862   9.460 -0.3139  0.0004  0.3963
  139SAPE  H11X15194   3.592   6.789   9.484 -0.9133  0.1032 -1.2226
  139SAPE  H11Y15195   3.751   6.806   9.404 -0.6589  0.0003 -0.0896
  139SAPE  C31215196   3.611   6.969   9.368 -0.3154 -0.8622 -0.2840
  139SAPE  H12X15197   3.691   7.039   9.336 -1.0254 -0.3935 -1.0570
  139SAPE  H12Y15198   3.527   7.025   9.415 -0.8904 -1.5943 -0.4129
  139SAPE  C31315199   3.553   6.908   9.244 -0.0787 -0.0247 -0.1905
  139SAPE  H13X15200   3.471   6.840   9.275 -0.3486 -1.0499 -2.8453
  139SAPE  H13Y15201   3.627   6.860   9.176  1.0411 -0.9688  1.6259
  139SAPE  C31415202   3.499   7.009   9.128  0.6376  0.6782 -0.3852
  139SAPE  H14X15203   3.449   6.958   9.043  0.2251 -1.6172  1.1409
  139SAPE  H14Y15204   3.592   7.052   9.086  0.9960 -0.4975 -0.8431
  139SAPE  C31515205   3.404   7.111   9.188  0.0140 -0.1082 -0.3334
  139SAPE  H15X15206   3.456   7.174   9.263  0.6842 -1.1604  0.1082
  139SAPE  H15Y15207   3.333   7.048   9.247  0.1909  0.3770  0.4111
  139SAPE  C31615208   3.318   7.198   9.090 -0.4229  0.2013 -0.2399
  139SAPE  H16X15209   3.293   7.288   9.149  1.9001  0.3031  0.7123
  139SAPE  H16Y15210   3.381   7.233   9.006 -0.2484  1.2727  0.3224
  139SAPE  C31715211   3.181   7.136   9.058  0.0772  0.1381  0.3599
  139SAPE  H17X15212   3.200   7.049   8.992  1.3992 -0.1984  1.1515
  139SAPE  H17Y15213   3.128   7.201   8.985 -1.3752 -1.3931 -0.0011
  139SAPE  C31815214   3.087   7.103   9.173 -0.5261 -1.5340  0.8243
  139SAPE  H18X15215   3.056   7.198   9.221 -1.8609 -1.3941 -0.2566
  139SAPE  H18Y15216   3.119   7.036   9.255 -2.2167  0.5863  3.3726
  139SAPE  H18Z15217   2.990   7.069   9.130 -1.0775  1.9822 -1.0876
  140SAPE     N15218   0.730   3.187  11.195  0.0781  0.0456 -0.3962
  140SAPE   HN115219   0.656   3.214  11.127  1.4751  0.0396 -1.9825
  140SAPE   HN215220   0.779   3.101  11.166  0.6720  0.3909 -0.4254
  140SAPE   HN315221   0.674   3.161  11.279  1.9652  1.1387  1.2838
  140SAPE   C1215222   0.835   3.299  11.223 -0.5141  0.3664 -0.0411
  140SAPE  H12A15223   0.909   3.310  11.141 -0.6010  1.1425 -0.0232
  140SAPE  H12B15224   0.892   3.272  11.315  0.0294 -0.0672 -0.4957
  140SAPE   C1115225   0.764   3.430  11.263  0.0481  0.3176  0.2245
  140SAPE  H11A15226   0.727   3.470  11.166 -1.2044 -0.9663  0.1415
  140SAPE  H11B15227   0.831   3.505  11.311  0.6460 -0.4390  0.5903
  140SAPE     P15228   0.554   3.520  11.390 -0.3433 -0.2092 -0.5645
  140SAPE   O1315229   0.449   3.451  11.466  0.7394  0.4663  0.0998
  140SAPE   O1415230   0.634   3.628  11.460  0.2694  0.0250  0.5788
  140SAPE   O1215231   0.653   3.404  11.350 -0.8489  0.2623  0.2124
  140SAPE   O1115232   0.501   3.559  11.251  0.2216 -0.1794  0.2807
  140SAPE    C115233   0.442   3.463  11.158  0.0439  0.6546 -0.1382
  140SAPE    HA15234   0.513   3.380  11.138  1.2742  2.1454 -2.3422
  140SAPE    HB15235   0.353   3.413  11.202  0.9103  0.9275  2.0774
  140SAPE    C215236   0.389   3.524  11.023  1.0465 -0.3031  0.4665
  140SAPE    HS15237   0.343   3.437  10.971  1.5827 -1.1962  1.4431
  140SAPE   O2115238   0.503   3.588  10.957 -0.0750  0.4912 -0.6888
  140SAPE   C2115239   0.568   3.507  10.871  0.3491 -0.1787 -0.0657
  140SAPE   O2215240   0.538   3.390  10.856 -0.7450  0.0013 -0.0111
  140SAPE   C2215241   0.668   3.581  10.783  0.2953 -0.1991 -0.2763
  140SAPE   H2R15242   0.614   3.600  10.688  0.6421 -1.8182 -0.8328
  140SAPE   H2S15243   0.694   3.676  10.834  1.1760  0.0735 -1.1762
  140SAPE    C315244   0.280   3.634  11.037  0.3765 -0.3030  0.2872
  140SAPE    HX15245   0.321   3.720  11.093 -1.9930  0.2533  1.3091
  140SAPE    HY15246   0.197   3.601  11.104 -0.6328  2.1611  0.3649
  140SAPE   O3115247   0.221   3.669  10.909 -0.3087 -0.1073  0.5582
  140SAPE   C3115248   0.165   3.792  10.909 -0.8296  0.3969  0.2742
  140SAPE   O3215249   0.173   3.873  10.999 -0.6287  0.0456 -0.4301
  140SAPE   C3215250   0.119   3.818  10.767 -0.1345  0.6771  0.6354
  140SAPE   H2X15251   0.211   3.834  10.706  0.3040  2.4965  1.7034
  140SAPE   H2Y15252   0.063   3.914  10.767  0.1878  0.9168 -1.7708
  140SAPE   C2315253   0.785   3.489  10.748  0.5366 -0.1541  0.9666
  140SAPE   H3R15254   0.751   3.387  10.716 -1.0813  1.2812 -2.4511
  140SAPE   H3S15255   0.851   3.479  10.837  0.4890  0.4658  1.0703
  140SAPE   C2415256   0.856   3.539  10.620 -0.5972  0.2187 -0.2248
  140SAPE   H4R15257   0.894   3.639  10.651  0.0276 -0.9162  3.1856
  140SAPE   H4S15258   0.783   3.536  10.537 -0.5568  0.0347 -0.2542
  140SAPE   C2515259   0.976   3.445  10.596 -0.5179 -0.6373  0.1475
  140SAPE   H5R15260   1.051   3.431  10.676  0.0739  1.2256 -0.0289
  140SAPE   C2615261   0.995   3.385  10.476 -0.0586 -0.4622 -0.0728
  140SAPE   H6R15262   1.081   3.318  10.461 -0.9942 -1.3807 -1.5737
  140SAPE   C2715263   0.911   3.394  10.349 -0.1801  0.2692  0.0152
  140SAPE   H7R15264   0.816   3.448  10.367  0.9986  2.1755  0.8085
  140SAPE   H7S15265   0.884   3.289  10.323 -1.7620  0.5998  0.2036
  140SAPE   C2815266   0.976   3.472  10.239 -0.2782 -0.4355 -0.2756
  140SAPE   H8R15267   0.971   3.582  10.240 -1.9543 -0.4878  0.5875
  140SAPE   C2915268   1.046   3.415  10.140  0.7955  0.0032 -0.0079
  140SAPE   H9R15269   1.089   3.478  10.061  0.1888 -0.2678 -0.5683
  140SAPE  C21015270   1.069   3.267  10.122  0.0079 -0.1929 -0.0851
  140SAPE  H10R15271   1.040   3.210  10.213  2.1939  0.0795  0.8508
  140SAPE  H10S15272   1.178   3.254  10.103 -0.3102  0.1221 -2.3697
  140SAPE  C21115273   0.993   3.217   9.997  0.3060 -1.1423  0.6861
  140SAPE  H11R15274   0.911   3.146  10.014  0.4620 -2.2197 -2.3285
  140SAPE  C21215275   1.020   3.249   9.865  0.3043 -0.4493  0.4691
  140SAPE  H12R15276   0.978   3.174   9.797 -0.9315 -0.6629  1.4330
  140SAPE  C21315277   1.125   3.345   9.797 -0.5360  0.3701  0.2672
  140SAPE  H13R15278   1.135   3.437   9.859 -1.0104  1.8597 -1.7500
  140SAPE  H13S15279   1.089   3.380   9.698  1.2374 -1.1197 -0.9475
  140SAPE  C21415280   1.261   3.273   9.795  0.2625 -0.6675  0.1337
  140SAPE  H14R15281   1.298   3.238   9.892  1.9982  0.6330 -0.0133
  140SAPE  C21515282   1.344   3.259   9.686 -0.0878  0.1091  0.0890
  140SAPE  H15R15283   1.444   3.220   9.713  0.1033 -0.1543 -0.9645
  140SAPE  C21615284   1.330   3.301   9.542  0.1978 -0.1615 -0.0856
  140SAPE  H16R15285   1.252   3.380   9.550 -0.1910 -0.5440 -0.0667
  140SAPE  H16S15286   1.275   3.223   9.486 -1.1187  0.6456  0.0375
  140SAPE  C21715287   1.454   3.338   9.456  0.6411  0.3573 -0.4974
  140SAPE  H17R15288   1.521   3.251   9.439 -0.1330 -0.4821  0.6202
  140SAPE  H17S15289   1.524   3.413   9.499 -0.4768  1.5777 -0.7023
  140SAPE  C21815290   1.414   3.392   9.317 -0.8378 -0.2366 -0.4651
  140SAPE  H18R15291   1.346   3.479   9.325 -0.8919 -0.3177 -0.0491
  140SAPE  H18S15292   1.346   3.316   9.272 -1.1646 -0.4256  0.3451
  140SAPE  C21915293   1.530   3.415   9.222 -0.6187  0.2062  0.0847
  140SAPE  H19R15294   1.475   3.460   9.136 -1.4452  1.0603  1.0420
  140SAPE  H19S15295   1.572   3.321   9.179 -1.6645  0.0933 -0.7364
  140SAPE  C22015296   1.645   3.501   9.274 -0.2112  0.8714  0.6245
  140SAPE  H20R15297   1.613   3.590   9.332  2.5397  2.0969  0.4299
  140SAPE  H20S15298   1.710   3.527   9.188  0.1472 -1.1329  0.2416
  140SAPE  H20T15299   1.708   3.443   9.345 -0.4067  1.1796  1.0596
  140SAPE   C3315300   0.035   3.716  10.686 -0.6109 -0.2365 -0.2112
  140SAPE   H3X15301  -0.056   3.694  10.746  1.0058 -1.2447  2.0231
  140SAPE   H3Y15302   0.087   3.618  10.672 -0.7131 -0.5239  1.1939
  140SAPE   C3415303  -0.013   3.788  10.557  0.1710 -0.7268 -0.4667
  140SAPE   H4X15304   0.066   3.861  10.532  0.5419 -0.9908 -0.0809
  140SAPE   H4Y15305  -0.110   3.842  10.567  0.1242 -0.8089 -0.4697
  140SAPE   C3515306  -0.014   3.699  10.433  0.1187 -0.3896 -0.5138
  140SAPE   H5X15307  -0.097   3.625  10.433  0.7522 -1.1070 -0.5778
  140SAPE   H5Y15308   0.082   3.643  10.441  1.3542  1.6540 -0.3509
  140SAPE   C3615309  -0.014   3.779  10.303 -0.7155 -0.9496 -0.1426
  140SAPE   H6X15310   0.079   3.840  10.297  0.0211 -1.9786  0.5484
  140SAPE   H6Y15311  -0.102   3.847  10.306 -1.6232 -1.9616  4.5441
  140SAPE   C3715312  -0.019   3.695  10.168 -0.4296  0.1691  0.2677
  140SAPE   H7X15313  -0.020   3.759  10.078  0.1862 -1.6612 -1.1084
  140SAPE   H7Y15314  -0.111   3.632  10.163  0.6974 -1.5003 -0.1032
  140SAPE   C3815315   0.098   3.594  10.146  0.1616  0.3267  0.6049
  140SAPE   H8X15316   0.114   3.536  10.240  2.0368 -0.9766 -0.4358
  140SAPE   H8Y15317   0.190   3.651  10.123 -0.3551  0.1281 -2.2694
  140SAPE   C3915318   0.069   3.491  10.036  0.5300  0.0364  0.1793
  140SAPE   H9X15319  -0.018   3.435  10.074 -0.6295  3.5126  3.1856
  140SAPE   H9Y15320   0.164   3.435  10.027  0.8388  0.1880  2.1123
  140SAPE  C31015321   0.037   3.558   9.899  0.2190  0.6790  0.4996
  140SAPE  H10X15322   0.112   3.635   9.871  0.4984  0.8812  1.7310
  140SAPE  H10Y15323  -0.068   3.593   9.893  0.2139  0.6902  0.6473
  140SAPE  C31115324   0.035   3.449   9.793  0.1575  0.2020  0.7516
  140SAPE  H11X15325  -0.017   3.355   9.823 -1.9414  0.8458 -0.6567
  140SAPE  H11Y15326   0.141   3.428   9.768 -0.1525 -0.4114 -0.0901
  140SAPE  C31215327  -0.039   3.494   9.662 -1.0501 -0.6616 -0.4870
  140SAPE  H12X15328  -0.016   3.602   9.653  1.5478 -1.0850  0.3055
  140SAPE  H12Y15329  -0.149   3.479   9.673 -1.2241  1.6205  2.0276
  140SAPE  C31315330   0.009   3.424   9.533 -0.2171 -0.0848  0.1454
  140SAPE  H13X15331  -0.012   3.315   9.548 -0.0917  0.0635  1.5714
  140SAPE  H13Y15332   0.120   3.428   9.524 -0.3879  0.0450 -2.8314
  140SAPE  C31415333  -0.055   3.479   9.404 -1.2036  0.6055  0.1658
  140SAPE  H14X15334  -0.051   3.587   9.378 -1.5611  0.6612  0.3360
  140SAPE  H14Y15335  -0.165   3.479   9.418 -1.1821  1.4330  0.4148
  140SAPE  C31515336  -0.022   3.388   9.284 -0.1154  0.9244 -0.3964
  140SAPE  H15X15337  -0.110   3.337   9.239 -1.7507  1.9632  1.4844
  140SAPE  H15Y15338   0.052   3.319   9.329 -1.5154  0.1466  0.7585
  140SAPE  C31615339   0.040   3.475   9.176  0.2227 -0.5799  0.5927
  140SAPE  H16X15340   0.100   3.559   9.214 -2.0376  0.9006  1.0951
  140SAPE  H16Y15341  -0.051   3.528   9.140  0.8184  0.4049  0.4979
  140SAPE  C31715342   0.112   3.398   9.063 -0.3454  0.2028 -1.1265
  140SAPE  H17X15343   0.070   3.298   9.039  1.4426 -1.7631  2.9176
  140SAPE  H17Y15344   0.213   3.362   9.094 -1.4124 -0.6876  1.6278
  140SAPE  C31815345   0.125   3.483   8.939  0.2629 -0.0514 -0.0133
  140SAPE  H18X15346   0.186   3.574   8.954 -2.3195  1.7000  0.3491
  140SAPE  H18Y15347   0.030   3.525   8.901  0.6339 -0.5633 -1.6046
  140SAPE  H18Z15348   0.177   3.422   8.861  1.0312 -1.0355  1.2362
  141SAPE     N15349   0.185   4.555  11.218  0.7076 -0.1343 -0.2125
  141SAPE   HN115350   0.240   4.628  11.268  0.5329  0.4508 -0.8621
  141SAPE   HN215351   0.246   4.495  11.159 -0.3461  0.3009 -1.8048
  141SAPE   HN315352   0.121   4.610  11.157 -2.0412 -2.2099  0.5854
  141SAPE   C1215353   0.082   4.475  11.300 -0.3117  0.2043 -0.7963
  141SAPE  H12A15354   0.128   4.479  11.401 -0.7042  3.3691 -0.6607
  141SAPE  H12B15355   0.073   4.373  11.257 -1.3536  0.8309 -2.1366
  141SAPE   C1115356  -0.041   4.548  11.317  0.2937  0.5025  1.2823
  141SAPE  H11A15357  -0.034   4.628  11.393  2.8416  1.5523  0.0433
  141SAPE  H11B15358  -0.115   4.475  11.358 -1.1745  0.5240 -1.1090
  141SAPE     P15359  -0.232   4.667  11.200  0.3911  0.4803 -0.7206
  141SAPE   O1315360  -0.339   4.588  11.265  0.1692 -0.2859 -0.3714
  141SAPE   O1415361  -0.199   4.801  11.253  0.0035  0.3599 -0.1524
  141SAPE   O1215362  -0.101   4.589  11.192  0.1346  0.7074 -0.0566
  141SAPE   O1115363  -0.271   4.694  11.046  0.1191  0.1284 -0.6414
  141SAPE    C115364  -0.169   4.713  10.950 -0.0409  0.3178  0.0901
  141SAPE    HA15365  -0.195   4.813  10.908 -0.9797  0.7689  1.6668
  141SAPE    HB15366  -0.066   4.724  10.990 -0.8184 -1.3433  2.7864
  141SAPE    C215367  -0.177   4.594  10.845 -0.2650 -0.8956  0.0943
  141SAPE    HS15368  -0.112   4.514  10.887  1.4822 -0.5848 -1.8687
  141SAPE   O2115369  -0.101   4.650  10.735  0.1051 -1.2521 -0.0731
  141SAPE   C2115370  -0.050   4.566  10.646  0.0807 -0.0271 -0.4035
  141SAPE   O2215371  -0.039   4.447  10.665 -0.0662  0.3633  0.4220
  141SAPE   C2215372   0.003   4.639  10.519 -0.2699  0.2307 -0.1265
  141SAPE   H2R15373  -0.071   4.706  10.470 -0.9875  0.8258  1.6550
  141SAPE   H2S15374   0.082   4.706  10.558 -0.0229  0.1690 -0.5210
  141SAPE    C315375  -0.318   4.540  10.807  0.3404 -0.4841  0.1423
  141SAPE    HX15376  -0.361   4.493  10.897 -0.5642  0.7949  0.3973
  141SAPE    HY15377  -0.301   4.471  10.721 -1.4741  0.4338 -1.0268
  141SAPE   O3115378  -0.410   4.645  10.772 -0.4030  0.3526  0.2340
  141SAPE   C3115379  -0.406   4.683  10.642  0.1043 -0.5882 -0.7520
  141SAPE   O3215380  -0.381   4.613  10.549  0.4146  0.3813 -0.1451
  141SAPE   C3215381  -0.434   4.836  10.640  0.1628  0.1477 -0.2806
  141SAPE   H2X15382  -0.382   4.867  10.734 -1.6657 -1.7715  1.4830
  141SAPE   H2Y15383  -0.542   4.852  10.663  0.8543  1.4007  2.5388
  141SAPE   C2315384   0.056   4.548  10.405  0.1172  0.6803 -0.5359
  141SAPE   H3R15385  -0.014   4.465  10.382  1.3308 -0.4548 -0.2762
  141SAPE   H3S15386   0.153   4.498  10.427 -1.8419 -3.2603  0.0427
  141SAPE   C2415387   0.072   4.620  10.270  0.7076 -0.0796 -0.0948
  141SAPE   H4R15388   0.143   4.571  10.201 -1.1676 -1.9314 -0.7919
  141SAPE   H4S15389   0.116   4.715  10.308  0.9929 -0.9691  1.9509
  141SAPE   C2515390  -0.049   4.654  10.181  0.0218  0.2434 -0.6733
  141SAPE   H5R15391  -0.131   4.692  10.244  0.5220  0.2646 -0.0347
  141SAPE   C2615392  -0.077   4.644  10.053  0.5657 -0.1949  0.0277
  141SAPE   H6R15393  -0.166   4.694  10.012  0.1985 -0.8266  0.0462
  141SAPE   C2715394   0.005   4.575   9.948  0.4442 -0.3337 -0.6548
  141SAPE   H7R15395   0.088   4.522   9.999  0.0006  1.0547  1.6870
  141SAPE   H7S15396   0.056   4.662   9.902  2.7523  0.0851  2.3543
  141SAPE   C2815397  -0.073   4.492   9.855 -0.2030 -0.1059  0.2871
  141SAPE   H8R15398  -0.177   4.464   9.876 -0.2214 -1.4526 -1.4069
  141SAPE   C2915399  -0.029   4.441   9.746 -0.5974  0.7652 -0.3077
  141SAPE   H9R15400  -0.092   4.364   9.698  1.1439  0.3028 -1.9781
  141SAPE  C21015401   0.106   4.456   9.685 -0.3976  0.3546  0.3735
  141SAPE  H10R15402   0.184   4.493   9.755  0.5257  0.2570 -0.5646
  141SAPE  H10S15403   0.090   4.531   9.604  1.2798 -0.1236 -0.4619
  141SAPE  C21115404   0.160   4.324   9.624  0.1735 -0.4565  0.2631
  141SAPE  H11R15405   0.204   4.247   9.689  2.2633 -1.0397 -1.6973
  141SAPE  C21215406   0.171   4.286   9.494 -0.5685  0.0614 -0.1473
  141SAPE  H12R15407   0.230   4.198   9.467  1.0607  1.2684 -0.6666
  141SAPE  C21315408   0.110   4.367   9.384  0.2794 -0.3353 -0.4303
  141SAPE  H13R15409   0.190   4.417   9.327 -0.8249 -0.8485 -2.5370
  141SAPE  H13S15410   0.060   4.460   9.418  0.6228  0.5784 -2.3388
  141SAPE  C21415411   0.015   4.284   9.307 -0.2333  0.7780  0.1784
  141SAPE  H14R15412  -0.085   4.265   9.350 -0.7703 -2.8288 -2.2350
  141SAPE  C21515413   0.047   4.243   9.184 -0.0679 -0.1808  0.4493
  141SAPE  H15R15414  -0.032   4.197   9.122 -0.0513  1.4003 -0.8001
  141SAPE  C21615415   0.181   4.257   9.111 -0.4893 -0.5972  0.1356
  141SAPE  H16R15416   0.208   4.162   9.061 -1.4202 -1.0017  0.3864
  141SAPE  H16S15417   0.265   4.277   9.181 -0.9319  0.5429  0.3638
  141SAPE  C21715418   0.192   4.368   8.999 -0.4319  0.4668 -0.3107
  141SAPE  H17R15419   0.121   4.451   9.020  0.7381  1.3614  0.2310
  141SAPE  H17S15420   0.157   4.322   8.904  0.9807  3.9921 -2.7496
  141SAPE  C21815421   0.331   4.420   8.977 -0.0439  0.1093 -0.2493
  141SAPE  H18R15422   0.397   4.336   8.949 -0.7511 -0.1928 -1.0654
  141SAPE  H18S15423   0.362   4.456   9.078 -2.9072 -2.0209  1.5316
  141SAPE  C21915424   0.338   4.535   8.876  0.5595 -0.2104  0.0844
  141SAPE  H19R15425   0.258   4.606   8.907  0.7278 -0.2948  0.7180
  141SAPE  H19S15426   0.301   4.501   8.777  1.7730  1.9638 -1.1951
  141SAPE  C22015427   0.477   4.603   8.858 -0.0930 -0.4237  0.2041
  141SAPE  H20R15428   0.490   4.696   8.918  2.2213 -0.0417 -0.7940
  141SAPE  H20S15429   0.493   4.640   8.754  0.7722  0.6212  0.6938
  141SAPE  H20T15430   0.563   4.536   8.877 -0.8830 -1.4741  0.1849
  141SAPE   C3315431  -0.383   4.906  10.509 -0.1409  0.1460  0.7937
  141SAPE   H3X15432  -0.284   4.858  10.489  0.1957  1.5694 -1.2750
  141SAPE   H3Y15433  -0.375   5.015  10.531 -0.7465  0.4383 -0.3581
  141SAPE   C3415434  -0.490   4.896  10.394  0.8587 -0.3413 -0.1201
  141SAPE   H4X15435  -0.587   4.929  10.434  1.8310  0.5984  1.5745
  141SAPE   H4Y15436  -0.495   4.790  10.362 -0.1588 -1.0057  2.0648
  141SAPE   C3515437  -0.451   4.984  10.272  0.7969 -0.2558 -0.2450
  141SAPE   H5X15438  -0.485   5.087  10.299 -2.0811 -1.1756 -0.0134
  141SAPE   H5Y15439  -0.518   4.955  10.189 -1.1248 -1.4877  1.6217
  141SAPE   C3615440  -0.306   4.993  10.230  0.5581  0.2476  0.0579
  141SAPE   H6X15441  -0.272   4.889  10.212  0.0377 -0.0320  0.6374
  141SAPE   H6Y15442  -0.234   5.033  10.305  2.1286  0.4858 -1.5161
  141SAPE   C3715443  -0.309   5.071  10.099 -0.2484  0.2353 -0.4990
  141SAPE   H7X15444  -0.339   5.176  10.122  2.1275  1.3042 -1.8721
  141SAPE   H7Y15445  -0.368   5.021  10.020 -0.1202  1.0129 -1.0988
  141SAPE   C3815446  -0.166   5.079  10.036  0.2410  0.2814 -0.7923
  141SAPE   H8X15447  -0.118   4.982  10.009  0.9089  0.8801 -1.8273
  141SAPE   H8Y15448  -0.099   5.125  10.112 -0.7366 -0.9925  0.9251
  141SAPE   C3915449  -0.148   5.174   9.910 -0.1561  0.1046  0.1201
  141SAPE   H9X15450  -0.041   5.203   9.921  0.0974 -1.0391  0.8505
  141SAPE   H9Y15451  -0.211   5.264   9.924 -0.0098  0.1887  0.2469
  141SAPE  C31015452  -0.163   5.095   9.774 -0.3809 -0.0416 -0.1092
  141SAPE  H10X15453  -0.260   5.042   9.759  0.7256 -2.2034  0.0556
  141SAPE  H10Y15454  -0.106   5.000   9.781  0.1669  0.3024  0.1335
  141SAPE  C31115455  -0.110   5.171   9.655  0.8182 -0.3233  1.6256
  141SAPE  H11X15456   0.000   5.181   9.666  1.0918  0.0425 -0.9029
  141SAPE  H11Y15457  -0.153   5.273   9.644  0.9122 -0.4921 -0.8697
  141SAPE  C31215458  -0.143   5.092   9.520  0.7976 -0.6005 -0.5291
  141SAPE  H12X15459  -0.242   5.043   9.533  0.2018  0.9128  0.9376
  141SAPE  H12Y15460  -0.072   5.006   9.520  2.7585  0.9476  0.8938
  141SAPE  C31315461  -0.136   5.180   9.392  0.1549 -0.5201  0.1709
  141SAPE  H13X15462  -0.030   5.204   9.367  0.7802 -1.9708  1.2566
  141SAPE  H13Y15463  -0.189   5.273   9.422  1.4245  0.0162  0.8383
  141SAPE  C31415464  -0.213   5.114   9.280 -0.1919 -0.1406 -0.7889
  141SAPE  H14X15465  -0.319   5.087   9.304 -1.6683  1.3039 -4.9015
  141SAPE  H14Y15466  -0.170   5.017   9.246 -0.9198  0.0990 -2.4912
  141SAPE  C31515467  -0.219   5.202   9.154 -0.1663 -0.3828 -0.6449
  141SAPE  H15X15468  -0.117   5.246   9.141 -0.0703 -0.4440 -0.1450
  141SAPE  H15Y15469  -0.274   5.297   9.172  1.2227  0.1550  1.0810
  141SAPE  C31615470  -0.254   5.143   9.015 -0.3184  0.0206 -0.2517
  141SAPE  H16X15471  -0.359   5.107   9.016 -1.1885  2.2649  2.2336
  141SAPE  H16Y15472  -0.192   5.051   9.019  1.3967  1.0988 -0.8363
  141SAPE  C31715473  -0.210   5.233   8.901 -0.1811  1.1542 -0.2811
  141SAPE  H17X15474  -0.159   5.165   8.830 -0.1755 -0.3891  1.1342
  141SAPE  H17Y15475  -0.126   5.295   8.939  0.2788  0.7533 -0.6374
  141SAPE  C31815476  -0.321   5.312   8.842  0.0732 -0.1247 -1.0157
  141SAPE  H18X15477  -0.283   5.412   8.811 -0.2552 -0.4513 -2.5020
  141SAPE  H18Y15478  -0.398   5.337   8.919 -0.0982 -0.3354 -1.1173
  141SAPE  H18Z15479  -0.376   5.257   8.763 -0.3979  3.5009 -3.4383
  142SAPE     N15480   0.989   3.627  11.725 -0.0876  0.3385 -0.0583
  142SAPE   HN115481   1.090   3.639  11.746  0.2662 -1.6907 -0.4614
  142SAPE   HN215482   0.971   3.687  11.641  1.8213  2.8243  1.1775
  142SAPE   HN315483   0.938   3.654  11.812  1.2796  1.8332  0.3319
  142SAPE   C1215484   0.967   3.482  11.680  1.0370  0.3067  0.1098
  142SAPE  H12A15485   0.859   3.469  11.655  0.9005 -0.3205  0.9826
  142SAPE  H12B15486   0.983   3.415  11.767 -1.8692 -1.0509 -0.2938
  142SAPE   C1115487   1.051   3.435  11.571 -0.3717 -0.4881  0.2918
  142SAPE  H11A15488   1.022   3.487  11.477  1.9617  3.1453  1.3291
  142SAPE  H11B15489   1.036   3.325  11.570 -0.1906 -0.6206  3.4648
  142SAPE     P15490   1.302   3.487  11.501 -0.1818 -0.2061  0.1304
  142SAPE   O1315491   1.339   3.628  11.496  0.2354 -0.0167 -0.0720
  142SAPE   O1415492   1.414   3.397  11.529 -1.0845  0.7797  0.2156
  142SAPE   O1215493   1.187   3.471  11.603  0.7331  0.2569  0.1898
  142SAPE   O1115494   1.244   3.438  11.366 -0.2424  0.0467 -0.2413
  142SAPE    C115495   1.199   3.527  11.261 -0.5880 -0.1528  0.0829
  142SAPE    HA15496   1.088   3.529  11.257 -0.6184 -1.3877 -0.1889
  142SAPE    HB15497   1.222   3.634  11.279  0.9741 -0.6316  1.2291
  142SAPE    C215498   1.254   3.478  11.122 -0.3964 -0.3875 -1.0941
  142SAPE    HS15499   1.300   3.378  11.133 -1.9328 -1.0974 -0.9201
  142SAPE   O2115500   1.341   3.579  11.069 -0.0738  0.0959 -0.2888
  142SAPE   C2115501   1.456   3.538  10.997  0.1498  0.1070 -0.1042
  142SAPE   O2215502   1.479   3.422  10.973  0.1165 -0.0532 -0.7009
  142SAPE   C2215503   1.540   3.662  10.966 -0.0200  0.2035 -0.4887
  142SAPE   H2R15504   1.479   3.749  11.001 -2.7764 -2.4694  1.9552
  142SAPE   H2S15505   1.627   3.664  11.035 -1.3008 -0.6472  1.2116
  142SAPE    C315506   1.132   3.453  11.022  0.1558  0.0270  0.0048
  142SAPE    HX15507   1.099   3.559  11.009  0.6467  0.0601 -1.0796
  142SAPE    HY15508   1.060   3.377  11.059 -0.5702 -1.2153 -3.5023
  142SAPE   O3115509   1.174   3.414  10.888  0.0280 -0.0215 -0.4355
  142SAPE   C3115510   1.218   3.284  10.880 -0.4338  0.5584 -0.4057
  142SAPE   O3215511   1.225   3.207  10.975 -0.2640 -0.0243  0.4650
  142SAPE   C3215512   1.269   3.253  10.740 -0.2529  0.0939  0.4764
  142SAPE   H2X15513   1.377   3.226  10.732 -0.2935  0.4254 -1.7732
  142SAPE   H2Y15514   1.246   3.346  10.685  2.0826  1.7104  2.0428
  142SAPE   C2315515   1.574   3.676  10.816 -0.0618 -0.3348  0.5748
  142SAPE   H3R15516   1.628   3.587  10.776 -1.7631 -1.9107  1.5910
  142SAPE   H3S15517   1.632   3.770  10.814 -3.0157  1.6257  0.7688
  142SAPE   C2415518   1.450   3.690  10.724 -0.5930  0.9344 -0.2849
  142SAPE   H4R15519   1.377   3.742  10.789 -0.7083  0.2088  0.1699
  142SAPE   H4S15520   1.408   3.588  10.710 -1.8877  1.2899  0.8659
  142SAPE   C2515521   1.490   3.751  10.592  0.1805  0.1025 -0.2881
  142SAPE   H5R15522   1.541   3.848  10.605  3.0322 -1.3088 -0.2722
  142SAPE   C2615523   1.453   3.709  10.470  0.3247  0.5251  0.1559
  142SAPE   H6R15524   1.512   3.752  10.387  1.3499 -1.4049 -0.1644
  142SAPE   C2715525   1.364   3.594  10.435 -0.7442 -0.0373  0.1153
  142SAPE   H7R15526   1.265   3.608  10.485 -0.0868  2.5487  0.8653
  142SAPE   H7S15527   1.410   3.499  10.469  3.3268  2.5474  2.6198
  142SAPE   C2815528   1.334   3.572  10.285  0.2029  0.0501 -0.1844
  142SAPE   H8R15529   1.260   3.634  10.233  0.5896 -0.5374 -1.4846
  142SAPE   C2915530   1.398   3.485  10.208 -0.2861 -0.5805 -0.4868
  142SAPE   H9R15531   1.385   3.491  10.099 -1.9820  2.6037 -0.2173
  142SAPE  C21015532   1.512   3.402  10.258 -0.0119 -0.4000 -1.0616
  142SAPE  H10R15533   1.472   3.315  10.315 -1.6442  1.1601  0.3093
  142SAPE  H10S15534   1.575   3.464  10.325  0.6040 -0.1864 -1.8266
  142SAPE  C21115535   1.597   3.368  10.128  1.0600 -0.1359  0.0812
  142SAPE  H11R15536   1.675   3.440  10.098 -0.5439  1.3381 -0.7243
  142SAPE  C21215537   1.600   3.247  10.063  0.4542 -1.1110 -0.1632
  142SAPE  H12R15538   1.672   3.241   9.980  0.4300 -0.7844 -0.2124
  142SAPE  C21315539   1.515   3.125  10.083  0.6388  0.0156 -0.0340
  142SAPE  H13R15540   1.479   3.097   9.981 -0.0888  0.5187  0.0724
  142SAPE  H13S15541   1.424   3.154  10.140  1.5432  1.7016  0.6177
  142SAPE  C21415542   1.591   3.004  10.140 -0.3321  0.3267 -0.5755
  142SAPE  H14R15543   1.626   2.930  10.067  0.6126 -0.5228  0.6940
  142SAPE  C21515544   1.615   2.984  10.269  0.9764 -0.1080 -0.4247
  142SAPE  H15R15545   1.667   2.892  10.300 -0.0393 -0.0800  1.5046
  142SAPE  C21615546   1.579   3.063  10.386  0.3189  0.1092  0.0519
  142SAPE  H16R15547   1.554   2.996  10.471 -1.2562 -0.5917 -0.9098
  142SAPE  H16S15548   1.489   3.125  10.363  1.0896  1.8990  1.5244
  142SAPE  C21715549   1.679   3.159  10.452 -0.0615 -0.4141 -0.2835
  142SAPE  H17R15550   1.707   3.241  10.382 -1.1143 -0.4322 -0.7429
  142SAPE  H17S15551   1.773   3.102  10.467 -0.3687 -0.4867  1.6141
  142SAPE  C21815552   1.627   3.217  10.588  0.6904 -0.7334 -0.0755
  142SAPE  H18R15553   1.602   3.138  10.662 -1.4817  1.5700  1.8828
  142SAPE  H18S15554   1.534   3.275  10.567  2.1163  0.6953 -2.9111
  142SAPE  C21915555   1.723   3.310  10.655 -1.0252 -0.0243 -0.2457
  142SAPE  H19R15556   1.799   3.238  10.693 -1.8836 -0.6101  0.3981
  142SAPE  H19S15557   1.672   3.363  10.738  0.0141 -0.1113  0.4707
  142SAPE  C22015558   1.782   3.421  10.564  0.1012  0.3317  0.1117
  142SAPE  H20R15559   1.854   3.482  10.622 -0.1147  0.5246  0.1793
  142SAPE  H20S15560   1.710   3.498  10.530 -2.2496 -1.6002  0.4351
  142SAPE  H20T15561   1.838   3.371  10.481 -1.2401  1.1029 -1.3008
  142SAPE   C3315562   1.194   3.133  10.683  0.3011 -0.4352 -0.7955
  142SAPE   H3X15563   1.087   3.158  10.663  0.6758  0.0750 -2.3720
  142SAPE   H3Y15564   1.207   3.046  10.750  0.1414  0.4540  0.4197
  142SAPE   C3415565   1.248   3.091  10.547  0.2525 -0.5300  0.1606
  142SAPE   H4X15566   1.346   3.046  10.573 -0.1826 -2.2627 -1.0280
  142SAPE   H4Y15567   1.280   3.183  10.494  1.2897  0.0657  1.7500
  142SAPE   C3515568   1.159   3.001  10.452  0.3876 -0.8677 -0.5390
  142SAPE   H5X15569   1.066   3.061  10.440  0.0992 -1.1460  0.2370
  142SAPE   H5Y15570   1.134   2.904  10.500 -1.1349 -0.0422  0.4367
  142SAPE   C3615571   1.230   2.974  10.316  0.5771  0.0491 -0.0408
  142SAPE   H6X15572   1.318   2.910  10.340 -0.5672 -2.1143 -1.3585
  142SAPE   H6Y15573   1.264   3.071  10.275  1.3632  0.1228  0.7615
  142SAPE   C3715574   1.138   2.915  10.209 -0.1404  0.2041 -0.1724
  142SAPE   H7X15575   1.050   2.981  10.191  1.4654  2.3299 -0.7189
  142SAPE   H7Y15576   1.107   2.816  10.248  1.7158 -0.8211 -1.1763
  142SAPE   C3815577   1.208   2.902  10.074 -0.2273  0.0155  0.3176
  142SAPE   H8X15578   1.295   2.834  10.081 -0.7711 -0.5469  1.9411
  142SAPE   H8Y15579   1.240   3.005  10.047  2.3667 -1.0664 -1.1016
  142SAPE   C3915580   1.108   2.846   9.965  0.7237  0.1444  0.7242
  142SAPE   H9X15581   1.007   2.892   9.977 -0.0047 -1.2642  0.3254
  142SAPE   H9Y15582   1.077   2.742   9.991  0.4312 -0.2324 -0.9948
  142SAPE  C31015583   1.141   2.840   9.821  0.3217 -0.1947  0.3999
  142SAPE  H10X15584   1.199   2.749   9.795 -0.7822 -1.2652  1.5552
  142SAPE  H10Y15585   1.204   2.928   9.796  4.2732 -2.8664  0.0371
  142SAPE  C31115586   1.010   2.855   9.733 -0.2445  0.2476  0.4132
  142SAPE  H11X15587   0.978   2.961   9.727  0.8051  0.4997 -1.8988
  142SAPE  H11Y15588   0.941   2.779   9.776 -0.4022 -1.1128 -2.0349
  142SAPE  C31215589   1.042   2.813   9.591 -0.1066 -0.8768  0.2282
  142SAPE  H12X15590   0.952   2.825   9.528  1.9015  0.4908 -2.6112
  142SAPE  H12Y15591   1.081   2.709   9.588  2.8114  0.1136  0.3671
  142SAPE  C31315592   1.152   2.903   9.526 -0.0913 -0.2976  0.6161
  142SAPE  H13X15593   1.255   2.882   9.561 -0.3911 -2.3937  0.3872
  142SAPE  H13Y15594   1.134   3.008   9.558  0.9484  0.6692 -1.7363
  142SAPE  C31415595   1.155   2.889   9.374 -0.1036 -0.4578 -0.8959
  142SAPE  H14X15596   1.214   2.971   9.329 -1.1557  0.3728 -0.8012
  142SAPE  H14Y15597   1.057   2.916   9.330 -0.1706  2.4664  0.8283
  142SAPE  C31515598   1.192   2.754   9.315  0.6780  0.4956 -0.3626
  142SAPE  H15X15599   1.122   2.680   9.359  0.5788 -0.3541 -1.8802
  142SAPE  H15Y15600   1.294   2.726   9.350  0.8566  0.0837 -1.1844
  142SAPE  C31615601   1.177   2.739   9.163 -1.0880  0.0765  0.5533
  142SAPE  H16X15602   1.250   2.806   9.112 -1.1494 -1.1486 -1.2342
  142SAPE  H16Y15603   1.074   2.763   9.128 -0.5423  1.1233 -0.3964
  142SAPE  C31715604   1.198   2.589   9.122 -0.6459 -0.0135 -0.2589
  142SAPE  H17X15605   1.114   2.529   9.161 -1.3729 -0.4101 -2.3179
  142SAPE  H17Y15606   1.288   2.555   9.177  0.4945  0.6906 -1.6108
  142SAPE  C31815607   1.215   2.574   8.970  0.3100 -0.1870  0.2427
  142SAPE  H18X15608   1.236   2.468   8.945 -0.3433 -1.1239  3.3274
  142SAPE  H18Y15609   1.297   2.637   8.929 -0.1687 -0.6516 -1.5148
  142SAPE  H18Z15610   1.118   2.601   8.922 -0.9449  2.5829  3.8925
  143SAPE     N15611   3.056   4.350  11.487  0.3496  0.1877  0.1582
  143SAPE   HN115612   3.108   4.272  11.531  0.1631 -0.7602 -1.2452
  143SAPE   HN215613   2.966   4.352  11.540  0.0406  1.1618 -0.3723
  143SAPE   HN315614   3.035   4.312  11.393  0.6391 -2.4611  1.0718
  143SAPE   C1215615   3.130   4.477  11.504 -0.9711  0.7109  0.7916
  143SAPE  H12A15616   3.205   4.487  11.422 -1.3951 -0.9699  0.1458
  143SAPE  H12B15617   3.187   4.459  11.597 -0.1527  1.3490  0.4203
  143SAPE   C1115618   3.039   4.605  11.524  0.0846  0.0135  0.8395
  143SAPE  H11A15619   3.113   4.687  11.536 -0.6333  0.7300  0.5045
  143SAPE  H11B15620   2.979   4.599  11.617 -0.8818 -1.9682  0.1581
  143SAPE     P15621   2.797   4.608  11.422 -0.0091  0.1155 -0.4000
  143SAPE   O1315622   2.772   4.486  11.500  0.4653 -0.3954  0.2094
  143SAPE   O1415623   2.733   4.733  11.469  0.2311  0.4547  0.0415
  143SAPE   O1215624   2.950   4.638  11.415 -0.3914  0.0361 -0.0355
  143SAPE   O1115625   2.761   4.587  11.262  0.1447 -0.2185 -0.1207
  143SAPE    C115626   2.846   4.508  11.185  0.5567  0.0530 -0.0547
  143SAPE    HA15627   2.955   4.512  11.205  0.2391  0.2796  1.8255
  143SAPE    HB15628   2.823   4.402  11.209  2.6772 -0.4707 -0.1490
  143SAPE    C215629   2.810   4.535  11.039  0.2319 -0.3485 -0.3029
  143SAPE    HS15630   2.701   4.551  11.030  0.6126  1.8693 -1.8151
  143SAPE   O2115631   2.852   4.430  10.960 -0.7377 -0.2649 -0.0391
  143SAPE   C2115632   2.762   4.342  10.928  0.5543  0.1910  0.1087
  143SAPE   O2215633   2.650   4.336  10.967  0.0110 -0.2068 -1.0403
  143SAPE   C2215634   2.813   4.251  10.824  0.1656  0.0230 -0.0599
  143SAPE   H2R15635   2.906   4.296  10.782 -1.0275  1.2482 -1.5393
  143SAPE   H2S15636   2.832   4.150  10.866 -0.9141  0.2561  1.0211
  143SAPE    C315637   2.882   4.666  10.985  0.5641  0.1922  0.1369
  143SAPE    HX15638   2.991   4.653  10.975  0.2948 -1.1617 -1.4116
  143SAPE    HY15639   2.851   4.743  11.058 -0.5142 -0.3542  0.2863
  143SAPE   O3115640   2.831   4.695  10.852  0.1950  0.5066  0.8134
  143SAPE   C3115641   2.711   4.744  10.837 -0.6872  0.1802 -0.3101
  143SAPE   O3215642   2.630   4.755  10.925  0.0427 -0.3557 -0.6777
  143SAPE   C3215643   2.706   4.793  10.686 -0.1305 -0.1150  0.3699
  143SAPE   H2X15644   2.683   4.708  10.617 -0.2512 -0.1693  0.4769
  143SAPE   H2Y15645   2.801   4.845  10.660  0.1869 -1.2283 -0.8454
  143SAPE   C2315646   2.712   4.224  10.707 -0.1640 -0.7281 -0.2305
  143SAPE   H3R15647   2.612   4.194  10.743  0.3809 -0.6791  1.4488
  143SAPE   H3S15648   2.771   4.147  10.653  3.2337  2.1893 -1.1056
  143SAPE   C2415649   2.700   4.343  10.607 -0.0665  0.1167  0.1811
  143SAPE   H4R15650   2.798   4.375  10.567 -0.6678  0.8710 -0.7336
  143SAPE   H4S15651   2.668   4.437  10.657  0.5461  1.7595 -2.3304
  143SAPE   C2515652   2.591   4.308  10.504 -0.5060  0.9024  0.6016
  143SAPE   H5R15653   2.483   4.313  10.529 -0.7605  0.3732 -0.3489
  143SAPE   C2615654   2.614   4.257  10.380 -0.1774  0.1450  0.1863
  143SAPE   H6R15655   2.520   4.237  10.327 -1.5952  0.1917  2.5554
  143SAPE   C2715656   2.746   4.233  10.311  0.2324 -1.0158  0.1414
  143SAPE   H7R15657   2.792   4.136  10.340 -0.6182 -2.0503 -1.8191
  143SAPE   H7S15658   2.822   4.311  10.334 -0.2497  0.0561 -1.7279
  143SAPE   C2815659   2.745   4.249  10.159 -0.3306  0.1011  0.1457
  143SAPE   H8R15660   2.697   4.336  10.111  1.7380 -0.5649 -3.5130
  143SAPE   C2915661   2.806   4.167  10.068 -0.4329 -0.3175  0.2291
  143SAPE   H9R15662   2.796   4.197   9.963 -4.1534 -2.1744 -0.1266
  143SAPE  C21015663   2.879   4.045  10.095 -0.3668  0.2501  0.0810
  143SAPE  H10R15664   2.884   3.994   9.996 -0.7795  0.9594 -0.3074
  143SAPE  H10S15665   2.824   3.978  10.165 -2.7286 -0.4100 -2.2705
  143SAPE  C21115666   3.019   4.074  10.129  0.1359 -0.0996  0.3627
  143SAPE  H11R15667   3.031   4.107  10.234 -1.1642  0.7771  0.2570
  143SAPE  C21215668   3.131   4.058  10.056  0.3459 -0.1793 -0.4346
  143SAPE  H12R15669   3.229   4.075  10.104  0.2959  0.2606 -0.4843
  143SAPE  C21315670   3.137   4.009   9.915 -0.9936 -0.2355  0.1193
  143SAPE  H13R15671   3.081   3.915   9.895 -2.6627  0.6915  0.1794
  143SAPE  H13S15672   3.243   3.977   9.915  0.0934  2.7302  3.2216
  143SAPE  C21415673   3.085   4.120   9.826 -0.3115  0.4122 -0.9702
  143SAPE  H14R15674   3.018   4.188   9.880  0.3696 -1.0537  1.8935
  143SAPE  C21515675   3.110   4.133   9.701  0.7919  1.0335  0.3120
  143SAPE  H15R15676   3.069   4.219   9.646 -2.0556  0.6105  1.6267
  143SAPE  C21615677   3.204   4.036   9.631  0.2463  0.0311  0.5235
  143SAPE  H16R15678   3.176   3.936   9.669  0.1444  0.2891  1.1315
  143SAPE  H16S15679   3.306   4.056   9.672  0.7856 -0.6669 -0.4188
  143SAPE  C21715680   3.216   4.038   9.477 -0.4760  0.1867  0.7141
  143SAPE  H17R15681   3.212   4.138   9.428 -2.6175  0.5140  1.4548
  143SAPE  H17S15682   3.139   3.973   9.432 -0.1212  0.1604  0.1372
  143SAPE  C21815683   3.347   3.976   9.437 -0.0330 -0.4262  0.6016
  143SAPE  H18R15684   3.337   3.866   9.446  0.7867 -0.6672 -1.0669
  143SAPE  H18S15685   3.427   4.002   9.511 -1.8279 -0.5065  2.6635
  143SAPE  C21915686   3.399   4.012   9.298  0.2882  0.1514 -0.1774
  143SAPE  H19R15687   3.496   3.962   9.279 -0.2779 -0.6491 -1.0653
  143SAPE  H19S15688   3.408   4.121   9.279 -0.2595 -0.3087 -3.9609
  143SAPE  C22015689   3.303   3.962   9.191 -0.7291 -1.0714  0.0910
  143SAPE  H20R15690   3.244   3.873   9.223 -0.5564 -1.4666 -0.6813
  143SAPE  H20S15691   3.361   3.949   9.098 -0.8389  1.6865 -0.4462
  143SAPE  H20T15692   3.229   4.041   9.168  0.0186 -0.8476 -1.7507
  143SAPE   C3315693   2.591   4.899  10.662 -0.9415 -0.3538  0.1438
  143SAPE   H3X15694   2.616   4.982  10.732  0.0667 -1.9815  1.7946
  143SAPE   H3Y15695   2.494   4.868  10.705 -1.3682 -1.0916 -1.2730
  143SAPE   C3415696   2.580   4.944  10.515 -0.3813 -0.3305 -0.1499
  143SAPE   H4X15697   2.558   4.852  10.458  0.6598 -1.5123  1.2772
  143SAPE   H4Y15698   2.685   4.964  10.485 -0.4745 -1.1711 -1.0885
  143SAPE   C3515699   2.504   5.077  10.489 -0.4369  0.5346  0.0234
  143SAPE   H5X15700   2.558   5.170  10.519 -0.6309  0.4495  0.6446
  143SAPE   H5Y15701   2.424   5.083  10.565  1.9308  2.0495  2.6057
  143SAPE   C3615702   2.418   5.084  10.359 -0.0636  0.4004 -0.8062
  143SAPE   H6X15703   2.329   5.150  10.362 -2.2959 -2.4033 -0.5938
  143SAPE   H6Y15704   2.370   4.986  10.338  0.6276 -0.1132 -0.0272
  143SAPE   C3715705   2.507   5.120  10.241 -0.2251  0.3592 -0.1967
  143SAPE   H7X15706   2.609   5.080  10.261 -1.1821 -1.2288  2.0361
  143SAPE   H7Y15707   2.516   5.231  10.241  2.4201  0.2097  1.1725
  143SAPE   C3815708   2.464   5.053  10.108  0.4211  0.3108 -0.3376
  143SAPE   H8X15709   2.369   5.099  10.072 -0.1517 -0.7709 -0.2621
  143SAPE   H8Y15710   2.431   4.949  10.128 -2.1555  0.9689 -0.7671
  143SAPE   C3915711   2.556   5.068   9.992 -0.2111  0.2999 -0.0823
  143SAPE   H9X15712   2.659   5.047  10.028 -0.4843 -0.8015  0.0782
  143SAPE   H9Y15713   2.561   5.166   9.940 -2.0419  0.8554  0.7275
  143SAPE  C31015714   2.540   4.964   9.880 -0.5879 -0.4605 -0.6325
  143SAPE  H10X15715   2.545   4.869   9.937 -0.0265 -0.4951 -0.7304
  143SAPE  H10Y15716   2.631   4.981   9.818  0.2848  1.5003  1.0707
  143SAPE  C31115717   2.406   4.974   9.815  0.0042 -0.4048 -0.0644
  143SAPE  H11X15718   2.374   5.077   9.791 -1.8578 -0.4777  1.8145
  143SAPE  H11Y15719   2.333   4.950   9.895  2.0723  2.4897  2.9187
  143SAPE  C31215720   2.380   4.880   9.693 -0.7630  0.6693  0.4920
  143SAPE  H12X15721   2.444   4.926   9.615  0.8589  0.4217  1.6192
  143SAPE  H12Y15722   2.278   4.902   9.655  0.7077  1.5486 -3.3997
  143SAPE  C31315723   2.411   4.731   9.716 -0.4689 -0.3538 -0.0480
  143SAPE  H13X15724   2.341   4.692   9.794 -1.0485 -1.4455 -1.0808
  143SAPE  H13Y15725   2.518   4.729   9.745 -0.8545  2.1225  1.9584
  143SAPE  C31415726   2.389   4.639   9.598  0.4920  0.0326 -0.3582
  143SAPE  H14X15727   2.290   4.646   9.548  0.7461 -2.3093 -1.3544
  143SAPE  H14Y15728   2.396   4.532   9.629  0.9969 -0.3719 -1.7951
  143SAPE  C31515729   2.484   4.660   9.479 -0.4139  0.5040  0.2835
  143SAPE  H15X15730   2.585   4.667   9.526 -0.9634  2.0397  1.3200
  143SAPE  H15Y15731   2.464   4.756   9.429 -0.6548  0.5880  0.5382
  143SAPE  C31615732   2.482   4.547   9.371  0.3256 -0.0205 -0.2855
  143SAPE  H16X15733   2.386   4.543   9.314  0.3264 -2.2879 -0.2363
  143SAPE  H16Y15734   2.495   4.455   9.432  1.1514  0.7323  0.7105
  143SAPE  C31715735   2.598   4.558   9.280 -0.8056  0.6041 -0.0331
  143SAPE  H17X15736   2.696   4.551   9.331 -0.1187  0.5253 -1.3151
  143SAPE  H17Y15737   2.583   4.659   9.238  2.1677  0.5485 -1.4968
  143SAPE  C31815738   2.587   4.453   9.172  0.2073  0.5128 -0.1875
  143SAPE  H18X15739   2.483   4.426   9.141 -0.0477  0.5645  0.6000
  143SAPE  H18Y15740   2.628   4.356   9.209 -2.9495 -0.9884 -0.2656
  143SAPE  H18Z15741   2.646   4.470   9.080  2.5020  1.7932  1.4162
  144SAPE     N15742   5.818   0.920  11.412  0.0636  0.1542 -0.7412
  144SAPE   HN115743   5.881   0.864  11.473 -0.6690  0.5413  0.4100
  144SAPE   HN215744   5.726   0.878  11.390 -0.2309  0.4185 -0.0415
  144SAPE   HN315745   5.861   0.930  11.318  0.6109  2.1847 -0.3187
  144SAPE   C1215746   5.795   1.054  11.467  0.1891  0.0977 -0.1467
  144SAPE  H12A15747   5.885   1.093  11.520 -0.1445  0.0964  0.4297
  144SAPE  H12B15748   5.725   1.043  11.552 -0.5463 -1.6162 -0.9422
  144SAPE   C1115749   5.739   1.152  11.363 -0.6842 -1.0006 -0.0138
  144SAPE  H11A15750   5.820   1.169  11.289 -1.9816 -1.2578 -1.5591
  144SAPE  H11B15751   5.727   1.251  11.411  1.9944  0.0531 -1.3037
  144SAPE     P15752   5.512   1.213  11.250 -0.1777 -0.0616  0.3781
  144SAPE   O1315753   5.379   1.153  11.260  0.7028  0.2276  0.0079
  144SAPE   O1415754   5.533   1.348  11.308  0.3511  0.0234  0.2446
  144SAPE   O1215755   5.617   1.109  11.303  0.0939  0.1488  0.0803
  144SAPE   O1115756   5.545   1.222  11.097  0.5208 -0.2358  0.4508
  144SAPE    C115757   5.563   1.114  11.011  0.6562 -0.9910  0.2228
  144SAPE    HA15758   5.669   1.083  11.000  0.6705 -0.5214 -1.1231
  144SAPE    HB15759   5.502   1.028  11.048  0.2996 -0.7595  0.1747
  144SAPE    C215760   5.505   1.141  10.869 -0.1720  0.7492  0.8526
  144SAPE    HS15761   5.498   1.042  10.819  0.7455  0.5624  1.0794
  144SAPE   O2115762   5.583   1.238  10.797 -0.0888  0.6386 -0.1424
  144SAPE   C2115763   5.686   1.190  10.729  0.4365 -0.5943  0.3015
  144SAPE   O2215764   5.709   1.072  10.722 -0.8545 -0.2074  0.0409
  144SAPE   C2215765   5.771   1.296  10.661 -0.0894  0.5397  0.0312
  144SAPE   H2R15766   5.713   1.385  10.627  2.0127  2.2434  0.6162
  144SAPE   H2S15767   5.841   1.328  10.741 -2.7660  0.7943  2.4504
  144SAPE    C315768   5.360   1.202  10.869  0.0873 -0.0714 -0.1865
  144SAPE    HX15769   5.373   1.309  10.896 -2.9277  0.1032  1.0212
  144SAPE    HY15770   5.305   1.146  10.948  0.4848  0.3288  0.3805
  144SAPE   O3115771   5.289   1.186  10.742  0.1133 -0.1613 -0.6499
  144SAPE   C3115772   5.154   1.207  10.751  1.5680 -0.8782  0.0280
  144SAPE   O3215773   5.092   1.216  10.857  0.0865  0.8197 -0.1430
  144SAPE   C3215774   5.091   1.205  10.614  0.8499 -0.1467 -0.0212
  144SAPE   H2X15775   5.155   1.143  10.546 -0.2141 -1.0117 -0.2572
  144SAPE   H2Y15776   5.104   1.309  10.578  1.0907 -0.0328  0.3923
  144SAPE   C2315777   5.857   1.243  10.541 -0.2477 -0.4952 -0.9134
  144SAPE   H3R15778   5.920   1.156  10.571  1.8044  1.3632  0.5329
  144SAPE   H3S15779   5.935   1.317  10.510 -1.1910  0.9353  0.0160
  144SAPE   C2415780   5.775   1.214  10.411  0.0332 -0.2847  0.2891
  144SAPE   H4R15781   5.763   1.299  10.341  0.3789 -0.9073 -0.5372
  144SAPE   H4S15782   5.673   1.184  10.445  1.1629 -2.7749  1.7696
  144SAPE   C2515783   5.845   1.097  10.344 -0.1960 -0.4512  0.6866
  144SAPE   H5R15784   5.868   1.010  10.406  1.4146 -1.4345 -1.1639
  144SAPE   C2615785   5.882   1.097  10.211  0.5993  0.3896  0.3349
  144SAPE   H6R15786   5.943   1.014  10.171  1.6159  0.1132  2.3545
  144SAPE   C2715787   5.855   1.193  10.104 -0.5723 -0.2046 -0.0789
  144SAPE   H7R15788   5.872   1.298  10.136 -1.0081  1.1782 -3.8983
  144SAPE   H7S15789   5.749   1.206  10.073 -1.3653  0.2945  2.5850
  144SAPE   C2815790   5.942   1.154   9.985 -1.0615 -0.3174  0.4450
  144SAPE   H8R15791   6.040   1.106   9.996  0.4495  2.1228 -1.2786
  144SAPE   C2915792   5.909   1.178   9.863  0.3355 -0.2173  0.9484
  144SAPE   H9R15793   5.981   1.151   9.784  0.4831  0.5560  0.8090
  144SAPE  C21015794   5.788   1.245   9.797  0.4514  0.6710 -0.0318
  144SAPE  H10R15795   5.820   1.329   9.732  1.9877 -1.2482 -1.8948
  144SAPE  H10S15796   5.720   1.284   9.875 -1.4636 -2.0872 -0.2069
  144SAPE  C21115797   5.705   1.162   9.703  0.0594  0.0958  0.3114
  144SAPE  H11R15798   5.690   1.056   9.729  0.5357 -0.4708 -1.5874
  144SAPE  C21215799   5.636   1.215   9.599 -0.2012 -0.3602  0.4451
  144SAPE  H12R15800   5.562   1.150   9.549  1.6188 -2.3188  0.1800
  144SAPE  C21315801   5.640   1.358   9.563 -1.0442  0.2428  0.3165
  144SAPE  H13R15802   5.744   1.387   9.537  0.3101 -1.6466  3.2060
  144SAPE  H13S15803   5.615   1.432   9.641  2.5556  0.9896  0.9217
  144SAPE  C21415804   5.562   1.378   9.434 -0.0481  0.1094 -0.1481
  144SAPE  H14R15805   5.453   1.381   9.446  0.0283  1.3824  0.3246
  144SAPE  C21515806   5.614   1.400   9.313 -0.7126  0.1982 -0.2800
  144SAPE  H15R15807   5.544   1.432   9.234 -1.1825 -0.4331 -0.1239
  144SAPE  C21615808   5.758   1.406   9.271 -0.3757  0.3710  0.4140
  144SAPE  H16R15809   5.783   1.371   9.169  1.3859  1.0498  0.5783
  144SAPE  H16S15810   5.819   1.349   9.344 -1.7338  0.8931  2.0177
  144SAPE  C21715811   5.813   1.551   9.307 -0.0654  0.6167  0.5511
  144SAPE  H17R15812   5.924   1.543   9.296 -0.4202 -1.5738 -4.4310
  144SAPE  H17S15813   5.787   1.573   9.413  0.6691  0.0356  0.8613
  144SAPE  C21815814   5.774   1.664   9.217  0.1343 -0.3400  0.3578
  144SAPE  H18R15815   5.670   1.695   9.240  0.3414  0.0047  0.8339
  144SAPE  H18S15816   5.781   1.637   9.109 -1.6830 -0.6365  0.2883
  144SAPE  C21915817   5.863   1.790   9.233 -0.0280  0.1005 -0.1112
  144SAPE  H19R15818   5.971   1.771   9.248  0.3140  2.4455  0.8323
  144SAPE  H19S15819   5.841   1.844   9.328  0.3223  0.6413 -0.3281
  144SAPE  C22015820   5.853   1.875   9.104 -0.4170  0.3602 -0.6332
  144SAPE  H20R15821   5.932   1.951   9.121 -0.8137  0.6427 -0.0213
  144SAPE  H20S15822   5.765   1.924   9.056 -1.2597 -2.1219 -1.8368
  144SAPE  H20T15823   5.891   1.817   9.017 -0.8295 -2.2171  0.7954
  144SAPE   C3315824   4.941   1.167  10.603 -0.0847  0.1266  0.3239
  144SAPE   H3X15825   4.867   1.242  10.638 -1.7081 -0.6919 -1.1687
  144SAPE   H3Y15826   4.935   1.072  10.659  1.9009 -1.3998 -1.8346
  144SAPE   C3415827   4.904   1.138  10.449 -0.3745  0.3884 -0.2762
  144SAPE   H4X15828   4.812   1.075  10.447 -0.8475  1.0749 -0.3589
  144SAPE   H4Y15829   4.982   1.067  10.413 -2.5021 -1.9455 -0.6096
  144SAPE   C3515830   4.887   1.266  10.367  0.1923  0.5041 -0.2383
  144SAPE   H5X15831   4.987   1.306  10.338  0.0618  1.4223  0.5254
  144SAPE   H5Y15832   4.846   1.339  10.440 -1.2631 -1.0312  0.5439
  144SAPE   C3615833   4.788   1.259  10.253 -0.1367 -0.1015  0.2154
  144SAPE   H6X15834   4.689   1.305  10.278 -0.0731 -1.1211  2.6485
  144SAPE   H6Y15835   4.760   1.152  10.245  0.5912 -0.2383 -0.5128
  144SAPE   C3715836   4.847   1.305  10.120 -0.7933 -0.1341  0.2070
  144SAPE   H7X15837   4.943   1.252  10.099 -1.6266 -1.1852 -1.2219
  144SAPE   H7Y15838   4.874   1.412  10.132 -0.0262  0.1043 -2.7660
  144SAPE   C3815839   4.751   1.300  10.004  0.0113  0.4618 -0.1035
  144SAPE   H8X15840   4.667   1.370  10.020 -2.1677 -2.0779  0.1032
  144SAPE   H8Y15841   4.710   1.197   9.997 -0.4101  0.5943  0.3970
  144SAPE   C3915842   4.811   1.332   9.868  0.4409 -0.2531 -0.6687
  144SAPE   H9X15843   4.886   1.253   9.843 -0.1294 -0.6668 -1.0820
  144SAPE   H9Y15844   4.863   1.429   9.880  0.4909 -0.4243  0.7941
  144SAPE  C31015845   4.710   1.334   9.753  0.7251 -0.4125  0.1634
  144SAPE  H10X15846   4.643   1.420   9.770  0.1805 -0.8690  0.3701
  144SAPE  H10Y15847   4.658   1.236   9.754 -0.8971  0.4121 -0.3575
  144SAPE  C31115848   4.767   1.353   9.612 -0.0207 -0.4404 -0.0194
  144SAPE  H11X15849   4.832   1.265   9.594  0.7320 -0.0326  0.6542
  144SAPE  H11Y15850   4.824   1.448   9.606 -0.9501  0.0645 -2.2832
  144SAPE  C31215851   4.660   1.350   9.502  0.4504  0.8492 -0.0539
  144SAPE  H12X15852   4.592   1.436   9.518  1.5360  1.4418  1.7227
  144SAPE  H12Y15853   4.606   1.253   9.501  1.6233  0.0884 -3.9084
  144SAPE  C31315854   4.723   1.376   9.365 -0.1110 -1.1563 -0.1870
  144SAPE  H13X15855   4.817   1.317   9.356 -0.0389 -1.3018  1.3007
  144SAPE  H13Y15856   4.750   1.484   9.364  0.2015 -1.2125  0.9658
  144SAPE  C31415857   4.625   1.353   9.245 -0.0301 -0.0234  0.6943
  144SAPE  H14X15858   4.543   1.427   9.251 -1.6371 -1.6557  0.0052
  144SAPE  H14Y15859   4.577   1.254   9.265  0.0225 -0.0334  0.7762
  144SAPE  C31515860   4.691   1.363   9.102 -0.1160  0.4732 -0.1595
  144SAPE  H15X15861   4.779   1.296   9.098 -0.1554  0.4991 -2.4738
  144SAPE  H15Y15862   4.724   1.468   9.087 -1.7554  0.6671 -3.2945
  144SAPE  C31615863   4.599   1.330   8.982 -0.1308  0.0290  0.3541
  144SAPE  H16X15864   4.523   1.411   8.979  0.9140  1.0009 -0.1252
  144SAPE  H16Y15865   4.549   1.231   8.997  0.3176 -0.0679  1.2703
  144SAPE  C31715866   4.674   1.328   8.841  0.2520 -0.2712  0.2703
  144SAPE  H17X15867   4.772   1.279   8.858  0.0824 -0.2105  1.4708
  144SAPE  H17Y15868   4.703   1.432   8.812  1.0830 -0.1247  1.5693
  144SAPE  C31815869   4.598   1.258   8.732  0.2088 -0.3623 -0.8801
  144SAPE  H18X15870   4.488   1.273   8.737  0.0841  0.0099 -3.4172
  144SAPE  H18Y15871   4.630   1.152   8.743  1.2786  0.0164 -0.1130
  144SAPE  H18Z15872   4.634   1.300   8.635  0.4878  0.4453 -0.4420
  145SAPE     N15873   1.699   3.445  11.487 -0.1104 -0.3762 -0.9432
  145SAPE   HN115874   1.758   3.362  11.508  2.5691  1.7529  0.6488
  145SAPE   HN215875   1.716   3.517  11.561 -2.5518 -0.5564 -0.1192
  145SAPE   HN315876   1.599   3.418  11.489  0.1482 -1.5540 -2.1791
  145SAPE   C1215877   1.749   3.505  11.362  0.5595  0.6662  0.0512
  145SAPE  H12A15878   1.663   3.516  11.292 -1.2982  0.0352  2.1242
  145SAPE  H12B15879   1.829   3.439  11.323  1.8564 -0.2166  3.7931
  145SAPE   C1115880   1.811   3.642  11.396  0.4845  0.2352 -0.4483
  145SAPE  H11A15881   1.732   3.711  11.434  0.1764 -0.0083 -0.6417
  145SAPE  H11B15882   1.852   3.684  11.302  0.1374 -1.1913 -1.2561
  145SAPE     P15883   2.031   3.723  11.506 -0.0098  0.6945  0.1384
  145SAPE   O1315884   1.985   3.854  11.544 -0.1670  0.2053 -0.1126
  145SAPE   O1415885   2.128   3.655  11.589  0.0431  0.0376  0.0439
  145SAPE   O1215886   1.913   3.619  11.495  0.1191  0.3185 -0.3613
  145SAPE   O1115887   2.118   3.740  11.372 -0.1049 -0.6507  0.3553
  145SAPE    C115888   2.142   3.618  11.297  0.0445  0.6189  0.1337
  145SAPE    HA15889   2.089   3.528  11.336  2.7481 -1.0599  0.1926
  145SAPE    HB15890   2.099   3.633  11.196  1.0303 -1.9369 -0.7578
  145SAPE    C215891   2.293   3.597  11.277  0.2722 -0.4566 -0.6258
  145SAPE    HS15892   2.334   3.611  11.380 -2.5840 -0.7221  0.6528
  145SAPE   O2115893   2.342   3.704  11.193 -0.4318  0.2920 -0.7306
  145SAPE   C2115894   2.468   3.739  11.223 -0.6530 -0.1821  0.6258
  145SAPE   O2215895   2.537   3.682  11.305  0.2826  0.2048 -0.0158
  145SAPE   C2215896   2.514   3.837  11.125  0.1084  0.3587 -0.3129
  145SAPE   H2R15897   2.438   3.918  11.119  0.2086  0.5791  0.9753
  145SAPE   H2S15898   2.603   3.894  11.156 -1.1041  2.0177  0.2724
  145SAPE    C315899   2.336   3.455  11.227  0.0408 -0.4722 -0.4197
  145SAPE    HX15900   2.283   3.373  11.280 -0.0795  0.8300  1.5993
  145SAPE    HY15901   2.445   3.445  11.245 -0.0218  0.8574  0.8184
  145SAPE   O3115902   2.302   3.436  11.090  0.1638 -0.7222 -0.4902
  145SAPE   C3115903   2.399   3.428  10.998 -0.2978 -0.0555 -0.2303
  145SAPE   O3215904   2.514   3.436  11.025  0.2739 -0.0587  0.2770
  145SAPE   C3215905   2.343   3.430  10.856  0.0760 -0.7978 -0.3341
  145SAPE   H2X15906   2.418   3.473  10.786 -0.6995 -0.3536 -0.8975
  145SAPE   H2Y15907   2.271   3.514  10.854  0.6035 -0.3406 -0.6198
  145SAPE   C2315908   2.528   3.779  10.988  0.4545 -0.2583  0.8771
  145SAPE   H3R15909   2.428   3.759  10.945  0.3043  2.9114 -0.5253
  145SAPE   H3S15910   2.596   3.691  10.985  0.7498 -0.0281 -1.3117
  145SAPE   C2415911   2.581   3.889  10.893 -0.2544  0.3405  0.2637
  145SAPE   H4R15912   2.525   3.983  10.915  0.4140  0.9060 -0.4091
  145SAPE   H4S15913   2.563   3.852  10.790  0.3891  0.4607  0.1008
  145SAPE   C2515914   2.731   3.912  10.903 -1.3665  0.0446  0.5052
  145SAPE   H5R15915   2.766   3.992  10.970 -0.5407  1.6183 -1.6676
  145SAPE   C2615916   2.825   3.856  10.823  0.4803 -0.5849  0.1982
  145SAPE   H6R15917   2.931   3.884  10.837  0.6611 -0.0585 -1.9256
  145SAPE   C2715918   2.816   3.757  10.713 -0.0808 -0.0864 -0.1444
  145SAPE   H7R15919   2.764   3.664  10.744  0.6156 -0.1629  0.8297
  145SAPE   H7S15920   2.921   3.723  10.699  0.7056  2.0534  0.1775
  145SAPE   C2815921   2.765   3.813  10.583 -0.8516 -0.2648 -0.6083
  145SAPE   H8R15922   2.657   3.810  10.559 -0.9845 -1.4880  0.0655
  145SAPE   C2915923   2.838   3.864  10.482  0.0932 -0.0005 -0.3024
  145SAPE   H9R15924   2.793   3.914  10.396 -1.5139 -0.5201  0.1977
  145SAPE  C21015925   2.986   3.865  10.472 -0.2243  0.0182 -0.3023
  145SAPE  H10R15926   3.013   3.861  10.364  1.6234  1.6771  0.0315
  145SAPE  H10S15927   3.039   3.778  10.515  1.2421  0.5221 -1.0277
  145SAPE  C21115928   3.030   4.001  10.516  0.3118  0.2862 -0.9714
  145SAPE  H11R15929   2.946   4.068  10.538 -0.3748 -0.9644  0.3226
  145SAPE  C21215930   3.161   4.039  10.525 -0.1445 -0.3573  0.7097
  145SAPE  H12R15931   3.189   4.138  10.566  1.5546 -0.5774  0.1166
  145SAPE  C21315932   3.274   3.954  10.480  0.0511  0.0269  0.1993
  145SAPE  H13R15933   3.310   4.016  10.394  2.0576  1.1250  1.7262
  145SAPE  H13S15934   3.249   3.856  10.435  0.8454 -0.6311  1.1599
  145SAPE  C21415935   3.395   3.936  10.580  0.5472 -0.0375 -0.0876
  145SAPE  H14R15936   3.362   3.945  10.684 -2.4381 -0.1243 -0.9262
  145SAPE  C21515937   3.526   3.934  10.539 -0.5149 -0.5448 -0.5001
  145SAPE  H15R15938   3.608   3.936  10.612 -0.9980 -1.3750  0.0820
  145SAPE  C21615939   3.573   3.957  10.401 -0.8239  0.4663  0.5306
  145SAPE  H16R15940   3.640   4.046  10.397 -1.5760  1.0382  0.5236
  145SAPE  H16S15941   3.492   3.988  10.332  1.0086  0.5912 -1.6698
  145SAPE  C21715942   3.649   3.835  10.340  0.3908  0.6519 -0.2090
  145SAPE  H17R15943   3.736   3.811  10.405 -1.1614 -0.8666  1.4174
  145SAPE  H17S15944   3.697   3.856  10.242  1.3993 -1.1058 -0.1414
  145SAPE  C21815945   3.565   3.706  10.319  0.2473  0.2023 -0.4321
  145SAPE  H18R15946   3.491   3.726  10.239  1.1123 -0.5268 -1.4421
  145SAPE  H18S15947   3.508   3.679  10.410 -0.2304  1.0654 -0.4665
  145SAPE  C21915948   3.630   3.584  10.265  0.0757  0.0119  0.2057
  145SAPE  H19R15949   3.698   3.609  10.180 -2.4071 -0.6329 -2.1087
  145SAPE  H19S15950   3.561   3.511  10.217  1.0191 -0.3752 -0.5936
  145SAPE  C22015951   3.704   3.503  10.372 -0.2472 -0.0668  0.0572
  145SAPE  H20R15952   3.715   3.400  10.331  1.2607  0.4323 -0.8575
  145SAPE  H20S15953   3.644   3.509  10.465 -3.2836 -1.4141 -1.6399
  145SAPE  H20T15954   3.803   3.551  10.387  0.0538 -0.6937  0.1381
  145SAPE   C3315955   2.277   3.299  10.808 -0.1829  0.3040 -0.0382
  145SAPE   H3X15956   2.220   3.263  10.897 -1.2313  0.1019 -0.7772
  145SAPE   H3Y15957   2.358   3.224  10.797  0.3934  0.6429  1.5283
  145SAPE   C3415958   2.190   3.315  10.681 -0.0945 -0.2626  1.0982
  145SAPE   H4X15959   2.100   3.375  10.708  0.5698  1.0190  0.5344
  145SAPE   H4Y15960   2.163   3.213  10.644  2.5198 -0.9281  0.7903
  145SAPE   C3515961   2.274   3.386  10.570 -0.4562 -0.2772 -0.1754
  145SAPE   H5X15962   2.360   3.320  10.545 -0.1405  0.0116  0.1364
  145SAPE   H5Y15963   2.311   3.490  10.581  0.8575 -0.7376 -0.0830
  145SAPE   C3615964   2.201   3.383  10.437  0.2732 -0.4467 -0.0630
  145SAPE   H6X15965   2.109   3.444  10.454  1.0844  0.2764  2.2137
  145SAPE   H6Y15966   2.178   3.278  10.412 -1.3595 -0.5365  1.5350
  145SAPE   C3715967   2.282   3.453  10.327 -0.0070  0.2888 -0.5478
  145SAPE   H7X15968   2.391   3.433  10.336 -0.0111  0.0722 -0.9445
  145SAPE   H7Y15969   2.286   3.562  10.346 -0.6476  0.2152  0.0638
  145SAPE   C3815970   2.234   3.426  10.184 -0.3939  0.1114  0.1377
  145SAPE   H8X15971   2.125   3.446  10.176  0.0931  3.2339 -0.1448
  145SAPE   H8Y15972   2.250   3.319  10.160  0.3404  0.6976 -2.2662
  145SAPE   C3915973   2.301   3.515  10.087 -0.0593 -0.3646  0.2047
  145SAPE   H9X15974   2.411   3.506  10.103 -0.4029 -2.6466  1.8767
  145SAPE   H9Y15975   2.267   3.621  10.089  1.2686  0.1518 -1.7407
  145SAPE  C31015976   2.261   3.465   9.948  0.2542 -0.1547 -0.7526
  145SAPE  H10X15977   2.168   3.519   9.920  1.3925  3.1850  1.4422
  145SAPE  H10Y15978   2.255   3.354   9.947  1.4047 -0.2312 -0.2716
  145SAPE  C31115979   2.369   3.499   9.841  0.1752 -0.0058 -0.3384
  145SAPE  H11X15980   2.456   3.430   9.841  1.3705  1.3931 -2.0045
  145SAPE  H11Y15981   2.401   3.605   9.857 -2.4390  1.1062 -1.8138
  145SAPE  C31215982   2.312   3.494   9.697  0.0466 -0.3325 -0.3575
  145SAPE  H12X15983   2.226   3.564   9.699  0.8177  0.6432  1.9476
  145SAPE  H12Y15984   2.266   3.395   9.677 -0.5207 -0.2110  0.3122
  145SAPE  C31315985   2.417   3.531   9.590 -0.0369  0.6501  0.6622
  145SAPE  H13X15986   2.391   3.511   9.484 -2.5538  1.2884  1.0800
  145SAPE  H13Y15987   2.509   3.470   9.595 -1.0203 -1.1974 -1.7715
  145SAPE  C31415988   2.442   3.687   9.589 -0.2606  0.5569  0.5814
  145SAPE  H14X15989   2.516   3.713   9.667  1.7018  0.1444 -1.0602
  145SAPE  H14Y15990   2.343   3.725   9.622 -0.6304 -0.2658  0.4703
  145SAPE  C31515991   2.495   3.729   9.451 -0.9543 -0.3396 -0.1018
  145SAPE  H15X15992   2.516   3.838   9.447  1.2154 -0.5288  2.9102
  145SAPE  H15Y15993   2.432   3.707   9.362  0.6977 -0.0880 -1.3850
  145SAPE  C31615994   2.635   3.664   9.419  0.3680  0.2714 -0.7054
  145SAPE  H16X15995   2.604   3.563   9.384 -0.2460  0.4235 -0.6112
  145SAPE  H16Y15996   2.693   3.659   9.513 -0.9287  0.0464  0.1067
  145SAPE  C31715997   2.707   3.731   9.307 -0.5146 -0.6277  1.0602
  145SAPE  H17X15998   2.628   3.762   9.236 -0.4606 -2.1895  0.2848
  145SAPE  H17Y15999   2.755   3.650   9.248 -0.0369 -0.9008  1.8122
  145SAPE  C31816000   2.801   3.847   9.350 -0.3478  0.0785 -0.7287
  145SAPE  H18X16001   2.836   3.903   9.260  0.4085  0.4877 -0.1863
  145SAPE  H18Y16002   2.893   3.816   9.404  0.4986  1.6903 -1.1774
  145SAPE  H18Z16003   2.753   3.926   9.411  0.4443 -0.3584  0.4920
  146SAPE     N16004   1.560   1.238  11.220  1.0481 -0.4566  0.0383
  146SAPE   HN116005   1.578   1.315  11.287  1.5571 -1.6277  1.2995
  146SAPE   HN216006   1.458   1.219  11.226  0.7832  0.8572  0.0078
  146SAPE   HN316007   1.614   1.159  11.262  2.0840 -0.8853 -1.9779
  146SAPE   C1216008   1.613   1.262  11.083  0.3448  0.5333 -0.5334
  146SAPE  H12A16009   1.527   1.272  11.013  2.0279 -1.0028 -2.9819
  146SAPE  H12B16010   1.658   1.167  11.046  1.4159 -0.1701  2.3733
  146SAPE   C1116011   1.711   1.375  11.078 -0.7353 -0.2973 -0.0408
  146SAPE  H11A16012   1.658   1.470  11.100  0.5740 -0.0308  2.2138
  146SAPE  H11B16013   1.756   1.375  10.976  0.4371  0.0198  0.4683
  146SAPE     P16014   1.913   1.460  11.236  0.4345  0.0861 -0.2427
  146SAPE   O1316015   1.851   1.507  11.364 -0.4869  0.0832  0.5818
  146SAPE   O1416016   2.050   1.405  11.249 -0.6678 -0.4972  0.0087
  146SAPE   O1216017   1.817   1.345  11.167 -0.1486  0.2296 -0.4217
  146SAPE   O1116018   1.916   1.579  11.131 -0.2646  0.1191  0.1683
  146SAPE    C116019   1.813   1.684  11.116 -0.0565 -0.1158 -0.7165
  146SAPE    HA16020   1.728   1.647  11.177  0.8557 -0.6846  0.2436
  146SAPE    HB16021   1.849   1.774  11.170 -1.2986  0.2848 -0.5294
  146SAPE    C216022   1.766   1.691  10.965  0.3854 -0.0204  0.3029
  146SAPE    HS16023   1.737   1.588  10.934  0.9431 -0.2767  0.6259
  146SAPE   O2116024   1.870   1.733  10.880  0.4662  0.3330 -0.0655
  146SAPE   C2116025   1.951   1.644  10.823  0.5209 -0.1381 -0.5828
  146SAPE   O2216026   1.938   1.527  10.823  0.3049 -0.5455  0.1550
  146SAPE   C2216027   2.069   1.714  10.758 -0.2154  0.4267 -0.0429
  146SAPE   H2R16028   2.093   1.814  10.800  0.7293  0.8118 -1.4291
  146SAPE   H2S16029   2.152   1.644  10.783 -0.4538  0.1250 -0.0930
  146SAPE    C316030   1.648   1.787  10.953  1.0948  0.4622  0.1133
  146SAPE    HX16031   1.677   1.892  10.973 -0.8594  1.3092 -1.1214
  146SAPE    HY16032   1.568   1.761  11.026  0.0426 -1.3971 -1.5905
  146SAPE   O3116033   1.594   1.786  10.818 -0.4907  0.2037  0.0893
  146SAPE   C3116034   1.461   1.774  10.812 -0.3450  0.0922  1.1389
  146SAPE   O3216035   1.380   1.774  10.901  0.1304 -0.2525 -0.4715
  146SAPE   C3216036   1.423   1.759  10.667 -0.9650  0.4947  0.0937
  146SAPE   H2X16037   1.447   1.652  10.653  0.7272  0.7557  0.7803
  146SAPE   H2Y16038   1.491   1.816  10.601 -0.9751  0.2444 -0.1334
  146SAPE   C2316039   2.062   1.722  10.603 -0.6252  1.1999 -0.1241
  146SAPE   H3R16040   1.994   1.792  10.552 -0.8699 -0.7405 -2.7002
  146SAPE   H3S16041   2.012   1.624  10.589  0.3905  0.0255  3.3654
  146SAPE   C2416042   2.195   1.723  10.536  0.0467 -0.1087 -0.1206
  146SAPE   H4R16043   2.185   1.713  10.425 -0.5066  0.1517 -0.0943
  146SAPE   H4S16044   2.270   1.644  10.559  0.6452  0.0866 -1.2758
  146SAPE   C2516045   2.265   1.857  10.570 -0.5827 -0.2044  0.2912
  146SAPE   H5R16046   2.323   1.864  10.664 -1.2807  4.0877  0.6123
  146SAPE   C2616047   2.263   1.964  10.494 -0.4196  0.3126 -0.3433
  146SAPE   H6R16048   2.308   2.055  10.537 -2.0609  0.1410  1.8635
  146SAPE   C2716049   2.187   1.972  10.361  0.3008  0.4931  0.5780
  146SAPE   H7R16050   2.078   1.956  10.376  0.4813 -0.0755  1.2985
  146SAPE   H7S16051   2.226   1.898  10.288  1.5425  1.3989  0.2967
  146SAPE   C2816052   2.204   2.118  10.308  0.1043 -0.3626 -0.0320
  146SAPE   H8R16053   2.198   2.193  10.388  0.7047  0.7614 -1.0117
  146SAPE   C2916054   2.206   2.155  10.181 -0.9195  0.1238  0.2357
  146SAPE   H9R16055   2.213   2.260  10.150 -1.6600  0.0438 -0.2382
  146SAPE  C21016056   2.194   2.065  10.056 -0.4477  0.0075 -0.2226
  146SAPE  H10R16057   2.273   1.987  10.058 -2.6080 -2.3348 -0.4094
  146SAPE  H10S16058   2.238   2.122   9.971  1.1399 -1.3185 -0.3297
  146SAPE  C21116059   2.063   1.997  10.028  0.2957 -0.6855 -0.5245
  146SAPE  H11R16060   2.040   1.923  10.106 -0.6196  0.0925 -0.0287
  146SAPE  C21216061   1.972   2.027   9.936 -0.0629 -0.8419 -0.0824
  146SAPE  H12R16062   1.885   1.960   9.928 -1.2998  0.6242  0.6623
  146SAPE  C21316063   1.976   2.143   9.838 -0.9379  0.5128 -0.1253
  146SAPE  H13R16064   2.064   2.208   9.855 -0.6958  0.1508  0.0121
  146SAPE  H13S16065   1.880   2.195   9.861 -0.4772  1.1512  0.4082
  146SAPE  C21416066   1.981   2.115   9.691  0.4747  0.0772  0.3350
  146SAPE  H14R16067   2.061   2.049   9.655  0.1497 -0.0531 -0.1672
  146SAPE  C21516068   1.896   2.155   9.595  0.6055  0.6842 -0.7538
  146SAPE  H15R16069   1.933   2.132   9.493  1.5692 -1.2950  0.0011
  146SAPE  C21616070   1.770   2.242   9.611  0.3218  0.0031  0.8295
  146SAPE  H16R16071   1.732   2.223   9.714  2.9053 -0.5480  1.7547
  146SAPE  H16S16072   1.694   2.206   9.538 -1.8484  0.6050  2.6903
  146SAPE  C21716073   1.776   2.391   9.597  0.4512  0.4681 -0.3225
  146SAPE  H17R16074   1.843   2.433   9.676 -2.6797 -0.8434  3.3717
  146SAPE  H17S16075   1.676   2.430   9.628  1.1362  1.5588  0.5932
  146SAPE  C21816076   1.813   2.444   9.459 -0.9590 -0.2594  0.1534
  146SAPE  H18R16077   1.732   2.403   9.395 -1.2505 -1.5342  1.3021
  146SAPE  H18S16078   1.909   2.393   9.435 -1.6538 -1.1836 -0.7471
  146SAPE  C21916079   1.803   2.600   9.449 -0.7316 -0.0423 -0.2266
  146SAPE  H19R16080   1.835   2.651   9.543 -1.6860  3.4175 -1.6047
  146SAPE  H19S16081   1.695   2.625   9.438 -0.6661 -0.3736 -1.7473
  146SAPE  C22016082   1.884   2.653   9.327 -0.2050  0.3956 -0.2032
  146SAPE  H20R16083   1.884   2.764   9.322 -0.0151  0.3570 -1.8408
  146SAPE  H20S16084   1.831   2.604   9.241  3.0197 -2.2715 -0.8864
  146SAPE  H20T16085   1.990   2.620   9.319  0.0013  0.8897  0.4412
  146SAPE   C3316086   1.274   1.787  10.636 -0.0097 -0.6113 -0.0591
  146SAPE   H3X16087   1.266   1.895  10.662 -0.0292 -0.4054 -0.8799
  146SAPE   H3Y16088   1.203   1.733  10.702  0.7942 -1.2275  0.3155
  146SAPE   C3416089   1.229   1.773  10.491 -0.6242 -0.2365  0.9417
  146SAPE   H4X16090   1.236   1.667  10.460  2.3737  0.3090 -0.5761
  146SAPE   H4Y16091   1.296   1.832  10.426 -0.7463 -0.2333  0.8167
  146SAPE   C3516092   1.093   1.830  10.474  0.3208  0.2370  0.4247
  146SAPE   H5X16093   1.091   1.932  10.517  1.4623 -0.2284  1.6789
  146SAPE   H5Y16094   1.030   1.760  10.533 -0.4436 -1.5937 -2.3563
  146SAPE   C3616095   1.043   1.832  10.328  0.0455  0.5322  0.3530
  146SAPE   H6X16096   0.938   1.867  10.328  0.0117  0.4262  0.0631
  146SAPE   H6Y16097   1.038   1.728  10.291 -2.4131  0.8772 -0.4812
  146SAPE   C3716098   1.126   1.919  10.231  0.3358 -0.1018  0.6989
  146SAPE   H7X16099   1.223   1.873  10.202  1.0089 -0.0755  2.7951
  146SAPE   H7Y16100   1.152   2.017  10.276 -0.0251  1.1667 -1.7005
  146SAPE   C3816101   1.041   1.962  10.102 -0.7096  0.1538 -0.4321
  146SAPE   H8X16102   0.944   2.007  10.133 -0.2882  0.9303 -0.2266
  146SAPE   H8Y16103   1.031   1.869  10.042  1.7534 -0.7997  0.5088
  146SAPE   C3916104   1.110   2.075  10.016  0.4699 -0.9361 -0.3490
  146SAPE   H9X16105   1.221   2.067  10.007  0.3494 -0.3006 -3.7610
  146SAPE   H9Y16106   1.082   2.174  10.057  1.4393  0.1778 -2.2150
  146SAPE  C31016107   1.055   2.080   9.872  0.1303  0.8556  0.1146
  146SAPE  H10X16108   1.101   2.172   9.833  2.8563 -1.0647 -1.5188
  146SAPE  H10Y16109   0.946   2.090   9.895 -0.3280  2.2462 -2.3383
  146SAPE  C31116110   1.118   1.958   9.792 -0.3943  0.0103 -0.5574
  146SAPE  H11X16111   1.107   1.872   9.861  0.7723  0.0298 -0.3336
  146SAPE  H11Y16112   1.227   1.965   9.773 -0.3505  0.7917 -0.0989
  146SAPE  C31216113   1.042   1.941   9.666 -0.2044  0.5382 -0.2840
  146SAPE  H12X16114   0.933   1.925   9.686 -0.0072  0.1200  0.4933
  146SAPE  H12Y16115   1.085   1.850   9.619  1.9824  0.7180  1.2425
  146SAPE  C31316116   1.078   2.056   9.576  0.3528 -0.5123 -0.3580
  146SAPE  H13X16117   1.187   2.076   9.566  0.1488  0.7605 -0.1926
  146SAPE  H13Y16118   1.040   2.146   9.628  1.1374 -0.5126  0.2418
  146SAPE  C31416119   1.031   2.045   9.438  0.5690  1.3786  0.5123
  146SAPE  H14X16120   0.920   2.041   9.450  0.3693 -1.1061 -1.3117
  146SAPE  H14Y16121   1.066   1.950   9.392 -0.9463  0.3270  1.4525
  146SAPE  C31516122   1.072   2.162   9.344 -0.1156 -0.0090  0.2350
  146SAPE  H15X16123   1.179   2.136   9.330 -0.2339 -0.9619  1.0126
  146SAPE  H15Y16124   1.058   2.260   9.396 -0.3320  0.9180 -1.5046
  146SAPE  C31616125   1.000   2.148   9.209 -0.1727 -0.0918  0.4494
  146SAPE  H16X16126   0.997   2.042   9.177  0.4193  0.1778 -0.5634
  146SAPE  H16Y16127   1.053   2.204   9.128 -1.4027  0.4178 -0.0331
  146SAPE  C31716128   0.871   2.229   9.229  0.1057 -0.3189  0.6619
  146SAPE  H17X16129   0.893   2.315   9.296  1.7199  1.0893 -1.5324
  146SAPE  H17Y16130   0.794   2.171   9.283  1.5542 -2.6109  0.4126
  146SAPE  C31816131   0.810   2.282   9.099  0.8557  0.2962 -0.3553
  146SAPE  H18X16132   0.885   2.341   9.043  3.5534 -2.2468  0.3519
  146SAPE  H18Y16133   0.717   2.341   9.118 -0.4406 -0.8594 -2.6679
  146SAPE  H18Z16134   0.786   2.195   9.035 -1.3377  1.7753 -1.6727
  147SAPE     N16135   6.614   0.264   6.625  0.5986  0.5272 -0.2230
  147SAPE   HN116136   6.542   0.339   6.636  0.7399  0.8142 -1.1665
  147SAPE   HN216137   6.704   0.294   6.667  0.4631 -1.4528  1.6653
  147SAPE   HN316138   6.638   0.244   6.526  1.8025 -1.7994  0.4695
  147SAPE   C1216139   6.562   0.134   6.687  0.3685 -0.1542  0.5787
  147SAPE  H12A16140   6.563   0.064   6.601  2.4643 -0.1074  0.5032
  147SAPE  H12B16141   6.459   0.151   6.723 -0.2241  1.2385 -1.5807
  147SAPE   C1116142   6.655   0.078   6.790 -0.0884  0.1339  0.7140
  147SAPE  H11A16143   6.614  -0.018   6.827  0.7172 -1.1582 -1.5186
  147SAPE  H11B16144   6.667   0.147   6.876 -1.1764  2.0863 -0.6164
  147SAPE     P16145   6.825  -0.093   6.674  0.0728  0.5118 -0.0807
  147SAPE   O1316146   6.714  -0.190   6.667  0.8344 -0.9437 -0.3002
  147SAPE   O1416147   6.906  -0.064   6.557  0.4331  0.2758  0.2974
  147SAPE   O1216148   6.785   0.048   6.735  0.0143  1.0070  0.2117
  147SAPE   O1116149   6.927  -0.165   6.776 -0.1032 -0.0385 -0.1331
  147SAPE    C116150   6.997  -0.091   6.878  1.0824 -0.1371  0.0925
  147SAPE    HA16151   7.098  -0.134   6.900  1.6692  1.4831  0.6701
  147SAPE    HB16152   7.032   0.008   6.843  2.7287 -1.2522 -1.6003
  147SAPE    C216153   6.929  -0.071   7.012 -0.1612 -0.2312 -0.7840
  147SAPE    HS16154   6.840  -0.011   6.984 -0.5420  0.6506  2.0391
  147SAPE   O2116155   7.020   0.002   7.102  0.2048 -0.0709  0.4981
  147SAPE   C2116156   6.963   0.104   7.161 -0.4909 -0.9000 -0.1494
  147SAPE   O2216157   6.849   0.123   7.182  0.0838 -0.0517  0.2027
  147SAPE   C2216158   7.078   0.189   7.218  0.5078 -1.0055  0.0239
  147SAPE   H2R16159   7.173   0.131   7.218  0.4643 -1.0758 -0.1527
  147SAPE   H2S16160   7.092   0.274   7.148  0.0674  0.3253  1.4932
  147SAPE    C316161   6.886  -0.206   7.087  0.6896  0.0328 -0.2353
  147SAPE    HX16162   6.984  -0.247   7.121  0.1517 -0.3524  0.8870
  147SAPE    HY16163   6.843  -0.281   7.017 -1.3656 -0.3521  1.3444
  147SAPE   O3116164   6.791  -0.193   7.199  0.1916  0.2970  0.3514
  147SAPE   C3116165   6.676  -0.133   7.175 -0.2206  0.4937  0.5275
  147SAPE   O3216166   6.635  -0.107   7.061  0.4786 -0.7375  0.2531
  147SAPE   C3216167   6.613  -0.102   7.314  0.0268 -0.7593 -0.4730
  147SAPE   H2X16168   6.615   0.007   7.337 -0.7102 -1.0646  1.1066
  147SAPE   H2Y16169   6.679  -0.148   7.391 -0.8818 -1.2782  0.0001
  147SAPE   C2316170   7.049   0.242   7.364  0.6091  0.2378 -0.2746
  147SAPE   H3R16171   6.975   0.176   7.414  1.4462 -2.6824 -2.5704
  147SAPE   H3S16172   6.996   0.337   7.340 -0.1015 -0.2534 -0.6917
  147SAPE   C2416173   7.172   0.264   7.452  0.0708  0.8741  0.6836
  147SAPE   H4R16174   7.144   0.333   7.535 -1.8762 -0.5335  1.2820
  147SAPE   H4S16175   7.249   0.325   7.400  2.9557  0.3771  3.9512
  147SAPE   C2516176   7.228   0.133   7.503  0.1272 -0.3423  0.3813
  147SAPE   H5R16177   7.271   0.069   7.424 -0.5877  1.6945 -1.7525
  147SAPE   C2616178   7.232   0.082   7.631  0.1413  0.5411  1.7722
  147SAPE   H6R16179   7.279  -0.017   7.633  1.7717  1.1323 -0.9447
  147SAPE   C2716180   7.176   0.141   7.754 -0.7769  0.3637 -0.2283
  147SAPE   H7R16181   7.069   0.160   7.732 -0.5377  1.7795 -0.2940
  147SAPE   H7S16182   7.220   0.243   7.760  0.4597 -0.0356 -1.8014
  147SAPE   C2816183   7.196   0.043   7.871 -0.0459 -0.4247  0.2938
  147SAPE   H8R16184   7.204  -0.065   7.850 -0.9769 -0.4158 -0.1387
  147SAPE   C2916185   7.192   0.076   8.003 -0.3573 -0.0132 -0.2265
  147SAPE   H9R16186   7.192  -0.006   8.076 -0.1173 -0.0924 -0.3143
  147SAPE  C21016187   7.166   0.215   8.066 -0.6597  0.1718  0.9360
  147SAPE  H10R16188   7.120   0.276   7.986 -0.7321 -1.1929 -0.1103
  147SAPE  H10S16189   7.260   0.258   8.109  0.8421 -2.4267  0.4599
  147SAPE  C21116190   7.078   0.212   8.186 -0.8234 -0.2178  0.6098
  147SAPE  H11R16191   7.001   0.133   8.186 -1.4617  0.2242 -3.0335
  147SAPE  C21216192   7.053   0.311   8.274  0.3999  0.1922  0.5188
  147SAPE  H12R16193   6.993   0.280   8.361  0.7171  0.9069  0.9994
  147SAPE  C21316194   7.100   0.452   8.284 -0.0070 -0.1001  0.3126
  147SAPE  H13R16195   7.010   0.517   8.285  0.5824  0.8153 -1.4806
  147SAPE  H13S16196   7.162   0.492   8.201  1.5447  0.8368  1.8756
  147SAPE  C21416197   7.186   0.472   8.398  0.1957  0.1927 -0.1597
  147SAPE  H14R16198   7.288   0.443   8.370 -0.0200  0.5892 -1.4378
  147SAPE  C21516199   7.155   0.507   8.526  0.1354 -0.1271 -0.3216
  147SAPE  H15R16200   7.240   0.519   8.595  0.8780 -0.6835 -1.1304
  147SAPE  C21616201   7.021   0.535   8.589  0.0385 -0.0853 -0.8938
  147SAPE  H16R16202   6.946   0.565   8.513 -0.5682 -0.7470 -0.5612
  147SAPE  H16S16203   7.028   0.630   8.646 -0.8201  0.4451 -1.6571
  147SAPE  C21716204   6.986   0.423   8.686  0.0433 -0.2193 -0.4767
  147SAPE  H17R16205   7.059   0.418   8.768 -0.9126  0.9591  0.4812
  147SAPE  H17S16206   6.993   0.331   8.624  0.6034 -0.4440 -0.0826
  147SAPE  C21816207   6.846   0.440   8.743  0.7258 -0.5517  0.1338
  147SAPE  H18R16208   6.772   0.443   8.661  1.5567  0.5789 -0.6011
  147SAPE  H18S16209   6.855   0.533   8.803  0.6581  0.2395 -1.0483
  147SAPE  C21916210   6.819   0.315   8.835 -0.0747  0.3760  0.3310
  147SAPE  H19R16211   6.735   0.340   8.905  0.0124  1.6410  0.0159
  147SAPE  H19S16212   6.911   0.300   8.895  1.3310 -1.7147 -2.1760
  147SAPE  C22016213   6.762   0.199   8.754  0.0115 -1.0411 -0.0228
  147SAPE  H20R16214   6.817   0.180   8.659  0.4331  0.0983 -0.0208
  147SAPE  H20S16215   6.659   0.223   8.719 -1.1997 -2.6954  2.1576
  147SAPE  H20T16216   6.752   0.108   8.817  4.5194 -0.2854  2.1741
  147SAPE   C3316217   6.467  -0.148   7.337  0.0151 -0.0269  0.4384
  147SAPE   H3X16218   6.468  -0.259   7.348 -0.6609  0.0884  1.7828
  147SAPE   H3Y16219   6.416  -0.127   7.241 -0.6683 -1.6438  0.4122
  147SAPE   C3416220   6.385  -0.082   7.454 -0.5524  0.5277  0.4828
  147SAPE   H4X16221   6.276  -0.102   7.445 -0.8420  1.5300  1.6239
  147SAPE   H4Y16222   6.396   0.028   7.450 -0.5146  0.5049 -0.1091
  147SAPE   C3516223   6.428  -0.137   7.592 -0.6078 -0.5944  0.3904
  147SAPE   H5X16224   6.533  -0.107   7.612 -0.7242 -0.0296  0.1739
  147SAPE   H5Y16225   6.429  -0.248   7.585 -0.9969 -0.6664  1.3107
  147SAPE   C3616226   6.336  -0.090   7.702  0.3254  0.3729  0.4477
  147SAPE   H6X16227   6.357  -0.157   7.787  2.8333 -0.5739 -0.8151
  147SAPE   H6Y16228   6.230  -0.086   7.668  0.6921 -1.3806 -1.0457
  147SAPE   C3716229   6.384   0.055   7.748 -0.4497  0.4461  0.1321
  147SAPE   H7X16230   6.354   0.132   7.674 -0.9556  0.1644  0.0404
  147SAPE   H7Y16231   6.495   0.051   7.761 -0.3523  0.3888 -0.6942
  147SAPE   C3816232   6.307   0.100   7.878 -0.7654  0.1685  0.3220
  147SAPE   H8X16233   6.196   0.097   7.866 -0.7737  1.3264 -0.0029
  147SAPE   H8Y16234   6.340   0.201   7.909 -0.5814 -0.2625  1.5683
  147SAPE   C3916235   6.354   0.011   7.997  0.2604  0.0619 -0.5110
  147SAPE   H9X16236   6.461   0.041   8.011  0.0606 -0.0719  1.6652
  147SAPE   H9Y16237   6.369  -0.098   7.982  0.2378 -0.1848  1.0449
  147SAPE  C31016238   6.277   0.037   8.124  0.6798 -0.0370 -0.0567
  147SAPE  H10X16239   6.177  -0.011   8.113  1.6674 -2.4974  1.0514
  147SAPE  H10Y16240   6.275   0.146   8.147  1.4846 -0.1643  0.6670
  147SAPE  C31116241   6.341  -0.034   8.240 -0.0724 -0.0384 -0.0106
  147SAPE  H11X16242   6.450  -0.013   8.253  0.3905 -2.7402  1.4150
  147SAPE  H11Y16243   6.342  -0.142   8.213  3.3350  0.4236 -2.4699
  147SAPE  C31216244   6.269   0.001   8.368  0.2701  0.1060 -0.1737
  147SAPE  H12X16245   6.190  -0.075   8.384  0.5462 -0.6424 -2.1146
  147SAPE  H12Y16246   6.216   0.099   8.369 -2.6073 -1.3030  2.3607
  147SAPE  C31316247   6.359   0.006   8.492 -0.9515 -0.0684  0.6685
  147SAPE  H13X16248   6.437   0.083   8.472 -2.4211  1.9410  2.2004
  147SAPE  H13Y16249   6.421  -0.082   8.521  1.1434  1.3072  0.5770
  147SAPE  C31416250   6.279   0.052   8.621 -0.3889 -0.5192  0.3635
  147SAPE  H14X16251   6.282  -0.032   8.694  1.4662 -0.8895 -0.0950
  147SAPE  H14Y16252   6.174   0.068   8.588 -0.0181  0.3793 -0.4244
  147SAPE  C31516253   6.331   0.182   8.690 -0.4629 -0.1450  0.9736
  147SAPE  H15X16254   6.439   0.168   8.708 -0.1461  0.5594 -0.2765
  147SAPE  H15Y16255   6.285   0.184   8.791  1.8853 -0.3973  2.1108
  147SAPE  C31616256   6.313   0.305   8.602  0.2092 -0.0771  0.9607
  147SAPE  H16X16257   6.205   0.324   8.583  0.9452  0.4760 -3.8005
  147SAPE  H16Y16258   6.347   0.281   8.500  0.7493 -0.2584  1.1807
  147SAPE  C31716259   6.385   0.429   8.661  0.1773 -0.0891 -0.4591
  147SAPE  H17X16260   6.390   0.498   8.574 -1.3244  0.8937  0.1851
  147SAPE  H17Y16261   6.484   0.405   8.704 -0.3486  0.2451  1.0082
  147SAPE  C31816262   6.327   0.494   8.783  0.1537 -0.5963 -0.2356
  147SAPE  H18X16263   6.330   0.424   8.869  0.7022 -1.7425 -1.1389
  147SAPE  H18Y16264   6.227   0.536   8.763  1.1326  1.0275 -2.1233
  147SAPE  H18Z16265   6.390   0.578   8.819  0.2701 -1.1733  0.9676
  148SAPE     N16266   4.658   3.841   6.775 -0.3036 -0.3649 -0.4927
  148SAPE   HN116267   4.645   3.757   6.717 -0.4927 -2.9441  2.9686
  148SAPE   HN216268   4.728   3.806   6.844 -0.4495 -0.2465 -0.2821
  148SAPE   HN316269   4.570   3.871   6.822  0.3567 -0.3554  0.7798
  148SAPE   C1216270   4.705   3.966   6.701  0.1116 -0.5061  0.2303
  148SAPE  H12A16271   4.643   3.975   6.609 -0.9612  1.3332  1.0705
  148SAPE  H12B16272   4.811   3.946   6.674  0.3274 -0.1425  0.7993
  148SAPE   C1116273   4.686   4.083   6.785  0.4623  0.2561  0.0252
  148SAPE  H11A16274   4.706   4.163   6.711  4.2365 -1.7606 -1.3781
  148SAPE  H11B16275   4.760   4.077   6.867  0.7576  0.4361 -0.2240
  148SAPE     P16276   4.498   4.231   6.902  0.1586 -0.0097  0.1286
  148SAPE   O1316277   4.484   4.339   6.801  0.7945 -0.4686  0.7594
  148SAPE   O1416278   4.383   4.204   6.996 -0.0517  0.3258  0.1277
  148SAPE   O1216279   4.543   4.094   6.826 -0.5454 -0.0535 -0.3839
  148SAPE   O1116280   4.622   4.271   6.987  0.2938  0.4912 -0.4575
  148SAPE    C116281   4.630   4.193   7.111 -0.2401 -0.3865  0.2884
  148SAPE    HA16282   4.573   4.098   7.113  0.1265 -0.6319 -0.5438
  148SAPE    HB16283   4.739   4.177   7.127 -0.2074  1.1178  1.8666
  148SAPE    C216284   4.571   4.274   7.234  0.2685  0.3187  0.7088
  148SAPE    HS16285   4.463   4.287   7.211  1.1323  1.1973 -3.7475
  148SAPE   O2116286   4.638   4.398   7.249 -0.8727  0.2836  0.0987
  148SAPE   C2116287   4.601   4.503   7.179  0.6706  0.1365 -0.3966
  148SAPE   O2216288   4.494   4.501   7.111 -0.4060  0.2671  0.2752
  148SAPE   C2216289   4.702   4.613   7.186  0.0219 -0.2204  0.2170
  148SAPE   H2R16290   4.731   4.634   7.292  2.2221  0.5513 -0.4632
  148SAPE   H2S16291   4.798   4.595   7.132 -0.4572 -0.8782 -0.4207
  148SAPE    C316292   4.573   4.179   7.361 -0.5326  0.4409  0.2219
  148SAPE    HX16293   4.675   4.136   7.366 -0.4377  0.2787 -2.0105
  148SAPE    HY16294   4.496   4.105   7.330 -0.2258 -1.5578  3.8021
  148SAPE   O3116295   4.549   4.256   7.486  0.9473  0.1165  0.3629
  148SAPE   C3116296   4.520   4.172   7.580  0.5136 -0.0480  0.7145
  148SAPE   O3216297   4.504   4.051   7.568  0.3009 -0.3885  0.3548
  148SAPE   C3216298   4.482   4.252   7.707  0.2797  0.4522  0.6811
  148SAPE   H2X16299   4.381   4.209   7.727  1.3419 -2.6663 -0.0272
  148SAPE   H2Y16300   4.474   4.362   7.693  0.9030  0.6506  1.8214
  148SAPE   C2316301   4.647   4.746   7.123  0.4933  0.0058  0.2727
  148SAPE   H3R16302   4.545   4.761   7.164 -0.1294  1.2988 -1.6192
  148SAPE   H3S16303   4.628   4.747   7.013 -0.2500 -1.5018  0.3502
  148SAPE   C2416304   4.718   4.876   7.161 -0.1860 -0.0431 -0.5434
  148SAPE   H4R16305   4.745   4.885   7.269  0.5567 -0.5534 -0.6761
  148SAPE   H4S16306   4.648   4.961   7.148  0.0428  0.9486  3.4002
  148SAPE   C2516307   4.846   4.892   7.085 -0.3748 -0.1723 -0.4492
  148SAPE   H5R16308   4.838   4.944   6.989  1.4180  3.2562  1.1085
  148SAPE   C2616309   4.966   4.865   7.135  0.8173  0.2425  0.3205
  148SAPE   H6R16310   5.050   4.891   7.069 -0.2845 -0.7094 -1.5153
  148SAPE   C2716311   5.004   4.827   7.278 -0.5637  0.8071 -0.2517
  148SAPE   H7R16312   4.922   4.766   7.322 -1.8542  1.1780 -2.0310
  148SAPE   H7S16313   5.007   4.910   7.351 -0.6295  0.6828 -0.1059
  148SAPE   C2816314   5.143   4.766   7.278  0.3498 -0.6959 -0.1256
  148SAPE   H8R16315   5.180   4.741   7.177 -2.4368 -1.1231 -1.1253
  148SAPE   C2916316   5.215   4.744   7.387  0.1323 -0.2287  0.6024
  148SAPE   H9R16317   5.315   4.698   7.373 -1.1103 -2.3864 -2.4904
  148SAPE  C21016318   5.172   4.778   7.534  0.2018 -0.2203  0.0971
  148SAPE  H10R16319   5.091   4.709   7.566  1.0325 -1.6325 -0.7301
  148SAPE  H10S16320   5.144   4.885   7.534  1.4386  0.1121 -0.1496
  148SAPE  C21116321   5.282   4.758   7.643  0.5903  0.4387 -0.0441
  148SAPE  H11R16322   5.386   4.750   7.609  1.0913 -0.7739  1.6359
  148SAPE  C21216323   5.252   4.727   7.776 -0.4538 -0.3800 -0.5840
  148SAPE  H12R16324   5.343   4.729   7.839  0.9423  3.0312 -2.4536
  148SAPE  C21316325   5.116   4.719   7.837 -0.1130 -0.4191  0.1259
  148SAPE  H13R16326   5.117   4.647   7.921 -1.1667  0.7967  1.2170
  148SAPE  H13S16327   5.041   4.683   7.764  0.5184 -0.3285 -0.5817
  148SAPE  C21416328   5.060   4.860   7.879 -0.3720  0.0307  0.0069
  148SAPE  H14R16329   4.986   4.903   7.809  0.5063  0.0718 -0.9171
  148SAPE  C21516330   5.080   4.930   7.991  0.0636 -1.1098 -0.3960
  148SAPE  H15R16331   5.029   5.026   8.009  0.6470 -1.1050  1.3739
  148SAPE  C21616332   5.177   4.886   8.097  0.3219 -0.0858  0.0512
  148SAPE  H16R16333   5.223   4.980   8.136 -1.7304  0.9342  0.1585
  148SAPE  H16S16334   5.261   4.821   8.064 -0.3044 -0.7035 -0.3283
  148SAPE  C21716335   5.102   4.827   8.221 -0.0943 -0.3791 -0.3218
  148SAPE  H17R16336   5.017   4.896   8.240 -0.1361 -0.7127  0.7855
  148SAPE  H17S16337   5.169   4.815   8.309  0.8249 -1.8451 -1.1735
  148SAPE  C21816338   5.045   4.685   8.209 -0.1912  0.3118  0.3960
  148SAPE  H18R16339   5.120   4.611   8.174 -1.0834 -0.7937  0.7633
  148SAPE  H18S16340   4.958   4.683   8.139  1.3561  1.6733 -1.6863
  148SAPE  C21916341   4.999   4.632   8.346 -0.5224  0.0812  0.6458
  148SAPE  H19R16342   5.082   4.658   8.416  0.3504  0.2559 -0.4181
  148SAPE  H19S16343   5.006   4.521   8.343  0.0938  0.1016 -2.0479
  148SAPE  C22016344   4.871   4.683   8.401  0.2758 -0.1066  0.5546
  148SAPE  H20R16345   4.879   4.790   8.431 -2.2890  0.0744  0.7828
  148SAPE  H20S16346   4.854   4.629   8.496 -0.9991  2.0729  1.6474
  148SAPE  H20T16347   4.789   4.671   8.327 -2.1998  0.2548  3.0891
  148SAPE   C3316348   4.573   4.193   7.817  0.6626 -0.1964  0.4294
  148SAPE   H3X16349   4.671   4.244   7.815  0.2838  0.5020 -1.3656
  148SAPE   H3Y16350   4.592   4.083   7.818  0.3854 -0.3304 -2.2426
  148SAPE   C3416351   4.514   4.215   7.954  0.1527 -0.2700  0.2129
  148SAPE   H4X16352   4.409   4.179   7.958 -0.0635  0.4602  1.8102
  148SAPE   H4Y16353   4.519   4.325   7.970 -2.5065 -0.0413 -0.0521
  148SAPE   C3516354   4.593   4.142   8.066 -0.5575  0.6075 -0.4033
  148SAPE   H5X16355   4.698   4.179   8.076 -0.5015  0.8779 -1.7669
  148SAPE   H5Y16356   4.601   4.033   8.050  0.8443  0.7540 -0.8458
  148SAPE   C3616357   4.530   4.151   8.207  0.2386  0.3625 -0.0199
  148SAPE   H6X16358   4.428   4.111   8.191  0.0680 -0.0562  1.9207
  148SAPE   H6Y16359   4.512   4.254   8.244 -0.9213  0.5602 -1.0420
  148SAPE   C3716360   4.594   4.060   8.311  0.1311 -0.0221 -0.1561
  148SAPE   H7X16361   4.549   4.080   8.410 -1.5936 -0.9642 -0.7170
  148SAPE   H7Y16362   4.698   4.090   8.335 -0.0416 -0.2012  0.8665
  148SAPE   C3816363   4.589   3.909   8.279  0.4498  0.2445 -0.0678
  148SAPE   H8X16364   4.645   3.889   8.186  1.6592  1.4846  0.3623
  148SAPE   H8Y16365   4.489   3.869   8.253  0.1844  0.1247  1.0561
  148SAPE   C3916366   4.667   3.820   8.388  0.4397 -0.0146  0.1197
  148SAPE   H9X16367   4.775   3.829   8.363 -0.0381 -0.0818 -2.1407
  148SAPE   H9Y16368   4.636   3.717   8.361  2.1124 -1.0681  1.9153
  148SAPE  C31016369   4.633   3.844   8.532  0.3829 -0.4688  0.7833
  148SAPE  H10X16370   4.523   3.861   8.532  0.1539 -1.3532 -1.9873
  148SAPE  H10Y16371   4.683   3.935   8.573 -1.6228  0.8066  0.5239
  148SAPE  C31116372   4.671   3.726   8.621  0.7400 -0.2744 -0.1836
  148SAPE  H11X16373   4.781   3.723   8.639  1.3559  0.2476 -3.3744
  148SAPE  H11Y16374   4.652   3.628   8.573  1.0475  0.7695 -2.5634
  148SAPE  C31216375   4.596   3.737   8.761  0.0749  0.1366 -0.2378
  148SAPE  H12X16376   4.609   3.642   8.818  0.6435  0.8576  0.8695
  148SAPE  H12Y16377   4.487   3.753   8.743  0.1523  0.8388 -0.1138
  148SAPE  C31316378   4.638   3.858   8.858  0.4763  0.7835  0.1087
  148SAPE  H13X16379   4.565   3.857   8.942 -0.9842  0.4902 -1.1333
  148SAPE  H13Y16380   4.628   3.943   8.788 -0.1508 -1.5213 -2.8220
  148SAPE  C31416381   4.784   3.845   8.910  0.6452 -0.6318  0.0238
  148SAPE  H14X16382   4.851   3.821   8.825  1.8821  1.2136  0.4059
  148SAPE  H14Y16383   4.785   3.758   8.980  2.8650 -0.8950 -0.2483
  148SAPE  C31516384   4.839   3.978   8.969  0.3866  0.2723 -0.6488
  148SAPE  H15X16385   4.761   4.017   9.037 -0.4576 -0.4074 -1.2133
  148SAPE  H15Y16386   4.852   4.039   8.876  2.5444 -0.7238 -1.0622
  148SAPE  C31616387   4.976   3.974   9.035  0.3904  0.2324  0.2359
  148SAPE  H16X16388   5.019   4.077   9.040  0.4531  0.1463  2.0674
  148SAPE  H16Y16389   5.044   3.909   8.976 -0.9632  0.9506 -2.2406
  148SAPE  C31716390   4.984   3.910   9.174 -0.6715 -0.5150 -0.4129
  148SAPE  H17X16391   4.919   3.820   9.169 -1.0783 -0.3162  0.9569
  148SAPE  H17Y16392   4.932   3.987   9.235  0.6360  1.5118 -1.7337
  148SAPE  C31816393   5.125   3.895   9.235 -1.0351 -0.0850  0.0810
  148SAPE  H18X16394   5.174   3.810   9.182 -0.0936  0.2691  0.3760
  148SAPE  H18Y16395   5.121   3.880   9.345  2.9333  1.0971  0.5379
  148SAPE  H18Z16396   5.184   3.987   9.218  0.5627 -1.2384 -0.9845
  149SAPE     N16397   4.580   5.565   6.213  0.4373 -0.5642 -0.4275
  149SAPE   HN116398   4.500   5.618   6.173  2.1444  1.4713 -1.3654
  149SAPE   HN216399   4.641   5.528   6.137 -1.9967 -0.8576 -2.3381
  149SAPE   HN316400   4.545   5.486   6.270  1.1771  0.6382  1.8050
  149SAPE   C1216401   4.642   5.669   6.303 -0.3367  0.1090 -0.8378
  149SAPE  H12A16402   4.560   5.743   6.314 -0.8118 -0.2619 -1.7977
  149SAPE  H12B16403   4.730   5.704   6.245  1.8174 -0.9080  1.5800
  149SAPE   C1116404   4.674   5.609   6.441  0.3687 -0.1482  0.2707
  149SAPE  H11A16405   4.588   5.547   6.474  0.7262 -0.9950 -0.3588
  149SAPE  H11B16406   4.689   5.695   6.510 -0.2941 -0.2481  0.5443
  149SAPE     P16407   4.829   5.418   6.539  0.1439 -0.1922  0.0468
  149SAPE   O1316408   4.780   5.294   6.483  0.0950 -0.3880 -0.1447
  149SAPE   O1416409   4.972   5.437   6.566  0.1728 -0.5193 -0.1820
  149SAPE   O1216410   4.795   5.534   6.438 -0.2779 -0.1963  0.1529
  149SAPE   O1116411   4.738   5.460   6.666 -0.2013 -0.0331  0.0549
  149SAPE    C116412   4.772   5.574   6.748 -0.3564 -0.4992 -0.2192
  149SAPE    HA16413   4.868   5.620   6.718 -1.3209  1.2902 -0.6915
  149SAPE    HB16414   4.702   5.660   6.745 -0.5618 -0.6322  0.4090
  149SAPE    C216415   4.781   5.539   6.899  0.1030 -0.2032  0.2822
  149SAPE    HS16416   4.879   5.486   6.901  0.8043  1.0470  1.4581
  149SAPE   O2116417   4.661   5.461   6.930 -0.3730 -0.4022  0.2305
  149SAPE   C2116418   4.696   5.374   7.013  0.0929 -0.0111 -0.7399
  149SAPE   O2216419   4.809   5.339   7.046  0.1113 -0.2427 -0.1112
  149SAPE   C2216420   4.574   5.307   7.079  0.2193 -0.0161 -0.4890
  149SAPE   H2R16421   4.480   5.346   7.035 -1.0000 -0.6312  1.4172
  149SAPE   H2S16422   4.591   5.198   7.066  0.8703 -0.0116  0.2070
  149SAPE    C316423   4.796   5.657   6.997  0.0437 -0.7715  0.1325
  149SAPE    HX16424   4.699   5.712   6.998 -0.2435 -1.0874 -2.8298
  149SAPE    HY16425   4.868   5.725   6.949 -0.6524 -0.2474 -0.1807
  149SAPE   O3116426   4.830   5.619   7.134 -0.1977  0.3746  0.3023
  149SAPE   C3116427   4.955   5.585   7.150  0.0922  0.0078  0.1418
  149SAPE   O3216428   5.040   5.593   7.060  0.8157 -0.7458  0.8660
  149SAPE   C3216429   4.990   5.531   7.285  0.2939 -0.1168 -0.6418
  149SAPE   H2X16430   5.100   5.537   7.299  0.2146 -2.3034  1.7003
  149SAPE   H2Y16431   4.967   5.422   7.283 -1.2589  0.1989 -1.4151
  149SAPE   C2316432   4.563   5.339   7.232 -0.1899 -0.2577  0.4077
  149SAPE   H3R16433   4.456   5.319   7.255 -0.1808 -2.9462 -1.4230
  149SAPE   H3S16434   4.596   5.444   7.245 -0.8717  0.0832 -0.4768
  149SAPE   C2416435   4.628   5.243   7.331  0.0006  0.9475 -0.6374
  149SAPE   H4R16436   4.568   5.149   7.327  0.4405  0.6945 -2.7978
  149SAPE   H4S16437   4.617   5.288   7.432 -0.1902  0.2589 -0.3436
  149SAPE   C2516438   4.770   5.206   7.328  0.1855  0.4373 -0.3475
  149SAPE   H5R16439   4.819   5.211   7.230 -1.9802  0.1510 -1.5128
  149SAPE   C2616440   4.852   5.174   7.429 -0.4783  0.2495 -0.3620
  149SAPE   H6R16441   4.956   5.148   7.407 -0.4194  0.6802 -0.5810
  149SAPE   C2716442   4.818   5.162   7.581 -0.6981  0.3054 -0.3770
  149SAPE   H7R16443   4.913   5.121   7.622 -0.1601  0.2303 -1.6236
  149SAPE   H7S16444   4.739   5.086   7.597 -0.0843 -0.4147 -0.6843
  149SAPE   C2816445   4.774   5.280   7.666  0.3891 -0.0250  0.8362
  149SAPE   H8R16446   4.762   5.373   7.610  0.5165  0.3377  1.3984
  149SAPE   C2916447   4.766   5.273   7.801 -0.3402  0.7328  0.2376
  149SAPE   H9R16448   4.738   5.365   7.855  1.2521  1.2439  0.2471
  149SAPE  C21016449   4.799   5.156   7.890 -0.0160 -0.3525 -0.4744
  149SAPE  H10R16450   4.890   5.183   7.948 -0.4738 -1.5166  0.8538
  149SAPE  H10S16451   4.827   5.063   7.837  2.3584  0.0161  0.0136
  149SAPE  C21116452   4.697   5.137   7.998 -0.2412  0.0182 -1.3319
  149SAPE  H11R16453   4.623   5.060   7.968 -0.8634  0.3572 -0.7099
  149SAPE  C21216454   4.684   5.180   8.131  0.2462 -0.2257 -0.3204
  149SAPE  H12R16455   4.585   5.168   8.178  0.5130  0.9139  0.5484
  149SAPE  C21316456   4.775   5.281   8.190 -0.1328  0.1416 -0.1013
  149SAPE  H13R16457   4.710   5.359   8.237  0.4806  0.5472  0.0855
  149SAPE  H13S16458   4.820   5.336   8.105  0.6164 -0.5462 -0.1582
  149SAPE  C21416459   4.876   5.225   8.282 -0.0915 -0.0334  0.0433
  149SAPE  H14R16460   4.919   5.133   8.239 -1.1582  0.3139 -1.8899
  149SAPE  C21516461   4.913   5.281   8.397 -0.5517 -0.7639 -0.5010
  149SAPE  H15R16462   4.988   5.228   8.457 -0.5658 -0.5302 -0.2725
  149SAPE  C21616463   4.863   5.408   8.463  0.3208  0.6747 -0.7005
  149SAPE  H16R16464   4.782   5.462   8.411 -1.9028 -1.3299  0.4771
  149SAPE  H16S16465   4.951   5.475   8.469  1.0902 -0.2393 -1.4062
  149SAPE  C21716466   4.821   5.377   8.613  0.1749 -0.4551  0.1994
  149SAPE  H17R16467   4.820   5.468   8.678 -0.3182  0.7818 -1.4516
  149SAPE  H17S16468   4.902   5.318   8.660 -0.4674 -1.8171 -0.3741
  149SAPE  C21816469   4.694   5.299   8.645  0.4083 -0.1060 -0.1935
  149SAPE  H18R16470   4.713   5.197   8.606 -1.2177  0.3948 -2.5946
  149SAPE  H18S16471   4.609   5.342   8.586  0.4445  0.1670 -0.0457
  149SAPE  C21916472   4.665   5.299   8.793  0.3192 -0.6071 -0.2747
  149SAPE  H19R16473   4.634   5.403   8.818  2.0859 -0.5100  1.7904
  149SAPE  H19S16474   4.760   5.284   8.848 -0.1462  0.1999  0.7800
  149SAPE  C22016475   4.579   5.185   8.843 -0.0453  0.0396  0.2379
  149SAPE  H20R16476   4.474   5.191   8.808  0.3004  0.3420 -0.7665
  149SAPE  H20S16477   4.589   5.166   8.952  5.4996  0.5626  0.1162
  149SAPE  H20T16478   4.612   5.091   8.793 -1.2926 -0.2178 -0.1524
  149SAPE   C3316479   4.932   5.607   7.402  0.1583  0.1520 -0.6883
  149SAPE   H3X16480   4.823   5.585   7.411  0.2365 -0.0286 -0.0736
  149SAPE   H3Y16481   4.932   5.718   7.393  2.7916  0.1537 -1.3545
  149SAPE   C3416482   4.998   5.562   7.527 -0.1884  0.6073  0.5651
  149SAPE   H4X16483   5.108   5.574   7.517 -0.2232 -0.2834 -1.3265
  149SAPE   H4Y16484   4.991   5.452   7.543  1.8432 -0.0094 -2.0785
  149SAPE   C3516485   4.958   5.645   7.640  0.1203 -0.0602  0.4151
  149SAPE   H5X16486   4.848   5.660   7.635  0.0648 -0.4589  0.3835
  149SAPE   H5Y16487   5.009   5.743   7.631  0.5662 -0.0427  2.6271
  149SAPE   C3616488   4.991   5.596   7.781 -0.7601  0.2436  0.0678
  149SAPE   H6X16489   5.101   5.579   7.779 -0.7720 -0.1302 -3.2353
  149SAPE   H6Y16490   4.963   5.489   7.792  1.1174 -0.2837  0.0502
  149SAPE   C3716491   4.940   5.690   7.891  0.2318 -0.0169 -0.5244
  149SAPE   H7X16492   4.836   5.709   7.857 -0.2356  0.9575  1.3030
  149SAPE   H7Y16493   5.007   5.779   7.899  1.4673 -0.9455 -0.2287
  149SAPE   C3816494   4.941   5.615   8.029  0.3781  0.2594 -0.3769
  149SAPE   H8X16495   5.041   5.584   8.065  0.1409 -0.9308 -0.7087
  149SAPE   H8Y16496   4.876   5.526   8.023  1.5763 -0.7058  0.4441
  149SAPE   C3916497   4.901   5.715   8.146  0.2240 -0.3461 -0.0555
  149SAPE   H9X16498   4.881   5.656   8.238 -1.5620  0.0360 -0.1576
  149SAPE   H9Y16499   4.807   5.767   8.117  0.3135  0.0953  0.4314
  149SAPE  C31016500   5.001   5.819   8.202 -0.0232 -0.5783  0.1919
  149SAPE  H10X16501   4.944   5.895   8.259 -0.0567  1.3266 -2.2383
  149SAPE  H10Y16502   5.049   5.871   8.116 -0.5369 -0.9006 -0.2943
  149SAPE  C31116503   5.096   5.755   8.301 -1.1689  0.0524  0.0343
  149SAPE  H11X16504   5.159   5.685   8.241  1.4770  2.2217  0.0787
  149SAPE  H11Y16505   5.040   5.688   8.369 -3.9807  0.4226 -1.7576
  149SAPE  C31216506   5.179   5.866   8.369  0.5757 -0.8281 -0.6757
  149SAPE  H12X16507   5.112   5.937   8.422  1.3363 -1.4762  1.2151
  149SAPE  H12Y16508   5.232   5.919   8.287  3.0550  1.1485  2.0224
  149SAPE  C31316509   5.285   5.818   8.476  0.2501 -0.4671  0.1236
  149SAPE  H13X16510   5.353   5.755   8.415  0.3157  1.8328 -2.3890
  149SAPE  H13Y16511   5.233   5.756   8.551  2.0506 -1.5136  0.5825
  149SAPE  C31416512   5.347   5.935   8.554  0.5421 -0.0058  0.3901
  149SAPE  H14X16513   5.262   5.984   8.607  2.0047  0.2129  2.6717
  149SAPE  H14Y16514   5.397   6.006   8.484 -0.6779  1.9015  1.3648
  149SAPE  C31516515   5.443   5.902   8.661 -0.1296  0.6140  0.1657
  149SAPE  H15X16516   5.523   5.848   8.606 -1.4786 -1.3708  0.0503
  149SAPE  H15Y16517   5.398   5.834   8.737 -3.2305  0.7378 -1.3790
  149SAPE  C31616518   5.519   6.026   8.715  0.4627  0.5931  0.6250
  149SAPE  H16X16519   5.441   6.100   8.744  1.3256  1.0952  1.7669
  149SAPE  H16Y16520   5.587   6.063   8.636 -0.9825  2.6363  0.2690
  149SAPE  C31716521   5.608   5.992   8.837 -0.7587 -0.0053 -0.5050
  149SAPE  H17X16522   5.700   5.935   8.809 -1.4234 -0.8730 -0.9771
  149SAPE  H17Y16523   5.552   5.926   8.908  1.6036 -1.8566 -0.2116
  149SAPE  C31816524   5.651   6.117   8.909 -0.4777  0.0457  0.3744
  149SAPE  H18X16525   5.569   6.193   8.909 -3.1348 -2.6154 -0.4250
  149SAPE  H18Y16526   5.741   6.167   8.868  0.3670 -0.0834  1.9774
  149SAPE  H18Z16527   5.679   6.089   9.013 -0.1844  0.0067  0.2849
  150SAPE     N16528   3.626   0.685   6.530 -0.1708  0.0345  0.5039
  150SAPE   HN116529   3.670   0.600   6.571 -0.0612 -0.8116 -1.2780
  150SAPE   HN216530   3.559   0.726   6.599 -1.0005 -1.5573  0.6865
  150SAPE   HN316531   3.579   0.672   6.438  0.3786  1.9604 -0.1012
  150SAPE   C1216532   3.734   0.777   6.511 -0.5341 -0.4403 -0.2086
  150SAPE  H12A16533   3.708   0.868   6.569 -0.4878  0.3568 -1.4055
  150SAPE  H12B16534   3.741   0.809   6.405  0.6599 -1.1098 -0.3476
  150SAPE   C1116535   3.871   0.722   6.556 -0.2376  0.0688  0.6510
  150SAPE  H11A16536   3.862   0.696   6.664 -0.6807  0.0227  0.6044
  150SAPE  H11B16537   3.941   0.808   6.546 -0.7235  0.5114  1.0147
  150SAPE     P16538   4.060   0.553   6.490 -0.4302  0.1518  0.1868
  150SAPE   O1316539   4.072   0.420   6.422 -0.6258  0.2007 -0.1929
  150SAPE   O1416540   4.149   0.658   6.441 -0.1865 -0.0008 -0.0565
  150SAPE   O1216541   3.917   0.608   6.476  0.0991  0.3242  0.0294
  150SAPE   O1116542   4.094   0.536   6.640  0.2105 -0.6171 -0.0129
  150SAPE    C116543   4.038   0.430   6.718 -0.0596 -1.0979  0.4182
  150SAPE    HA16544   3.930   0.453   6.731 -0.2967 -1.4105 -0.8778
  150SAPE    HB16545   4.050   0.333   6.666  0.4805 -0.1792 -1.2682
  150SAPE    C216546   4.093   0.412   6.865  0.1683  0.2331 -0.4250
  150SAPE    HS16547   4.036   0.333   6.919  0.8518 -0.1884 -0.2916
  150SAPE   O2116548   4.099   0.535   6.941 -0.4882  0.2742 -1.1014
  150SAPE   C2116549   3.980   0.576   6.970 -0.3894  0.2104  0.0165
  150SAPE   O2216550   3.871   0.531   6.943  0.0022 -0.6494 -0.2913
  150SAPE   C2216551   3.990   0.714   7.028  0.0938  0.1154  0.2778
  150SAPE   H2R16552   4.002   0.779   6.939  0.1670  0.1405  0.3050
  150SAPE   H2S16553   3.887   0.734   7.066  0.6111  0.4911  1.5369
  150SAPE    C316554   4.239   0.361   6.848  0.2547  0.4606 -0.1879
  150SAPE    HX16555   4.297   0.451   6.819  0.7816 -0.0459 -0.7264
  150SAPE    HY16556   4.252   0.296   6.759  1.7219  1.5396 -0.7997
  150SAPE   O3116557   4.293   0.306   6.971  0.3546 -1.0643  0.2746
  150SAPE   C3116558   4.293   0.172   6.983  0.1513 -0.7001 -0.2425
  150SAPE   O3216559   4.229   0.094   6.918  0.4079  0.0130 -0.5293
  150SAPE   C3216560   4.347   0.144   7.123 -0.1207 -0.2621  0.1911
  150SAPE   H2X16561   4.368   0.035   7.128  1.6984  0.0770  0.7138
  150SAPE   H2Y16562   4.265   0.154   7.197 -1.5128  0.6086 -1.3928
  150SAPE   C2316563   4.103   0.733   7.138  0.0465 -0.0196  0.2128
  150SAPE   H3R16564   4.097   0.837   7.178 -0.2471 -0.4128  1.2024
  150SAPE   H3S16565   4.205   0.712   7.099 -0.5638  0.4085 -1.7338
  150SAPE   C2416566   4.091   0.652   7.271  0.3522  0.2703 -0.1621
  150SAPE   H4R16567   3.996   0.676   7.322  1.1485  0.6194  1.2092
  150SAPE   H4S16568   4.166   0.695   7.341 -0.6892 -0.6865  1.6292
  150SAPE   C2516569   4.123   0.504   7.271  0.1228  0.0568  0.9037
  150SAPE   H5R16570   4.164   0.470   7.175 -0.4534  2.6446 -0.3698
  150SAPE   C2616571   4.117   0.427   7.373  0.8232 -0.3035  0.1102
  150SAPE   H6R16572   4.165   0.329   7.360  0.2850 -0.5164 -0.3256
  150SAPE   C2716573   4.084   0.470   7.512 -0.4593 -0.4883  0.4696
  150SAPE   H7R16574   4.024   0.562   7.497  0.9077  0.1485 -1.5097
  150SAPE   H7S16575   4.186   0.491   7.548 -0.4901  2.2794 -0.8480
  150SAPE   C2816576   4.007   0.365   7.587  1.3658  0.0055 -0.2757
  150SAPE   H8R16577   3.934   0.308   7.528  0.9615  0.8373 -0.5861
  150SAPE   C2916578   4.004   0.353   7.717 -0.2803 -0.2777 -0.0204
  150SAPE   H9R16579   3.935   0.283   7.768 -0.9867  0.0942 -0.4476
  150SAPE  C21016580   4.087   0.433   7.822  0.3824 -0.0833  0.1132
  150SAPE  H10R16581   4.164   0.492   7.768  0.4473 -0.2074  0.0705
  150SAPE  H10S16582   4.141   0.363   7.889  2.4598  3.7662  2.8547
  150SAPE  C21116583   4.009   0.529   7.922  0.5634  0.5746  0.6013
  150SAPE  H11R16584   3.986   0.630   7.884  1.5157  0.0179 -1.5824
  150SAPE  C21216585   3.961   0.491   8.045 -0.1881 -0.2983 -0.4787
  150SAPE  H12R16586   3.906   0.568   8.101  2.0747  1.8716 -1.0688
  150SAPE  C21316587   3.972   0.355   8.108  0.3646 -0.0081  0.3351
  150SAPE  H13R16588   3.993   0.272   8.038 -4.9884 -1.9016  0.5331
  150SAPE  H13S16589   3.873   0.338   8.156  1.0698  0.8465  2.2082
  150SAPE  C21416590   4.085   0.352   8.217 -0.1454  0.8906 -0.0312
  150SAPE  H14R16591   4.184   0.392   8.191  0.5449 -0.5128  0.3281
  150SAPE  C21516592   4.080   0.307   8.343 -0.8823  0.2999 -0.6526
  150SAPE  H15R16593   4.178   0.294   8.392 -0.8552 -1.7174 -1.1831
  150SAPE  C21616594   3.964   0.249   8.419 -0.3983  0.1544  0.9151
  150SAPE  H16R16595   4.010   0.160   8.468 -0.5943 -0.2745  0.3392
  150SAPE  H16S16596   3.883   0.208   8.355 -0.4250  1.9733 -0.2982
  150SAPE  C21716597   3.895   0.338   8.517  0.2230  0.9224 -0.0646
  150SAPE  H17R16598   3.846   0.422   8.462 -1.1655 -0.3516 -0.8285
  150SAPE  H17S16599   3.970   0.379   8.587  1.2646  2.5459 -2.0122
  150SAPE  C21816600   3.778   0.272   8.592  0.0281 -0.6004 -0.0676
  150SAPE  H18R16601   3.818   0.185   8.649 -1.1686 -0.6515  0.7416
  150SAPE  H18S16602   3.698   0.237   8.523 -0.4419 -1.9719  1.1267
  150SAPE  C21916603   3.718   0.367   8.689  0.2815 -1.1931  0.3508
  150SAPE  H19R16604   3.665   0.447   8.633 -0.2932 -0.6821  1.5737
  150SAPE  H19S16605   3.808   0.414   8.734  1.3922 -1.4514 -1.5304
  150SAPE  C22016606   3.631   0.306   8.797  1.0942  0.3477  0.3489
  150SAPE  H20R16607   3.696   0.271   8.881  1.3206 -0.7524 -0.2685
  150SAPE  H20S16608   3.557   0.235   8.755 -0.3181  1.8908  0.1509
  150SAPE  H20T16609   3.579   0.388   8.850  0.0468  1.4797 -2.2955
  150SAPE   C3316610   4.472   0.221   7.149  0.4618  1.2972  0.2327
  150SAPE   H3X16611   4.463   0.331   7.153  0.0419  1.2987 -0.7655
  150SAPE   H3Y16612   4.550   0.217   7.071  1.6314  0.9813  1.3696
  150SAPE   C3416613   4.529   0.173   7.287  0.1454 -0.0509  0.7130
  150SAPE   H4X16614   4.629   0.221   7.290  1.0670 -1.6043 -1.7580
  150SAPE   H4Y16615   4.540   0.063   7.281 -0.7796 -0.1589  0.9105
  150SAPE   C3516616   4.434   0.205   7.409 -0.5216  0.4574  0.3547
  150SAPE   H5X16617   4.335   0.156   7.399 -0.9618  1.4107 -0.1053
  150SAPE   H5Y16618   4.421   0.314   7.423  3.5362  0.8181  3.2022
  150SAPE   C3616619   4.496   0.160   7.544  0.2787 -0.4308 -0.0452
  150SAPE   H6X16620   4.600   0.196   7.553  0.4171 -1.2657  2.7270
  150SAPE   H6Y16621   4.506   0.049   7.551 -1.1044 -0.5729  0.0180
  150SAPE   C3716622   4.419   0.208   7.671  0.2325  0.3968 -0.2039
  150SAPE   H7X16623   4.318   0.165   7.682 -0.2331  1.8942  1.9700
  150SAPE   H7Y16624   4.398   0.313   7.642 -0.1959  0.0683 -1.1435
  150SAPE   C3816625   4.499   0.181   7.806 -0.2683 -0.1082 -0.0512
  150SAPE   H8X16626   4.589   0.246   7.816 -1.3535  1.3636  0.4831
  150SAPE   H8Y16627   4.537   0.077   7.802 -0.0097 -0.1442  2.0513
  150SAPE   C3916628   4.402   0.188   7.925  0.1938  0.1008 -0.7395
  150SAPE   H9X16629   4.324   0.110   7.919  0.3321  0.0572 -2.3679
  150SAPE   H9Y16630   4.351   0.287   7.928 -1.7251 -0.8421 -0.6798
  150SAPE  C31016631   4.468   0.154   8.057 -0.6460 -0.8437 -0.5392
  150SAPE  H10X16632   4.573   0.191   8.054 -0.9926  0.1577 -0.6497
  150SAPE  H10Y16633   4.465   0.045   8.078  0.2888 -0.4907  1.6748
  150SAPE  C31116634   4.420   0.225   8.183  0.0158  0.7738  0.1931
  150SAPE  H11X16635   4.315   0.194   8.205 -0.2194  2.3138  1.4189
  150SAPE  H11Y16636   4.422   0.335   8.166 -3.4650  0.7431 -1.4777
  150SAPE  C31216637   4.498   0.174   8.302  0.0061  0.6088 -0.7070
  150SAPE  H12X16638   4.598   0.219   8.291  0.3386  0.3066  0.8015
  150SAPE  H12Y16639   4.506   0.064   8.299  0.8168  0.6173  0.6168
  150SAPE  C31316640   4.448   0.221   8.442 -1.1948 -0.8544 -0.0185
  150SAPE  H13X16641   4.349   0.175   8.464 -0.2169 -1.6256  3.2005
  150SAPE  H13Y16642   4.437   0.332   8.446 -1.5366 -0.9342  1.7723
  150SAPE  C31416643   4.538   0.182   8.560 -0.0349  0.3017 -0.1342
  150SAPE  H14X16644   4.635   0.236   8.556 -0.0850  0.3404 -1.2061
  150SAPE  H14Y16645   4.555   0.072   8.562 -0.7075  0.1920  2.7543
  150SAPE  C31516646   4.476   0.223   8.691 -0.3743 -0.2166 -0.7967
  150SAPE  H15X16647   4.376   0.175   8.697 -1.1000  1.3913  1.0864
  150SAPE  H15Y16648   4.468   0.334   8.694 -0.0701 -0.2139  0.1641
  150SAPE  C31616649   4.549   0.180   8.820 -0.5621  0.1770 -0.2708
  150SAPE  H16X16650   4.649   0.226   8.837  0.5072 -1.2063 -2.3813
  150SAPE  H16Y16651   4.565   0.071   8.810  0.2239  0.3832 -1.5092
  150SAPE  C31716652   4.467   0.202   8.947 -0.0060 -0.4963 -0.3220
  150SAPE  H17X16653   4.367   0.157   8.931  0.4488 -1.7825  0.3101
  150SAPE  H17Y16654   4.450   0.312   8.954  0.5726 -0.3959 -0.4692
  150SAPE  C31816655   4.523   0.144   9.082  0.4749 -0.5301  0.3298
  150SAPE  H18X16656   4.462   0.170   9.171  0.8995 -1.2802  0.8416
  150SAPE  H18Y16657   4.629   0.169   9.106  1.7674 -3.7015 -1.4967
  150SAPE  H18Z16658   4.526   0.036   9.056 -1.3910  0.0055 -2.6437
  151SAPE     N16659   5.478   3.826   6.340  0.8873 -0.5618 -0.4037
  151SAPE   HN116660   5.457   3.754   6.269 -0.1066  0.7484 -1.4899
  151SAPE   HN216661   5.559   3.799   6.401  1.3245  1.6267  0.0727
  151SAPE   HN316662   5.391   3.843   6.394 -0.7620 -0.0150 -3.0586
  151SAPE   C1216663   5.536   3.946   6.264 -0.2606 -0.3867 -0.0864
  151SAPE  H12A16664   5.469   3.969   6.177  1.5533  2.3578 -0.9027
  151SAPE  H12B16665   5.642   3.922   6.242 -0.0154  0.4701  0.1309
  151SAPE   C1116666   5.542   4.065   6.351 -0.3293 -0.5940 -0.5727
  151SAPE  H11A16667   5.574   4.159   6.301 -0.5977 -0.1336  0.0926
  151SAPE  H11B16668   5.614   4.036   6.431  0.6121 -1.5445 -1.7419
  151SAPE     P16669   5.403   4.177   6.540  0.0586 -0.3162 -0.6237
  151SAPE   O1316670   5.529   4.257   6.568  0.8039  0.1957  0.2710
  151SAPE   O1416671   5.271   4.244   6.535 -0.3069 -0.3907  0.9924
  151SAPE   O1216672   5.417   4.100   6.404  0.4678 -0.1361 -0.0734
  151SAPE   O1116673   5.385   4.070   6.649  0.4306  0.0017  0.3132
  151SAPE    C116674   5.493   3.998   6.704 -0.4119  1.1195 -0.8281
  151SAPE    HA16675   5.557   3.945   6.630 -2.2406 -0.2613 -1.4747
  151SAPE    HB16676   5.557   4.068   6.763  1.4333  0.1072 -1.5336
  151SAPE    C216677   5.446   3.886   6.812  0.1678  0.6366  0.3275
  151SAPE    HS16678   5.373   3.822   6.758  1.5996  0.8818 -2.0958
  151SAPE   O2116679   5.385   3.959   6.916 -0.2578  0.4837 -1.0428
  151SAPE   C2116680   5.260   3.924   6.951 -0.1492  0.4497  0.5817
  151SAPE   O2216681   5.197   3.824   6.907  0.3494  0.4940 -0.2495
  151SAPE   C2216682   5.205   4.032   7.043 -0.2652 -0.2948 -0.4642
  151SAPE   H2R16683   5.263   4.039   7.138  2.0788  4.2270 -1.9381
  151SAPE   H2S16684   5.219   4.124   6.982  1.1973 -0.1304  0.0682
  151SAPE    C316685   5.569   3.803   6.883  0.2205  0.0764  0.1526
  151SAPE    HX16686   5.622   3.889   6.930  0.7866 -0.3039  0.2227
  151SAPE    HY16687   5.644   3.760   6.813 -1.3061 -0.4165 -1.2709
  151SAPE   O3116688   5.526   3.711   6.984  0.2531 -0.0814 -0.0368
  151SAPE   C3116689   5.474   3.600   6.946  0.1161  0.3256 -0.8453
  151SAPE   O3216690   5.469   3.564   6.827  0.1984  0.1505  0.1555
  151SAPE   C3216691   5.432   3.516   7.068 -0.3817 -0.1871  0.3950
  151SAPE   H2X16692   5.365   3.439   7.024 -0.3596  0.0796 -0.1235
  151SAPE   H2Y16693   5.372   3.583   7.132 -0.7000 -0.4283  0.3496
  151SAPE   C2316694   5.061   4.004   7.072  0.3445  0.4400 -0.3214
  151SAPE   H3R16695   5.066   3.897   7.102  1.8265  0.1541 -1.4533
  151SAPE   H3S16696   5.009   4.023   6.976 -2.2137  1.5835  1.1865
  151SAPE   C2416697   5.002   4.071   7.189 -0.4548  0.2478  0.6082
  151SAPE   H4R16698   5.077   4.058   7.270  1.6519 -0.4248 -1.3168
  151SAPE   H4S16699   4.907   4.028   7.225 -0.7467  0.4696  0.1191
  151SAPE   C2516700   4.988   4.217   7.169  0.3524 -0.5216  0.3000
  151SAPE   H5R16701   4.970   4.228   7.061  0.7593 -1.8485  0.0727
  151SAPE   C2616702   4.971   4.308   7.267  0.5669 -0.2755 -0.0416
  151SAPE   H6R16703   4.973   4.412   7.232 -2.3332 -0.9677 -2.6178
  151SAPE   C2716704   4.968   4.286   7.415  0.1952  0.1968 -0.0235
  151SAPE   H7R16705   5.028   4.195   7.437 -0.5534 -0.6454 -1.3065
  151SAPE   H7S16706   4.864   4.267   7.448  0.2038  0.5397  0.2053
  151SAPE   C2816707   5.052   4.397   7.482 -0.0499 -0.2318 -0.0276
  151SAPE   H8R16708   5.046   4.489   7.421 -1.6774 -0.7165 -0.6547
  151SAPE   C2916709   5.106   4.389   7.602 -0.4547  0.7224 -0.5195
  151SAPE   H9R16710   5.156   4.478   7.645  0.2334  0.9475 -1.7565
  151SAPE  C21016711   5.090   4.277   7.701 -0.4107  0.3788  0.9335
  151SAPE  H10R16712   5.189   4.232   7.725  0.1472  0.7451 -0.5548
  151SAPE  H10S16713   5.036   4.187   7.665  2.6919 -1.2325 -0.1082
  151SAPE  C21116714   5.029   4.330   7.828  0.3327 -0.8899  0.4777
  151SAPE  H11R16715   4.921   4.350   7.827  0.5548  0.3677  0.6972
  151SAPE  C21216716   5.083   4.350   7.951  0.7284 -0.6880  0.1682
  151SAPE  H12R16717   5.023   4.400   8.029  1.5947  1.3548 -0.4031
  151SAPE  C21316718   5.228   4.323   7.986  0.2495 -0.6463  0.2872
  151SAPE  H13R16719   5.270   4.422   8.010 -0.8961  0.0454 -0.4768
  151SAPE  H13S16720   5.293   4.288   7.903  0.7809  1.5375 -0.2633
  151SAPE  C21416721   5.229   4.241   8.112  0.2032 -0.3976 -0.7586
  151SAPE  H14R16722   5.133   4.205   8.151  0.1264  1.0545  0.4896
  151SAPE  C21516723   5.339   4.216   8.185  0.2288 -0.4866 -0.6728
  151SAPE  H15R16724   5.325   4.161   8.280  0.2058  2.6591  1.3134
  151SAPE  C21616725   5.481   4.265   8.163  0.0308  0.1016 -0.1819
  151SAPE  H16R16726   5.511   4.284   8.058  0.9644 -0.9362 -0.1196
  151SAPE  H16S16727   5.549   4.187   8.202  0.5985  0.8220  0.2924
  151SAPE  C21716728   5.524   4.401   8.226  0.8182 -0.1389 -0.0061
  151SAPE  H17R16729   5.444   4.471   8.193 -0.4037 -1.7741 -0.6395
  151SAPE  H17S16730   5.622   4.445   8.200  0.8133 -0.3129 -0.3202
  151SAPE  C21816731   5.521   4.397   8.376 -0.2818  0.4169 -0.7217
  151SAPE  H18R16732   5.587   4.315   8.410 -1.5676 -0.8082 -1.0783
  151SAPE  H18S16733   5.419   4.368   8.409  0.5621 -1.5211  0.3185
  151SAPE  C21916734   5.548   4.533   8.436 -0.1668 -0.0746  0.3032
  151SAPE  H19R16735   5.479   4.611   8.400 -0.7073 -0.3088  0.8218
  151SAPE  H19S16736   5.656   4.549   8.416  0.2410 -1.2346  1.4268
  151SAPE  C22016737   5.533   4.533   8.591  0.4591  0.3740 -0.2129
  151SAPE  H20R16738   5.611   4.463   8.627  0.3810  0.0719 -0.6257
  151SAPE  H20S16739   5.539   4.633   8.638  0.1812  1.3377 -2.1258
  151SAPE  H20T16740   5.433   4.487   8.605  0.5506  0.3096  0.2407
  151SAPE   C3316741   5.554   3.458   7.154  0.5353  0.1845 -0.5720
  151SAPE   H3X16742   5.639   3.528   7.163  1.7711 -1.1309 -1.5127
  151SAPE   H3Y16743   5.597   3.380   7.087  0.3643  2.8533 -4.1166
  151SAPE   C3416744   5.505   3.396   7.279 -0.1603 -0.5086  0.1630
  151SAPE   H4X16745   5.583   3.318   7.292  0.4090  0.1985  1.2383
  151SAPE   H4Y16746   5.402   3.357   7.266  0.3158 -1.7211 -0.1460
  151SAPE   C3516747   5.515   3.494   7.399 -0.1816 -0.3866 -0.2152
  151SAPE   H5X16748   5.431   3.566   7.403 -0.8654 -1.2334  1.2185
  151SAPE   H5Y16749   5.607   3.556   7.400 -0.6292  0.2818  0.6490
  151SAPE   C3616750   5.502   3.413   7.531  0.3273  0.3134  0.3328
  151SAPE   H6X16751   5.579   3.332   7.539 -0.7086 -0.7690 -0.3191
  151SAPE   H6Y16752   5.413   3.347   7.527 -0.7264  1.7397 -0.1839
  151SAPE   C3716753   5.499   3.497   7.658  0.0610  0.5107 -0.2035
  151SAPE   H7X16754   5.405   3.556   7.659 -1.1478 -1.3007  1.8403
  151SAPE   H7Y16755   5.584   3.568   7.649  0.9400 -0.7198 -2.4512
  151SAPE   C3816756   5.496   3.411   7.779 -0.1363 -0.2136 -0.5262
  151SAPE   H8X16757   5.584   3.346   7.797 -0.2829 -0.3704 -0.3713
  151SAPE   H8Y16758   5.417   3.332   7.781  0.4436 -0.8161 -0.9731
  151SAPE   C3916759   5.474   3.497   7.912 -0.9818  0.2810  0.3681
  151SAPE   H9X16760   5.392   3.570   7.902 -1.3604 -0.2145 -0.2995
  151SAPE   H9Y16761   5.563   3.556   7.943 -1.8796  0.5432  2.5639
  151SAPE  C31016762   5.445   3.408   8.034 -0.6327 -0.1527 -0.1959
  151SAPE  H10X16763   5.513   3.320   8.026 -2.4928 -1.7794  0.9200
  151SAPE  H10Y16764   5.342   3.371   8.051 -0.0593 -0.5512  2.8540
  151SAPE  C31116765   5.500   3.486   8.158  0.6768  0.3644  1.4751
  151SAPE  H11X16766   5.464   3.590   8.173  1.2448  0.5295  1.7575
  151SAPE  H11Y16767   5.607   3.500   8.130  0.7436 -0.9156  1.0091
  151SAPE  C31216768   5.476   3.406   8.290  0.6422  0.2715  0.3622
  151SAPE  H12X16769   5.526   3.307   8.280 -0.1846 -0.3172  1.8513
  151SAPE  H12Y16770   5.368   3.390   8.309  0.4919  2.9681  2.3872
  151SAPE  C31316771   5.514   3.485   8.413  0.3806 -0.0240 -0.2171
  151SAPE  H13X16772   5.459   3.440   8.499  0.2613 -0.0356 -0.2972
  151SAPE  H13Y16773   5.479   3.590   8.399 -1.4780 -0.1035  2.7747
  151SAPE  C31416774   5.663   3.471   8.444  0.4505 -0.0304 -0.1306
  151SAPE  H14X16775   5.709   3.508   8.351 -1.6467  0.7699 -0.9103
  151SAPE  H14Y16776   5.670   3.360   8.447  1.7226 -0.0707 -2.5635
  151SAPE  C31516777   5.704   3.532   8.576  0.2747  0.7215  0.3706
  151SAPE  H15X16778   5.623   3.528   8.652 -0.1246  0.9296 -0.0351
  151SAPE  H15Y16779   5.718   3.641   8.554  0.1992  1.0735  1.9840
  151SAPE  C31616780   5.836   3.469   8.632  0.3172 -0.0715 -0.4443
  151SAPE  H16X16781   5.884   3.430   8.540  2.7127 -0.5496  0.9254
  151SAPE  H16Y16782   5.814   3.382   8.698 -3.1651  2.0048  1.4545
  151SAPE  C31716783   5.918   3.576   8.704 -0.2320 -0.2605  0.1462
  151SAPE  H17X16784   5.853   3.624   8.781  2.0511 -0.1910  2.1595
  151SAPE  H17Y16785   5.951   3.656   8.633 -1.3209 -1.5709 -1.9238
  151SAPE  C31816786   6.029   3.505   8.777 -0.6850 -0.1285 -0.4842
  151SAPE  H18X16787   6.111   3.468   8.712 -0.6915  1.2577 -1.3102
  151SAPE  H18Y16788   5.988   3.427   8.845 -2.4012 -1.3646 -2.8097
  151SAPE  H18Z16789   6.082   3.580   8.840 -1.7562  0.0204  0.2675
  152SAPE     N16790   2.849   0.393   6.361 -0.0055  0.5475  0.4862
  152SAPE   HN116791   2.877   0.358   6.455  1.5186  2.0209  0.6316
  152SAPE   HN216792   2.873   0.494   6.358 -0.9955  0.7759 -0.8798
  152SAPE   HN316793   2.745   0.400   6.364 -0.2026 -1.7629  0.9005
  152SAPE   C1216794   2.909   0.336   6.234  0.3673 -0.5669 -0.2132
  152SAPE  H12A16795   2.903   0.413   6.153  1.5524 -0.6778 -0.4135
  152SAPE  H12B16796   2.853   0.256   6.182 -0.1286  0.9825 -2.2400
  152SAPE   C1116797   3.059   0.308   6.250 -0.4858 -0.1274  0.4495
  152SAPE  H11A16798   3.101   0.393   6.308  0.0106 -1.3541  1.9868
  152SAPE  H11B16799   3.099   0.306   6.147  0.2645 -0.3740  0.7388
  152SAPE     P16800   3.229   0.155   6.377  0.2961 -0.0769  0.1178
  152SAPE   O1316801   3.227   0.026   6.444  0.3407  0.3186 -0.3415
  152SAPE   O1416802   3.330   0.159   6.262 -0.3074  0.2061  0.1365
  152SAPE   O1216803   3.083   0.185   6.325  0.6854 -0.7921 -0.4273
  152SAPE   O1116804   3.249   0.281   6.476  0.3840  0.1037 -0.1737
  152SAPE    C116805   3.156   0.298   6.587 -0.6465  0.0036  0.8402
  152SAPE    HA16806   3.143   0.406   6.607  0.1264 -0.0481  1.7067
  152SAPE    HB16807   3.051   0.267   6.568  0.2474 -2.3071 -0.8780
  152SAPE    C216808   3.215   0.250   6.725  0.6228  0.4184  0.0363
  152SAPE    HS16809   3.236   0.142   6.710  1.2308  0.3892  0.9883
  152SAPE   O2116810   3.119   0.272   6.829  0.1612  0.6682  0.6789
  152SAPE   C2116811   3.022   0.188   6.839 -0.4085 -0.4881  1.1122
  152SAPE   O2216812   3.000   0.103   6.754 -0.0418  0.0595  0.0917
  152SAPE   C2216813   2.944   0.235   6.960 -0.4075 -0.5086  0.2440
  152SAPE   H2R16814   3.021   0.259   7.036 -1.0066  1.8832  0.1852
  152SAPE   H2S16815   2.873   0.316   6.932 -0.8787 -1.2866 -0.8868
  152SAPE    C316816   3.351   0.314   6.772  0.0913  0.6113  0.4994
  152SAPE    HX16817   3.338   0.424   6.759 -0.2649  0.3668 -1.7179
  152SAPE    HY16818   3.424   0.280   6.696  2.1222  0.6304  2.3591
  152SAPE   O3116819   3.383   0.274   6.907  0.5679 -0.3257 -0.7623
  152SAPE   C3116820   3.513   0.253   6.919  0.2658 -0.3941  0.2252
  152SAPE   O3216821   3.593   0.266   6.827 -0.9127 -0.0112  0.4521
  152SAPE   C3216822   3.543   0.212   7.070  0.4617 -0.7286  0.2900
  152SAPE   H2X16823   3.514   0.107   7.089  3.4527 -1.5907  0.6487
  152SAPE   H2Y16824   3.475   0.280   7.126 -0.3825 -0.1860 -1.3468
  152SAPE   C2316825   2.842   0.127   7.019 -0.5121 -0.5062  0.2157
  152SAPE   H3R16826   2.888   0.027   7.005  0.1368 -0.2738  0.6695
  152SAPE   H3S16827   2.757   0.134   6.947  0.5784  0.6079 -1.0079
  152SAPE   C2416828   2.793   0.149   7.168 -0.5531  0.2571 -0.2108
  152SAPE   H4R16829   2.734   0.243   7.169  0.6703  1.0419  0.1396
  152SAPE   H4S16830   2.879   0.171   7.235 -0.3830  1.5185 -0.8051
  152SAPE   C2516831   2.700   0.039   7.214 -0.0034  0.5612 -0.1862
  152SAPE   H5R16832   2.650  -0.019   7.135 -0.2362 -1.1268  1.1399
  152SAPE   C2616833   2.686   0.007   7.346 -0.1356  0.2360  0.3831
  152SAPE   H6R16834   2.615  -0.075   7.365  0.5180 -0.7489 -1.2028
  152SAPE   C2716835   2.754   0.083   7.467 -0.0362 -0.0080  0.6282
  152SAPE   H7R16836   2.809   0.173   7.431  0.7803  0.0460  1.9585
  152SAPE   H7S16837   2.831   0.019   7.515  1.0566 -1.4741 -2.7587
  152SAPE   C2816838   2.650   0.106   7.576  1.0403 -0.4848  1.2086
  152SAPE   H8R16839   2.543   0.103   7.549  1.1252  1.6638  0.4350
  152SAPE   C2916840   2.669   0.158   7.701 -1.1361 -0.3657  0.1426
  152SAPE   H9R16841   2.579   0.166   7.764 -2.2585  4.3497 -1.6260
  152SAPE  C21016842   2.802   0.200   7.766  0.2972 -0.0346 -0.1366
  152SAPE  H10R16843   2.875   0.208   7.683 -0.9457 -0.1373 -1.2716
  152SAPE  H10S16844   2.830   0.119   7.837 -1.3063  0.4111  1.0724
  152SAPE  C21116845   2.777   0.330   7.843 -0.2125 -0.6882  0.2953
  152SAPE  H11R16846   2.779   0.420   7.780 -0.2772 -0.6944  0.2849
  152SAPE  C21216847   2.744   0.347   7.974  0.6807  0.2568  0.2605
  152SAPE  H12R16848   2.723   0.443   8.023  2.4413 -0.0673  1.7821
  152SAPE  C21316849   2.724   0.233   8.066  0.4988  0.5372  0.1688
  152SAPE  H13R16850   2.678   0.148   8.011 -2.5778  0.6780  2.2167
  152SAPE  H13S16851   2.641   0.277   8.126  0.0411  1.6159 -1.2018
  152SAPE  C21416852   2.843   0.188   8.142 -0.3377 -0.0701 -0.0756
  152SAPE  H14R16853   2.933   0.197   8.079  1.0259 -1.1616  1.6175
  152SAPE  C21516854   2.850   0.153   8.274  0.0558 -0.2804  0.1769
  152SAPE  H15R16855   2.945   0.124   8.322  0.4017  0.3154 -0.1358
  152SAPE  C21616856   2.732   0.158   8.364 -0.0735 -0.4904 -0.4650
  152SAPE  H16R16857   2.710   0.054   8.398 -1.0039 -0.2341 -0.2594
  152SAPE  H16S16858   2.636   0.186   8.315 -0.7850  0.4338  1.3821
  152SAPE  C21716859   2.760   0.254   8.485  0.0194  0.4003  0.5795
  152SAPE  H17R16860   2.658   0.275   8.523 -1.1569 -0.5924 -1.7965
  152SAPE  H17S16861   2.802   0.351   8.449  0.7749 -1.2293 -3.5469
  152SAPE  C21816862   2.835   0.188   8.602  0.2964 -0.4906  0.6527
  152SAPE  H18R16863   2.941   0.203   8.573 -0.2161  0.3244 -0.8981
  152SAPE  H18S16864   2.818   0.078   8.593  0.7375 -0.6218  1.2898
  152SAPE  C21916865   2.803   0.247   8.732 -0.3191  0.5252 -0.4870
  152SAPE  H19R16866   2.695   0.227   8.749 -1.0239  2.1955 -2.6370
  152SAPE  H19S16867   2.809   0.353   8.702  0.9590  0.7954  0.6142
  152SAPE  C22016868   2.897   0.214   8.845 -0.2892  0.1031 -0.0572
  152SAPE  H20R16869   3.003   0.209   8.811 -0.0683 -0.3817  0.6742
  152SAPE  H20S16870   2.872   0.112   8.881 -1.6868 -0.2295 -1.8237
  152SAPE  H20T16871   2.887   0.288   8.928 -2.0400 -0.4911  0.3053
  152SAPE   C3316872   3.690   0.239   7.105 -0.7060  0.3897  0.4329
  152SAPE   H3X16873   3.722   0.339   7.070  1.4215  0.3604  2.1075
  152SAPE   H3Y16874   3.742   0.166   7.039 -1.0741  1.5164 -1.1613
  152SAPE   C3416875   3.725   0.216   7.260  0.5197  0.4155  0.7723
  152SAPE   H4X16876   3.663   0.290   7.315 -3.2566 -1.7932 -0.2144
  152SAPE   H4Y16877   3.833   0.227   7.283  0.2449  1.6189  1.5744
  152SAPE   C3516878   3.668   0.086   7.332 -0.0777 -0.1422  0.1131
  152SAPE   H5X16879   3.727  -0.004   7.304  3.0289  0.9481  2.6494
  152SAPE   H5Y16880   3.560   0.063   7.316 -0.2201  0.4440  0.2079
  152SAPE   C3616881   3.685   0.100   7.482  0.7958  0.2984 -0.4562
  152SAPE   H6X16882   3.774   0.162   7.508  1.0353 -0.3758  0.3770
  152SAPE   H6Y16883   3.699  -0.003   7.520  0.5129 -0.4248 -2.1899
  152SAPE   C3716884   3.557   0.153   7.548  0.0185  0.7572  0.0880
  152SAPE   H7X16885   3.479   0.078   7.521 -0.7101  0.9259  1.6320
  152SAPE   H7Y16886   3.550   0.250   7.494 -0.0775  0.2490 -0.8332
  152SAPE   C3816887   3.574   0.179   7.693  0.2475  0.1134 -0.1250
  152SAPE   H8X16888   3.482   0.235   7.722  0.3536 -0.6138  1.7554
  152SAPE   H8Y16889   3.666   0.237   7.716  1.2204 -1.6989  0.7581
  152SAPE   C3916890   3.572   0.048   7.773 -0.2390  0.3110  0.4726
  152SAPE   H9X16891   3.671  -0.002   7.776 -0.1034  0.4540 -0.8726
  152SAPE   H9Y16892   3.504  -0.019   7.716 -0.1947 -0.6830  1.5687
  152SAPE  C31016893   3.516   0.072   7.912 -0.2348 -0.1027 -0.4527
  152SAPE  H10X16894   3.489  -0.029   7.951  0.2696 -0.3581 -0.7531
  152SAPE  H10Y16895   3.420   0.126   7.901 -1.5787 -1.8038  1.9762
  152SAPE  C31116896   3.619   0.138   8.007  0.7324 -0.7380 -0.5341
  152SAPE  H11X16897   3.639   0.244   7.983 -0.9532 -0.2251  0.1855
  152SAPE  H11Y16898   3.710   0.074   8.001  1.7545  0.6279 -0.2170
  152SAPE  C31216899   3.572   0.139   8.159 -0.7605  0.1722  0.2722
  152SAPE  H12X16900   3.647   0.191   8.222 -1.0819  1.5052 -0.3993
  152SAPE  H12Y16901   3.552   0.035   8.193 -3.0758  0.5624  0.2689
  152SAPE  C31316902   3.455   0.222   8.188  0.4109  0.3009  0.3529
  152SAPE  H13X16903   3.367   0.187   8.129  0.7329 -0.9779  0.5990
  152SAPE  H13Y16904   3.485   0.327   8.165  1.2223  0.3007  1.3431
  152SAPE  C31416905   3.391   0.208   8.329  0.6397  0.0214  0.3851
  152SAPE  H14X16906   3.477   0.240   8.393 -0.6115  2.0930  1.1301
  152SAPE  H14Y16907   3.364   0.106   8.362 -1.8046  0.9168  1.3532
  152SAPE  C31516908   3.268   0.299   8.332 -0.3995  0.1707 -0.7958
  152SAPE  H15X16909   3.179   0.260   8.277 -0.2752 -0.0271 -0.8572
  152SAPE  H15Y16910   3.308   0.391   8.285  2.6600 -0.9924 -0.7013
  152SAPE  C31616911   3.228   0.343   8.474 -0.0418 -0.2775 -0.0442
  152SAPE  H16X16912   3.201   0.250   8.530 -0.7901  0.3523  0.6612
  152SAPE  H16Y16913   3.137   0.407   8.469 -0.1009 -0.4513 -2.1299
  152SAPE  C31716914   3.332   0.423   8.551  0.4554 -0.5628  0.5583
  152SAPE  H17X16915   3.361   0.516   8.497 -0.9764 -0.3106  0.1615
  152SAPE  H17Y16916   3.427   0.368   8.565  1.6753  1.9147  3.0377
  152SAPE  C31816917   3.304   0.463   8.693  0.1009  0.5177  0.6785
  152SAPE  H18X16918   3.245   0.556   8.706 -1.0122 -0.0551 -0.0835
  152SAPE  H18Y16919   3.405   0.480   8.736  0.6501 -0.3344 -0.2250
  152SAPE  H18Z16920   3.267   0.379   8.755  1.9777  0.0075  1.1905
  153SAPE     N16921   6.368   2.799   6.703  1.1562 -0.5270 -0.5611
  153SAPE   HN116922   6.282   2.816   6.647 -0.2031  0.6330  1.7242
  153SAPE   HN216923   6.400   2.895   6.729 -2.6492  0.6518  0.4308
  153SAPE   HN316924   6.438   2.761   6.636  0.4727 -1.3425 -0.8175
  153SAPE   C1216925   6.343   2.699   6.813 -0.0619 -0.7976 -0.1460
  153SAPE  H12A16926   6.255   2.738   6.869 -0.5638  0.4965 -1.7683
  153SAPE  H12B16927   6.440   2.680   6.864  1.0109 -0.4394 -1.9885
  153SAPE   C1116928   6.304   2.559   6.749  0.5466 -0.0034 -0.4097
  153SAPE  H11A16929   6.269   2.502   6.837 -0.4212 -0.9481 -1.3715
  153SAPE  H11B16930   6.393   2.504   6.711  1.2939  1.2948 -0.6255
  153SAPE     P16931   6.051   2.551   6.661  0.0993 -0.2954  0.0918
  153SAPE   O1316932   5.993   2.671   6.735 -0.5180 -0.2671 -0.3163
  153SAPE   O1416933   6.003   2.518   6.526  0.3566  0.0959 -0.4434
  153SAPE   O1216934   6.209   2.577   6.648  0.1358  0.8174  0.1641
  153SAPE   O1116935   6.036   2.424   6.753 -0.6266  0.0035 -0.1084
  153SAPE    C116936   6.008   2.294   6.707  0.1552  0.4520  0.1926
  153SAPE    HA16937   5.925   2.246   6.764 -0.2518  0.9349  0.0070
  153SAPE    HB16938   5.987   2.280   6.599  1.3536  0.2533 -0.0299
  153SAPE    C216939   6.121   2.197   6.733 -0.0411 -0.2122 -0.1036
  153SAPE    HS16940   6.102   2.087   6.725  0.8258 -0.3424 -0.4520
  153SAPE   O2116941   6.182   2.233   6.860 -0.1299  0.1547 -0.5498
  153SAPE   C2116942   6.123   2.176   6.958  0.7400  0.6888 -1.0370
  153SAPE   O2216943   6.028   2.096   6.949  0.1962  0.1527 -0.1907
  153SAPE   C2216944   6.186   2.217   7.094 -0.2347  0.0891  0.2474
  153SAPE   H2R16945   6.296   2.218   7.075 -0.5092  2.1468 -1.6831
  153SAPE   H2S16946   6.158   2.323   7.111 -2.3473  0.0647 -2.4273
  153SAPE    C316947   6.239   2.203   6.628  0.1931 -0.5572  0.2303
  153SAPE    HX16948   6.290   2.301   6.641 -0.1774 -0.3833  0.3943
  153SAPE    HY16949   6.195   2.191   6.526  0.5424  1.2538 -0.1728
  153SAPE   O3116950   6.327   2.094   6.660  0.0546 -0.5312 -0.1675
  153SAPE   C3116951   6.444   2.120   6.714 -0.0288  0.3234 -1.2932
  153SAPE   O3216952   6.487   2.223   6.756 -0.6427  0.0244  0.0163
  153SAPE   C3216953   6.519   1.987   6.721  0.2022 -0.6266 -0.1887
  153SAPE   H2X16954   6.614   2.005   6.667 -0.2149  1.4474 -0.2998
  153SAPE   H2Y16955   6.456   1.907   6.677 -0.1323 -0.2414 -0.4154
  153SAPE   C2316956   6.138   2.132   7.208 -0.4805  0.3837 -0.1612
  153SAPE   H3R16957   6.118   2.028   7.174 -0.9163  0.0824  0.9620
  153SAPE   H3S16958   6.039   2.169   7.242 -0.3511  0.2101  0.4163
  153SAPE   C2416959   6.239   2.155   7.319  0.4254 -0.7249  0.2680
  153SAPE   H4R16960   6.231   2.264   7.342  5.9045  0.3121 -1.3084
  153SAPE   H4S16961   6.338   2.137   7.272 -0.1939 -2.3347 -0.4648
  153SAPE   C2516962   6.215   2.054   7.427 -1.1441  0.5325 -0.4137
  153SAPE   H5R16963   6.238   1.949   7.402 -1.1850  0.6621 -1.0234
  153SAPE   C2616964   6.203   2.072   7.561  0.0560 -0.2326 -0.0240
  153SAPE   H6R16965   6.204   1.987   7.630 -0.0906  0.2899  0.6291
  153SAPE   C2716966   6.185   2.200   7.640 -0.8477  0.1206  0.3163
  153SAPE   H7R16967   6.197   2.290   7.576 -1.6405  0.7455  1.0223
  153SAPE   H7S16968   6.266   2.203   7.716 -0.1317 -2.5188 -0.2323
  153SAPE   C2816969   6.051   2.195   7.698  0.4921  0.2319 -0.7614
  153SAPE   H8R16970   5.968   2.170   7.629 -0.1281  0.8855 -0.2592
  153SAPE   C2916971   6.017   2.248   7.813  0.8186 -0.4655 -0.3059
  153SAPE   H9R16972   5.913   2.233   7.845  0.8753 -0.9324 -0.3264
  153SAPE  C21016973   6.115   2.315   7.900 -0.5111 -0.2570 -0.7687
  153SAPE  H10R16974   6.076   2.405   7.952 -0.9063 -0.9151  0.0965
  153SAPE  H10S16975   6.200   2.345   7.834 -0.3380  2.4246  0.5308
  153SAPE  C21116976   6.173   2.226   8.013 -0.4813  0.9706  0.0742
  153SAPE  H11R16977   6.265   2.167   7.997 -0.1583  1.4319  0.2047
  153SAPE  C21216978   6.130   2.217   8.143  0.2594 -0.9021  0.1227
  153SAPE  H12R16979   6.183   2.147   8.210 -0.8089 -0.5173  1.4060
  153SAPE  C21316980   6.010   2.283   8.213 -0.5092  0.1199 -0.1092
  153SAPE  H13R16981   5.980   2.218   8.298  1.1459 -0.5392  0.0028
  153SAPE  H13S16982   5.923   2.271   8.145 -0.0531  2.4597 -1.2197
  153SAPE  C21416983   6.022   2.427   8.249  0.3416  0.2772  0.7994
  153SAPE  H14R16984   6.033   2.483   8.155 -1.9363 -1.3475 -0.5269
  153SAPE  C21516985   6.023   2.482   8.370 -0.0273 -0.3995  0.2046
  153SAPE  H15R16986   6.047   2.589   8.369  3.7044 -1.1071  0.5859
  153SAPE  C21616987   6.020   2.411   8.501 -0.0128 -0.3635 -0.2748
  153SAPE  H16R16988   6.114   2.359   8.528  0.4227  1.2951  1.6737
  153SAPE  H16S16989   5.943   2.332   8.490 -0.9329  0.6237 -1.1732
  153SAPE  C21716990   5.980   2.488   8.624 -0.6293 -0.5120 -0.2274
  153SAPE  H17R16991   5.980   2.415   8.707  0.3951 -0.8663 -0.5262
  153SAPE  H17S16992   5.877   2.532   8.626 -1.0732 -1.5579  0.6613
  153SAPE  C21816993   6.073   2.605   8.666 -0.4141 -0.1001 -0.0600
  153SAPE  H18R16994   6.066   2.691   8.596  0.8002  1.6061  1.7855
  153SAPE  H18S16995   6.182   2.581   8.668 -0.1350  1.0951  1.8145
  153SAPE  C21916996   6.041   2.653   8.805 -0.3116  0.8262 -0.6344
  153SAPE  H19R16997   6.035   2.574   8.882  0.1830  0.5278 -0.9003
  153SAPE  H19S16998   5.951   2.717   8.790  0.1877  1.4618 -0.9745
  153SAPE  C22016999   6.150   2.747   8.850  0.2976  0.7904 -0.1660
  153SAPE  H20R17000   6.244   2.699   8.886 -0.0743  0.9943  1.1092
  153SAPE  H20S17001   6.116   2.804   8.939  1.2592  0.6920  0.2853
  153SAPE  H20T17002   6.174   2.824   8.773  0.8700 -0.0462 -0.8478
  153SAPE   C3317003   6.550   1.957   6.871  0.0282  0.5344  1.0949
  153SAPE   H3X17004   6.599   2.048   6.911  2.2137 -1.0253  2.2018
  153SAPE   H3Y17005   6.624   1.875   6.881 -0.5274 -0.1130  0.0536
  153SAPE   C3417006   6.428   1.920   6.957  0.6658  0.0642  0.0699
  153SAPE   H4X17007   6.376   1.828   6.921 -2.4519  2.1121 -1.0835
  153SAPE   H4Y17008   6.350   1.999   6.948 -0.9404 -1.2845  1.3978
  153SAPE   C3517009   6.466   1.905   7.104  0.0467  0.2515  0.4315
  153SAPE   H5X17010   6.369   1.897   7.158  0.0893  0.5614  0.5552
  153SAPE   H5Y17011   6.508   2.003   7.135 -0.8219  0.6395  0.4281
  153SAPE   C3617012   6.545   1.782   7.143 -0.4907 -0.3126 -0.0414
  153SAPE   H6X17013   6.646   1.820   7.114 -0.7473  0.8274  0.5013
  153SAPE   H6Y17014   6.515   1.699   7.075 -0.2526  0.4391 -1.0870
  153SAPE   C3717015   6.544   1.749   7.293 -0.1268  0.0042 -0.3918
  153SAPE   H7X17016   6.624   1.675   7.314 -0.8071 -1.0613 -1.4394
  153SAPE   H7Y17017   6.452   1.690   7.310  0.1245 -0.0448  0.8741
  153SAPE   C3817018   6.554   1.862   7.387  0.1840  0.0070  0.4270
  153SAPE   H8X17019   6.468   1.929   7.367  0.7269 -0.0290 -2.3718
  153SAPE   H8Y17020   6.640   1.930   7.366 -0.9147  1.3177  0.0528
  153SAPE   C3917021   6.559   1.826   7.533  0.5262  0.2849 -0.2448
  153SAPE   H9X17022   6.639   1.751   7.551  0.8074  0.6741  0.1554
  153SAPE   H9Y17023   6.468   1.768   7.560  1.2255 -1.4465 -1.4260
  153SAPE  C31017024   6.560   1.942   7.631 -0.4217 -0.1310 -0.7079
  153SAPE  H10X17025   6.487   2.022   7.606  1.0196  0.9860 -1.4861
  153SAPE  H10Y17026   6.656   1.998   7.621 -0.7046  0.2693 -1.2349
  153SAPE  C31117027   6.540   1.892   7.779 -0.4312 -0.5363  0.2973
  153SAPE  H11X17028   6.627   1.826   7.798 -2.1400 -2.9992  0.1233
  153SAPE  H11Y17029   6.447   1.831   7.770 -0.5715 -0.2747 -0.1157
  153SAPE  C31217030   6.510   1.995   7.889  0.5694  0.4351 -0.2930
  153SAPE  H12X17031   6.400   2.008   7.898  0.2962 -2.2999  1.3653
  153SAPE  H12Y17032   6.562   2.085   7.850  0.7492  0.0324 -0.9964
  153SAPE  C31317033   6.556   1.964   8.027 -0.2724  0.9904 -0.5333
  153SAPE  H13X17034   6.528   2.041   8.101  1.0561  0.2544  0.7767
  153SAPE  H13Y17035   6.668   1.962   8.024 -0.2536  1.8209 -1.0086
  153SAPE  C31417036   6.496   1.832   8.067  0.7778  0.3927 -0.4230
  153SAPE  H14X17037   6.542   1.759   7.998 -1.1872  0.9191 -2.4076
  153SAPE  H14Y17038   6.386   1.838   8.048 -0.0394  1.6799  3.5935
  153SAPE  C31517039   6.520   1.816   8.216  0.3855  0.1493 -0.4963
  153SAPE  H15X17040   6.462   1.739   8.271 -1.9463  2.5530  0.6560
  153SAPE  H15Y17041   6.504   1.910   8.274 -0.9663 -0.8182  0.7753
  153SAPE  C31617042   6.669   1.769   8.234  0.0103 -0.0538 -0.3165
  153SAPE  H16X17043   6.735   1.801   8.151  0.1704  0.1180 -0.1255
  153SAPE  H16Y17044   6.679   1.659   8.222 -0.0360 -0.1599  0.5114
  153SAPE  C31717045   6.733   1.812   8.371 -0.8777 -0.3248  0.4956
  153SAPE  H17X17046   6.675   1.767   8.454 -0.9676 -0.4128  0.3866
  153SAPE  H17Y17047   6.727   1.923   8.372  1.5830 -0.1213  2.3627
  153SAPE  C31817048   6.879   1.767   8.382 -0.6902 -0.4820 -1.0555
  153SAPE  H18X17049   6.922   1.839   8.454 -2.5535  0.1571 -0.5266
  153SAPE  H18Y17050   6.939   1.770   8.289 -0.2597 -1.2638 -0.8140
  153SAPE  H18Z17051   6.888   1.661   8.415 -1.4618 -0.2980 -0.2295
  154SAPE     N17052   4.041   0.880   6.256  0.7994 -0.0354 -0.4911
  154SAPE   HN117053   4.024   0.870   6.154 -2.3459  3.0356 -0.4561
  154SAPE   HN217054   4.108   0.808   6.291 -0.2815 -1.1944 -0.7126
  154SAPE   HN317055   3.944   0.869   6.294  0.3685  2.7172 -0.5929
  154SAPE   C1217056   4.089   1.016   6.277  0.6422  1.0582 -0.1709
  154SAPE  H12A17057   4.033   1.084   6.210  0.7368  0.1976 -1.1514
  154SAPE  H12B17058   4.197   1.007   6.251  0.3832 -2.7602 -0.5553
  154SAPE   C1117059   4.077   1.055   6.426 -0.0623 -0.2715 -0.1487
  154SAPE  H11A17060   4.116   1.159   6.432 -1.5466  0.2708  0.9513
  154SAPE  H11B17061   4.136   0.991   6.495 -0.4304 -0.8112 -0.3316
  154SAPE     P17062   3.850   1.173   6.502  0.2315  0.0931  0.0278
  154SAPE   O1317063   3.872   1.276   6.394 -0.1494 -0.5610 -0.3526
  154SAPE   O1417064   3.706   1.132   6.524  0.2097 -0.2348  0.3809
  154SAPE   O1217065   3.940   1.041   6.468  0.1456  0.7206 -0.3195
  154SAPE   O1117066   3.909   1.229   6.632 -0.8074 -0.7569  0.8658
  154SAPE    C117067   3.916   1.139   6.745 -0.9725 -0.9836 -0.6733
  154SAPE    HA17068   3.866   1.041   6.735 -1.0137 -1.0126 -0.2341
  154SAPE    HB17069   4.025   1.132   6.768 -0.3591  2.4222 -1.9033
  154SAPE    C217070   3.861   1.205   6.878 -0.4898 -0.2420  0.1422
  154SAPE    HS17071   3.760   1.249   6.861  1.0538  2.3613 -3.4198
  154SAPE   O2117072   3.960   1.307   6.925  0.0118  0.0856  0.3415
  154SAPE   C2117073   3.965   1.419   6.865 -0.2018 -0.4749 -0.2149
  154SAPE   O2217074   3.895   1.465   6.780 -0.0816  0.5388  0.0555
  154SAPE   C2217075   4.087   1.492   6.935  0.1368 -0.0913  0.1779
  154SAPE   H2R17076   4.179   1.432   6.924 -0.1379 -0.5118  0.1536
  154SAPE   H2S17077   4.098   1.574   6.861 -1.3321 -0.0767 -0.0573
  154SAPE    C317078   3.856   1.101   6.996  0.1332 -0.6784  0.6607
  154SAPE    HX17079   3.835   1.161   7.088  2.1124  1.4884 -0.1933
  154SAPE    HY17080   3.960   1.063   7.008  0.6200  0.4762  0.2659
  154SAPE   O3117081   3.762   0.996   6.967 -0.1082  0.0898  0.6809
  154SAPE   C3117082   3.639   1.006   7.021 -1.1120  0.4535  0.4226
  154SAPE   O3217083   3.612   1.096   7.095  0.1120 -0.1504 -0.3973
  154SAPE   C3217084   3.557   0.876   6.988  0.1893 -0.1696 -0.1618
  154SAPE   H2X17085   3.612   0.799   6.929 -0.3935  0.3662 -1.4447
  154SAPE   H2Y17086   3.469   0.916   6.933 -1.6107 -4.3250 -0.6447
  154SAPE   C2317087   4.063   1.531   7.084  0.3624  0.2594  0.3299
  154SAPE   H3R17088   4.163   1.575   7.106  1.0965 -0.8259 -0.7346
  154SAPE   H3S17089   4.046   1.449   7.157 -1.0225  0.7480  0.5819
  154SAPE   C2417090   3.962   1.643   7.094 -0.1592  0.7289  0.1133
  154SAPE   H4R17091   3.875   1.614   7.031  0.3092  1.0051 -0.6646
  154SAPE   H4S17092   4.005   1.738   7.056  0.1705  0.9387  0.9950
  154SAPE   C2517093   3.920   1.648   7.240 -0.6857 -0.2221 -0.7382
  154SAPE   H5R17094   3.828   1.596   7.271 -1.9820  1.5278 -1.4887
  154SAPE   C2617095   3.996   1.708   7.335 -0.1064 -0.2157  0.2601
  154SAPE   H6R17096   3.976   1.704   7.443  1.8950  0.8925  0.7178
  154SAPE   C2717097   4.125   1.786   7.310  0.4822 -0.6065  0.1089
  154SAPE   H7R17098   4.175   1.746   7.219  0.8051  2.2253 -1.0500
  154SAPE   H7S17099   4.202   1.765   7.387 -1.3508  0.2357  2.2927
  154SAPE   C2817100   4.097   1.932   7.308 -0.1092  0.1824  0.0097
  154SAPE   H8R17101   4.077   1.975   7.209  3.6715  4.1468  0.6750
  154SAPE   C2917102   4.081   2.012   7.415  0.0911  0.4592 -0.0080
  154SAPE   H9R17103   4.061   2.118   7.397 -0.0074  0.4453  0.0223
  154SAPE  C21017104   4.095   1.971   7.554 -0.4050 -0.4215 -0.2177
  154SAPE  H10R17105   4.165   1.885   7.560  0.3115  0.2383  1.7957
  154SAPE  H10S17106   3.998   1.937   7.595 -0.5301  1.0107  0.7471
  154SAPE  C21117107   4.157   2.074   7.652 -0.0120 -0.0447  0.4762
  154SAPE  H11R17108   4.173   2.179   7.621  0.0756  0.7879  3.1393
  154SAPE  C21217109   4.189   2.045   7.785 -0.3904 -0.1319  0.8648
  154SAPE  H12R17110   4.247   2.113   7.849 -1.0594 -0.3523  1.7260
  154SAPE  C21317111   4.179   1.908   7.849  0.4338 -0.1737  0.9949
  154SAPE  H13R17112   4.278   1.892   7.898  1.4198 -2.6845 -1.5164
  154SAPE  H13S17113   4.192   1.831   7.770  1.4609  0.4300  0.5536
  154SAPE  C21417114   4.047   1.883   7.913  0.8074  0.3063  0.2632
  154SAPE  H14R17115   3.955   1.925   7.870 -1.7411 -2.7538  2.2268
  154SAPE  C21517116   4.032   1.793   8.011 -0.3457  0.0010  1.0070
  154SAPE  H15R17117   3.934   1.783   8.061 -0.0166 -0.9699  1.4891
  154SAPE  C21617118   4.150   1.717   8.078 -0.4331 -0.4901  0.6956
  154SAPE  H16R17119   4.233   1.710   8.004  0.3992  0.2496  1.5336
  154SAPE  H16S17120   4.130   1.610   8.102 -2.4900 -0.2191  0.3490
  154SAPE  C21717121   4.200   1.783   8.201 -0.9350  0.0742 -0.0583
  154SAPE  H17R17122   4.234   1.886   8.175 -1.4201  0.5304  1.0307
  154SAPE  H17S17123   4.293   1.728   8.226 -1.9282 -1.1775  1.0514
  154SAPE  C21817124   4.111   1.806   8.321 -0.0775 -0.0371 -0.3968
  154SAPE  H18R17125   4.056   1.712   8.343  2.0653 -1.0970  0.7618
  154SAPE  H18S17126   4.049   1.897   8.304  1.0002  0.8073  0.0896
  154SAPE  C21917127   4.202   1.840   8.444 -0.5839 -0.3244 -0.6446
  154SAPE  H19R17128   4.274   1.922   8.426 -1.1988  0.5903  0.8413
  154SAPE  H19S17129   4.252   1.743   8.463 -0.5700 -0.1982 -0.0187
  154SAPE  C22017130   4.113   1.879   8.568  0.2151  0.9778 -0.0332
  154SAPE  H20R17131   4.057   1.786   8.590  1.0221  0.7340  1.0614
  154SAPE  H20S17132   4.044   1.963   8.547 -0.5479  0.3453 -0.0851
  154SAPE  H20T17133   4.171   1.910   8.657 -1.2066 -1.9230  2.0830
  154SAPE   C3317134   3.510   0.814   7.125 -0.5222  0.1323  0.2249
  154SAPE   H3X17135   3.424   0.745   7.118 -2.4299  2.4325 -0.4748
  154SAPE   H3Y17136   3.480   0.889   7.201  0.3090 -1.1235  1.8565
  154SAPE   C3417137   3.633   0.747   7.187  0.2187 -0.2870  0.2513
  154SAPE   H4X17138   3.707   0.829   7.203  0.6518 -0.7925  0.8807
  154SAPE   H4Y17139   3.671   0.664   7.124 -0.3663 -0.0504 -0.4241
  154SAPE   C3517140   3.590   0.684   7.321  0.2488 -0.0729 -0.0004
  154SAPE   H5X17141   3.503   0.619   7.300  1.1848 -1.1902 -0.5395
  154SAPE   H5Y17142   3.561   0.766   7.390  1.9160  0.2089  0.4201
  154SAPE   C3617143   3.704   0.602   7.384 -0.7806  0.5616  0.4095
  154SAPE   H6X17144   3.799   0.660   7.381 -0.4333  0.0748  1.5176
  154SAPE   H6Y17145   3.726   0.533   7.300  1.1066  1.1032  0.4075
  154SAPE   C3717146   3.673   0.537   7.519 -0.4279  0.0240  0.6667
  154SAPE   H7X17147   3.744   0.451   7.526 -2.0047 -1.1966  3.8119
  154SAPE   H7Y17148   3.571   0.493   7.519 -0.7784  0.7704 -1.2638
  154SAPE   C3817149   3.687   0.627   7.643  0.2515  1.2762 -0.7167
  154SAPE   H8X17150   3.608   0.705   7.639 -0.0945  0.8661 -2.4185
  154SAPE   H8Y17151   3.781   0.686   7.656 -0.5651  2.4747 -0.0450
  154SAPE   C3917152   3.663   0.550   7.783  0.1342  0.5187 -0.0920
  154SAPE   H9X17153   3.753   0.491   7.811 -0.4859 -0.8546 -0.9051
  154SAPE   H9Y17154   3.577   0.481   7.768 -0.6922  1.8086 -1.6160
  154SAPE  C31017155   3.619   0.644   7.895 -0.1153  0.6175  0.5425
  154SAPE  H10X17156   3.530   0.704   7.867  0.7344  0.6934 -2.2718
  154SAPE  H10Y17157   3.700   0.717   7.915  1.6903 -0.5208 -2.0256
  154SAPE  C31117158   3.587   0.561   8.025  0.1695 -0.3450  0.1947
  154SAPE  H11X17159   3.667   0.487   8.044  0.2504  0.4312  3.4855
  154SAPE  H11Y17160   3.495   0.501   8.011  0.7277 -1.0346 -0.5739
  154SAPE  C31217161   3.573   0.654   8.144  0.5444 -0.2913  0.0825
  154SAPE  H12X17162   3.495   0.731   8.126  0.6653  0.0303  0.9232
  154SAPE  H12Y17163   3.668   0.711   8.153  0.1920  0.3449 -0.1923
  154SAPE  C31317164   3.576   0.590   8.282  0.4202  0.5156 -0.1745
  154SAPE  H13X17165   3.647   0.505   8.277  1.1546  1.1952 -2.7365
  154SAPE  H13Y17166   3.475   0.557   8.313 -0.5790  1.1217 -2.5438
  154SAPE  C31417167   3.628   0.680   8.394  0.2880  0.1855  0.2361
  154SAPE  H14X17168   3.728   0.724   8.371  0.6279 -1.1911 -1.0960
  154SAPE  H14Y17169   3.642   0.612   8.481 -1.6221 -2.8128 -1.6214
  154SAPE  C31517170   3.527   0.790   8.433  0.1370  0.6749  0.5204
  154SAPE  H15X17171   3.425   0.748   8.444  1.1115 -2.6851 -1.6289
  154SAPE  H15Y17172   3.523   0.857   8.344  1.5684 -0.8807 -0.7814
  154SAPE  C31617173   3.563   0.871   8.563 -0.5826  0.2001  0.4808
  154SAPE  H16X17174   3.672   0.889   8.548  0.0939 -2.3959  1.7664
  154SAPE  H16Y17175   3.547   0.803   8.649 -0.1337 -1.0884 -0.4171
  154SAPE  C31717176   3.474   0.996   8.581  0.7835 -0.0090  0.0570
  154SAPE  H17X17177   3.365   0.972   8.584  0.6786  0.4515 -0.0811
  154SAPE  H17Y17178   3.479   1.064   8.494  1.7072  2.4493  1.9222
  154SAPE  C31817179   3.509   1.066   8.711  0.5670  0.8543  0.3873
  154SAPE  H18X17180   3.616   1.094   8.709  2.0222 -3.5838  2.6332
  154SAPE  H18Y17181   3.484   0.993   8.791 -3.2610  1.8308  0.3092
  154SAPE  H18Z17182   3.441   1.153   8.725  1.9482  2.2509 -1.1669
  155SAPE     N17183   2.791   1.724   6.442  0.3787  0.0978  0.0388
  155SAPE   HN117184   2.775   1.691   6.539  0.5656  0.3442  0.1536
  155SAPE   HN217185   2.791   1.828   6.449  0.3255  0.0020  2.1644
  155SAPE   HN317186   2.711   1.697   6.381 -0.5282  1.1019  0.7229
  155SAPE   C1217187   2.926   1.679   6.386  0.5745  0.8800  0.0573
  155SAPE  H12A17188   2.941   1.736   6.292  2.8490  1.5852  0.7706
  155SAPE  H12B17189   2.930   1.568   6.377  2.2185  0.9806 -0.9618
  155SAPE   C1117190   3.035   1.731   6.480  0.0633  0.0901 -0.2378
  155SAPE  H11A17191   3.134   1.727   6.430  0.2677  0.2773  0.1468
  155SAPE  H11B17192   3.044   1.674   6.575  0.9520 -0.1993 -0.4860
  155SAPE     P17193   3.093   1.970   6.576  0.1239 -0.0631  0.0728
  155SAPE   O1317194   3.218   1.978   6.504  0.2455 -0.4399  0.5468
  155SAPE   O1417195   3.017   2.097   6.589 -0.0925  0.3158 -0.7265
  155SAPE   O1217196   3.000   1.866   6.503  0.0731 -0.2238 -0.6172
  155SAPE   O1117197   3.121   1.908   6.715  1.0105  0.2132  0.8608
  155SAPE    C117198   3.005   1.878   6.800  0.1652 -0.7700  0.5658
  155SAPE    HA17199   2.916   1.943   6.785  0.9063 -0.0488 -0.8735
  155SAPE    HB17200   2.975   1.771   6.789 -1.6583 -0.2552  0.2848
  155SAPE    C217201   3.041   1.869   6.951  0.5262  0.2846  0.5947
  155SAPE    HS17202   3.011   1.967   6.994  0.1188 -0.5196  2.2599
  155SAPE   O2117203   3.183   1.838   6.968  0.0172  0.0157  0.4150
  155SAPE   C2117204   3.264   1.934   6.948  0.4503 -0.2081 -0.1743
  155SAPE   O2217205   3.242   2.052   6.926 -0.1455 -0.3586 -0.6489
  155SAPE   C2217206   3.402   1.872   6.933 -0.5703  0.1260 -0.2337
  155SAPE   H2R17207   3.410   1.837   6.828 -3.3415 -1.6518  0.0236
  155SAPE   H2S17208   3.465   1.961   6.953 -0.8607  0.1117  0.8500
  155SAPE    C317209   2.959   1.750   7.016  0.7384  0.1537 -0.3464
  155SAPE    HX17210   2.941   1.661   6.951  0.2060  0.8067 -1.1212
  155SAPE    HY17211   2.865   1.808   7.024  0.5547 -0.3048  1.0862
  155SAPE   O3117212   2.997   1.717   7.156  0.3720 -0.3444  0.0888
  155SAPE   C3117213   3.099   1.632   7.163 -0.2405  0.1925  0.7740
  155SAPE   O3217214   3.131   1.557   7.074 -0.3015  0.7191  0.7554
  155SAPE   C3217215   3.168   1.662   7.300  0.1698 -0.2351  0.7583
  155SAPE   H2X17216   3.185   1.771   7.307  2.5914 -0.5912  1.2284
  155SAPE   H2Y17217   3.268   1.614   7.293  1.6822  2.6889  0.5711
  155SAPE   C2317218   3.441   1.752   7.035 -0.4525 -0.9456  0.2273
  155SAPE   H3R17219   3.535   1.718   6.987 -0.0503  2.5444 -1.8484
  155SAPE   H3S17220   3.368   1.669   7.036 -1.2694 -0.2455  1.7694
  155SAPE   C2417221   3.476   1.807   7.173  0.3535 -0.5402 -0.4770
  155SAPE   H4R17222   3.457   1.715   7.232  3.1874 -0.1854  1.1707
  155SAPE   H4S17223   3.406   1.891   7.195  1.3809  0.9266 -2.5027
  155SAPE   C2517224   3.620   1.852   7.180 -0.8985  0.1816  0.2502
  155SAPE   H5R17225   3.683   1.856   7.090  1.5538 -0.4114  1.8462
  155SAPE   C2617226   3.681   1.893   7.297 -0.3587 -0.8819 -0.6985
  155SAPE   H6R17227   3.784   1.933   7.292 -0.6510 -0.0445 -0.2127
  155SAPE   C2717228   3.613   1.905   7.434 -0.6708  0.8041 -0.5588
  155SAPE   H7R17229   3.511   1.862   7.436  0.6604 -2.7569 -1.3175
  155SAPE   H7S17230   3.612   2.011   7.467 -1.6160  0.8726 -0.7942
  155SAPE   C2817231   3.706   1.828   7.534  0.1270 -0.2710 -0.1072
  155SAPE   H8R17232   3.739   1.736   7.483 -0.9778 -1.1223  0.6698
  155SAPE   C2917233   3.734   1.865   7.661  0.2826 -0.3580  0.1583
  155SAPE   H9R17234   3.815   1.809   7.709  0.3482 -1.1738 -0.8619
  155SAPE  C21017235   3.681   1.982   7.747 -0.1579  0.0134  0.3188
  155SAPE  H10R17236   3.619   2.050   7.686 -0.2626  0.5286  0.9959
  155SAPE  H10S17237   3.763   2.040   7.795 -0.2598  0.9531 -0.6052
  155SAPE  C21117238   3.581   1.928   7.846  0.5844  0.1980  0.1831
  155SAPE  H11R17239   3.490   1.875   7.815 -1.0571  2.4232  0.9293
  155SAPE  C21217240   3.591   1.955   7.979  0.2110  0.7583  0.0126
  155SAPE  H12R17241   3.514   1.904   8.039  0.3824 -0.2520 -0.6028
  155SAPE  C21317242   3.699   2.042   8.046 -0.6186 -0.5531  0.7040
  155SAPE  H13R17243   3.745   2.118   7.979  0.5865 -1.4041  0.5316
  155SAPE  H13S17244   3.783   1.978   8.080  2.1723  3.0371  1.2792
  155SAPE  C21417245   3.637   2.121   8.157 -0.3188 -0.1105  0.0892
  155SAPE  H14R17246   3.626   2.228   8.137  3.0479 -0.0240 -2.0418
  155SAPE  C21517247   3.624   2.081   8.285  0.3754 -0.1735  0.0796
  155SAPE  H15R17248   3.569   2.146   8.355 -1.3165 -0.4611 -0.9346
  155SAPE  C21617249   3.671   1.948   8.347 -0.4632 -0.0343  0.2096
  155SAPE  H16R17250   3.733   1.884   8.281 -2.9999 -1.2383 -1.1634
  155SAPE  H16S17251   3.573   1.898   8.361 -0.6373 -0.1742 -1.3163
  155SAPE  C21717252   3.760   1.965   8.477 -0.5849  0.0973 -0.3552
  155SAPE  H17R17253   3.856   2.012   8.449 -1.0930  2.4859  1.6092
  155SAPE  H17S17254   3.786   1.862   8.510  0.6706 -0.3484 -2.5578
  155SAPE  C21817255   3.692   2.036   8.597 -0.1637  0.8715 -0.5779
  155SAPE  H18R17256   3.613   1.966   8.633 -0.3287  1.0617 -0.5636
  155SAPE  H18S17257   3.647   2.132   8.563 -2.3740 -0.1028 -0.6022
  155SAPE  C21917258   3.788   2.062   8.718  0.0627 -0.0768  0.2721
  155SAPE  H19R17259   3.881   2.113   8.682  1.2821 -1.9394  0.6226
  155SAPE  H19S17260   3.819   1.968   8.767 -0.9470 -0.2206  0.6482
  155SAPE  C22017261   3.725   2.141   8.836 -0.2479 -0.0043  0.6089
  155SAPE  H20R17262   3.653   2.086   8.900 -2.1059  0.2881 -1.1432
  155SAPE  H20S17263   3.662   2.223   8.795  1.0372  0.5303 -0.3521
  155SAPE  H20T17264   3.803   2.190   8.899  1.2166 -1.8428  0.2900
  155SAPE   C3317265   3.089   1.627   7.425 -0.2716  0.4580 -0.6576
  155SAPE   H3X17266   3.089   1.516   7.431  1.4196  0.5290  1.3517
  155SAPE   H3Y17267   2.986   1.667   7.412 -0.1940  1.1997  0.7794
  155SAPE   C3417268   3.159   1.694   7.545  0.4583 -0.2849  0.1648
  155SAPE   H4X17269   3.167   1.805   7.544  2.3528 -0.3766  0.6710
  155SAPE   H4Y17270   3.264   1.658   7.549  0.5627 -0.2402 -1.5171
  155SAPE   C3517271   3.086   1.644   7.672  0.3543  0.0880 -0.0940
  155SAPE   H5X17272   3.086   1.534   7.683 -0.3866 -0.0400 -1.2165
  155SAPE   H5Y17273   2.984   1.686   7.654  0.5792  0.5630 -0.2852
  155SAPE   C3617274   3.139   1.707   7.799 -0.0018  0.0970 -0.1328
  155SAPE   H6X17275   3.117   1.815   7.810  0.2251 -0.0044  1.6586
  155SAPE   H6Y17276   3.247   1.698   7.820 -0.4131 -1.8511  1.4497
  155SAPE   C3717277   3.065   1.654   7.919 -0.1922 -0.2646  0.0618
  155SAPE   H7X17278   3.073   1.544   7.929 -1.4169 -0.1732  3.3026
  155SAPE   H7Y17279   2.959   1.687   7.922 -0.0306  0.2581  0.2002
  155SAPE   C3817280   3.142   1.717   8.046  0.1249  0.1024 -0.0142
  155SAPE   H8X17281   3.165   1.823   8.025 -2.9962  1.3003  2.0014
  155SAPE   H8Y17282   3.238   1.661   8.054  0.7979  1.4428  1.8533
  155SAPE   C3917283   3.070   1.698   8.182 -0.1951  0.0127  0.4268
  155SAPE   H9X17284   3.043   1.590   8.190 -0.5499  0.0783  0.1776
  155SAPE   H9Y17285   2.969   1.740   8.163 -0.9655 -1.9268  0.0025
  155SAPE  C31017286   3.150   1.756   8.307  0.3184 -0.2619  0.7626
  155SAPE  H10X17287   3.098   1.844   8.350 -0.0177 -0.4482  0.7388
  155SAPE  H10Y17288   3.246   1.803   8.276  0.9362 -1.1838  1.2234
  155SAPE  C31117289   3.176   1.649   8.405  0.0058 -0.7036 -0.0380
  155SAPE  H11X17290   3.260   1.683   8.469 -1.3948 -2.2797  2.8529
  155SAPE  H11Y17291   3.204   1.547   8.371 -2.3981 -1.3673 -0.2246
  155SAPE  C31217292   3.049   1.637   8.492 -0.1402 -0.2593 -0.3852
  155SAPE  H12X17293   2.953   1.652   8.440 -0.1011  2.0373  0.0671
  155SAPE  H12Y17294   3.044   1.725   8.560  0.5730  0.2328 -0.9507
  155SAPE  C31317295   3.050   1.514   8.581  0.2478  0.2891  0.3782
  155SAPE  H13X17296   3.147   1.483   8.626 -1.2526 -0.6006  3.2685
  155SAPE  H13Y17297   3.031   1.415   8.535  0.6944 -0.8649  2.5368
  155SAPE  C31417298   2.962   1.527   8.710  0.1955  0.0409  0.0427
  155SAPE  H14X17299   2.864   1.495   8.668 -0.8636  3.1502 -0.1013
  155SAPE  H14Y17300   2.948   1.632   8.742  1.3826  0.0895  0.4644
  155SAPE  C31517301   3.001   1.442   8.834  0.4849 -0.1094  0.5011
  155SAPE  H15X17302   3.095   1.478   8.880  2.2307  1.0716 -3.5050
  155SAPE  H15Y17303   3.007   1.335   8.802  0.4613 -0.8550  2.7835
  155SAPE  C31617304   2.881   1.422   8.938 -0.7658  0.1131 -0.2006
  155SAPE  H16X17305   2.925   1.357   9.016 -2.5461 -0.7428  0.1433
  155SAPE  H16Y17306   2.805   1.364   8.880 -1.0496 -0.0446  0.3227
  155SAPE  C31717307   2.837   1.548   9.007 -0.2231  0.0251 -0.2726
  155SAPE  H17X17308   2.811   1.625   8.930 -2.2350  0.1723  0.4742
  155SAPE  H17Y17309   2.921   1.575   9.074  0.8108 -0.3818 -1.3833
  155SAPE  C31817310   2.697   1.538   9.072  0.4909 -0.1164 -0.8216
  155SAPE  H18X17311   2.618   1.529   8.994 -0.5423 -2.4042  0.3774
  155SAPE  H18Y17312   2.676   1.630   9.132  0.6771 -0.7820  0.3035
  155SAPE  H18Z17313   2.696   1.444   9.132  1.2364  0.8056  0.7095
  156SAPE     N17314   2.289   1.609   6.636  0.2395  1.0218  0.6483
  156SAPE   HN117315   2.354   1.578   6.561  0.0338  1.0752  0.4504
  156SAPE   HN217316   2.218   1.533   6.641 -0.1230  1.2285 -1.0079
  156SAPE   HN317317   2.240   1.695   6.607 -1.4797  0.3228  1.3113
  156SAPE   C1217318   2.370   1.639   6.756 -0.2169  0.0195  0.1375
  156SAPE  H12A17319   2.308   1.689   6.832  2.8463  4.0953  0.3083
  156SAPE  H12B17320   2.448   1.712   6.725  0.7311 -0.5918  0.9966
  156SAPE   C1117321   2.441   1.512   6.828  0.3126  0.2513  0.5477
  156SAPE  H11A17322   2.363   1.436   6.849  1.8319 -1.2703  0.9239
  156SAPE  H11B17323   2.492   1.538   6.923  0.0858 -0.3235  0.8321
  156SAPE     P17324   2.684   1.489   6.714  0.2026 -0.4831 -0.0591
  156SAPE   O1317325   2.739   1.386   6.622  0.5581 -0.2790  0.1538
  156SAPE   O1417326   2.706   1.634   6.679  0.6078  0.5410 -0.0634
  156SAPE   O1217327   2.540   1.456   6.732  0.8682  0.3182 -0.1284
  156SAPE   O1117328   2.742   1.466   6.856 -0.4613  0.0752 -0.5275
  156SAPE    C117329   2.768   1.337   6.912 -0.5710  0.2340 -0.5195
  156SAPE    HA17330   2.734   1.252   6.850 -2.0550 -0.4802  1.1837
  156SAPE    HB17331   2.877   1.328   6.932 -0.5388 -1.1495 -1.1892
  156SAPE    C217332   2.723   1.321   7.062 -0.2917 -0.7698 -0.0850
  156SAPE    HS17333   2.789   1.251   7.117  0.3125  0.3156  0.5814
  156SAPE   O2117334   2.582   1.291   7.086  0.1318  0.4212  0.0811
  156SAPE   C2117335   2.557   1.166   7.054  0.5527  0.2299  0.5634
  156SAPE   O2217336   2.641   1.076   7.034  0.5319 -0.1945  0.1418
  156SAPE   C2217337   2.404   1.152   7.066 -0.4144  0.0555 -0.5741
  156SAPE   H2R17338   2.361   1.255   7.060  2.1706  1.1460 -2.4830
  156SAPE   H2S17339   2.362   1.096   6.980 -0.5089 -1.4081  0.3956
  156SAPE    C317340   2.761   1.456   7.136  0.1021  0.0460  0.3837
  156SAPE    HX17341   2.692   1.539   7.112  0.4556  0.3914  0.5556
  156SAPE    HY17342   2.858   1.485   7.090  0.5023  0.7957  1.6667
  156SAPE   O3117343   2.786   1.428   7.275 -0.1741 -0.2019  0.0861
  156SAPE   C3117344   2.709   1.497   7.353  0.1368  0.2621  0.1429
  156SAPE   O3217345   2.650   1.602   7.326 -0.1931 -0.1562  0.4154
  156SAPE   C3217346   2.700   1.437   7.497  0.3039  0.1720 -0.0354
  156SAPE   H2X17347   2.805   1.411   7.525  1.2053  2.3061 -1.1702
  156SAPE   H2Y17348   2.637   1.345   7.491  0.3553  0.1795 -0.8345
  156SAPE   C2317349   2.356   1.085   7.196 -0.1407  0.1366 -0.2645
  156SAPE   H3R17350   2.389   1.155   7.275 -2.5533 -1.1266  2.0201
  156SAPE   H3S17351   2.400   0.984   7.212 -0.7517 -0.0944  0.0029
  156SAPE   C2417352   2.207   1.060   7.216 -0.8539 -0.0805  0.6226
  156SAPE   H4R17353   2.147   1.146   7.180 -0.9389 -1.1135 -1.8637
  156SAPE   H4S17354   2.195   1.056   7.327  3.8015  0.0812  1.3561
  156SAPE   C2517355   2.157   0.937   7.142  0.3530 -0.4621  0.1173
  156SAPE   H5R17356   2.161   0.938   7.032 -2.4975  0.2285 -0.0744
  156SAPE   C2617357   2.126   0.827   7.208 -0.3753  0.1611 -0.2096
  156SAPE   H6R17358   2.099   0.743   7.142 -0.4223 -0.1704  0.2235
  156SAPE   C2717359   2.120   0.804   7.357 -0.1312 -0.2264 -0.0450
  156SAPE   H7R17360   2.032   0.859   7.398 -1.0013 -0.5188 -1.4380
  156SAPE   H7S17361   2.205   0.862   7.399 -1.0225  2.6049 -1.8769
  156SAPE   C2817362   2.115   0.659   7.389  0.7153 -0.0431  0.2772
  156SAPE   H8R17363   2.092   0.592   7.305 -1.5328 -0.2869  1.0382
  156SAPE   C2917364   2.116   0.613   7.518 -0.7744  0.0620  0.1770
  156SAPE   H9R17365   2.112   0.507   7.547 -0.3992  0.3836  1.4446
  156SAPE  C21017366   2.148   0.704   7.633 -0.6489 -0.0676 -0.0891
  156SAPE  H10R17367   2.110   0.807   7.616  1.3339  0.9136  1.1129
  156SAPE  H10S17368   2.256   0.713   7.656  0.2834 -1.1969 -3.4874
  156SAPE  C21117369   2.069   0.655   7.756 -1.0804  0.3939  1.1253
  156SAPE  H11R17370   2.035   0.550   7.755 -0.1221 -0.0097 -2.2055
  156SAPE  C21217371   2.023   0.729   7.857  1.0281 -0.5284 -0.2095
  156SAPE  H12R17372   1.966   0.676   7.935  0.0474 -1.3674 -1.4563
  156SAPE  C21317373   2.055   0.878   7.879 -0.7878 -0.0154  0.5816
  156SAPE  H13R17374   2.145   0.901   7.817 -0.5288  1.0153  1.2995
  156SAPE  H13S17375   2.083   0.893   7.986 -3.2495  0.7337  1.1867
  156SAPE  C21417376   1.945   0.975   7.841 -0.3596 -0.3356  0.4235
  156SAPE  H14R17377   1.843   0.935   7.853 -1.3094  2.0164  0.6444
  156SAPE  C21517378   1.961   1.101   7.788  0.0453 -0.0030 -0.6750
  156SAPE  H15R17379   1.874   1.163   7.765  0.6695  0.9704 -0.4446
  156SAPE  C21617380   2.093   1.163   7.760 -0.5597 -0.0670 -0.7586
  156SAPE  H16R17381   2.168   1.098   7.810 -0.8177 -1.7052 -2.3574
  156SAPE  H16S17382   2.088   1.266   7.799 -1.5427 -0.4122  0.0771
  156SAPE  C21717383   2.128   1.164   7.612 -0.0675 -0.0555 -0.3920
  156SAPE  H17R17384   2.065   1.240   7.562  0.8426  0.9410 -0.0589
  156SAPE  H17S17385   2.097   1.065   7.572  0.2966  0.0106 -0.8528
  156SAPE  C21817386   2.277   1.186   7.583 -1.0274 -0.0818  0.2501
  156SAPE  H18R17387   2.316   1.246   7.668  1.2713 -2.6687  1.1732
  156SAPE  H18S17388   2.287   1.245   7.490 -0.8019 -0.6759 -0.1026
  156SAPE  C21917389   2.362   1.059   7.583  0.0880 -0.4527  0.1617
  156SAPE  H19R17390   2.322   1.004   7.495  0.5261 -1.8146  0.7871
  156SAPE  H19S17391   2.331   0.994   7.668  2.5242 -0.1704  1.3339
  156SAPE  C22017392   2.516   1.078   7.552 -0.0350 -0.0019  0.4802
  156SAPE  H20R17393   2.533   1.149   7.469 -1.0295  1.4586  1.4746
  156SAPE  H20S17394   2.566   0.980   7.536  3.0649  1.1157  2.4788
  156SAPE  H20T17395   2.565   1.121   7.643 -0.3037  0.5170  0.3841
  156SAPE   C3317396   2.643   1.534   7.598 -0.1631  0.1809  0.4960
  156SAPE   H3X17397   2.555   1.576   7.544  0.6765  0.5383 -0.6327
  156SAPE   H3Y17398   2.715   1.615   7.619  1.1100 -0.1213 -2.3062
  156SAPE   C3417399   2.612   1.469   7.736 -0.1306  0.8749  0.2256
  156SAPE   H4X17400   2.525   1.401   7.724  1.0243 -0.8320  1.0701
  156SAPE   H4Y17401   2.604   1.551   7.810 -1.7812  1.9754 -1.1100
  156SAPE   C3517402   2.729   1.386   7.785 -0.6529 -0.3786 -0.2707
  156SAPE   H5X17403   2.820   1.451   7.784  0.5938 -2.0539 -0.7112
  156SAPE   H5Y17404   2.758   1.300   7.721  1.9300  0.9777 -1.0730
  156SAPE   C3617405   2.704   1.349   7.928 -0.4546  0.4591  0.1537
  156SAPE   H6X17406   2.761   1.256   7.945 -0.6111  0.6117  1.6945
  156SAPE   H6Y17407   2.598   1.319   7.943 -1.1535  2.1686 -1.0119
  156SAPE   C3717408   2.744   1.459   8.025 -0.0510 -0.2036 -0.0890
  156SAPE   H7X17409   2.737   1.562   7.984 -0.4409  0.4955  1.6363
  156SAPE   H7Y17410   2.851   1.443   8.052 -0.0332  1.6563  1.1831
  156SAPE   C3817411   2.680   1.448   8.160  0.4029  0.2403  0.1982
  156SAPE   H8X17412   2.668   1.346   8.201 -0.8261  0.6667  0.9600
  156SAPE   H8Y17413   2.575   1.483   8.158 -0.6690 -2.7286 -1.2542
  156SAPE   C3917414   2.758   1.537   8.265  0.2037 -0.0466 -0.9118
  156SAPE   H9X17415   2.814   1.625   8.227 -1.8624  1.1610 -1.3197
  156SAPE   H9Y17416   2.836   1.466   8.301 -0.7596 -0.4821  0.3675
  156SAPE  C31017417   2.670   1.580   8.388 -0.7453 -0.2128  0.3488
  156SAPE  H10X17418   2.579   1.624   8.341 -0.3827 -0.9713 -1.1063
  156SAPE  H10Y17419   2.715   1.663   8.446 -0.0113 -0.0418 -0.4521
  156SAPE  C31117420   2.628   1.454   8.474 -0.3460  0.3251  0.1885
  156SAPE  H11X17421   2.711   1.417   8.538 -0.0627 -0.4491 -0.6149
  156SAPE  H11Y17422   2.584   1.373   8.411 -1.3969 -2.1137  3.7279
  156SAPE  C31217423   2.511   1.490   8.565  0.6168  0.4199 -0.1888
  156SAPE  H12X17424   2.425   1.521   8.502  1.7056 -0.1996 -2.0390
  156SAPE  H12Y17425   2.547   1.580   8.620  0.4097 -0.4518  1.4336
  156SAPE  C31317426   2.473   1.380   8.673  0.6917  0.0490  0.0033
  156SAPE  H13X17427   2.566   1.332   8.711  0.6663 -0.5710 -0.7080
  156SAPE  H13Y17428   2.416   1.298   8.624 -1.2393  0.8264  0.8808
  156SAPE  C31417429   2.380   1.418   8.786 -0.2281 -0.0561 -0.2944
  156SAPE  H14X17430   2.415   1.509   8.839  0.4021 -0.0470 -0.7133
  156SAPE  H14Y17431   2.369   1.340   8.864 -0.9715  0.7659  0.4467
  156SAPE  C31517432   2.232   1.439   8.739  0.9032  0.4907 -0.0012
  156SAPE  H15X17433   2.163   1.443   8.826 -0.2950 -0.1723 -0.8987
  156SAPE  H15Y17434   2.198   1.354   8.676 -1.7969  2.1682 -0.9556
  156SAPE  C31617435   2.206   1.567   8.658 -0.1962 -0.4117  0.1215
  156SAPE  H16X17436   2.298   1.606   8.609 -0.0624 -1.5978 -0.6288
  156SAPE  H16Y17437   2.174   1.646   8.729 -2.4389 -1.7398  0.7015
  156SAPE  C31717438   2.097   1.551   8.559 -0.6199 -0.3469 -0.3611
  156SAPE  H17X17439   2.005   1.512   8.608  0.0297  3.0304  4.2289
  156SAPE  H17Y17440   2.125   1.484   8.475 -0.7637 -1.7240  0.6673
  156SAPE  C31817441   2.063   1.688   8.499 -1.3281  0.7408  0.5872
  156SAPE  H18X17442   2.040   1.758   8.582 -0.5702 -0.1062  1.5560
  156SAPE  H18Y17443   1.978   1.681   8.428 -1.7168  0.3121  1.0830
  156SAPE  H18Z17444   2.154   1.727   8.449  1.3119 -1.5301  3.1989
  157SAPE     N17445   6.478   3.115   6.256 -0.4738  0.8427  0.0905
  157SAPE   HN117446   6.567   3.065   6.275 -0.8736  0.8856  2.2600
  157SAPE   HN217447   6.401   3.049   6.230 -1.0221  0.9360  1.3924
  157SAPE   HN317448   6.497   3.178   6.175 -2.1263 -0.4295 -1.3918
  157SAPE   C1217449   6.435   3.221   6.355 -0.7183  0.3609  0.4582
  157SAPE  H12A17450   6.390   3.297   6.288 -1.7583 -0.3619  0.3110
  157SAPE  H12B17451   6.524   3.249   6.415  0.0512  0.0641 -0.5214
  157SAPE   C1117452   6.340   3.152   6.459  0.5654 -0.4163 -0.1178
  157SAPE  H11A17453   6.392   3.059   6.490  0.5770 -0.5555 -0.5462
  157SAPE  H11B17454   6.243   3.125   6.412 -0.4684  0.5309  1.3944
  157SAPE     P17455   6.197   3.345   6.557 -0.1279 -0.0009  0.3646
  157SAPE   O1317456   6.253   3.458   6.480  0.7163  1.1100 -0.0511
  157SAPE   O1417457   6.077   3.289   6.490  0.0841 -0.1157  0.1479
  157SAPE   O1217458   6.311   3.235   6.573  0.4136 -0.1355  0.5217
  157SAPE   O1117459   6.175   3.387   6.709  0.1526 -0.1957  0.1028
  157SAPE    C117460   6.125   3.291   6.804  0.1335 -0.6558 -0.0733
  157SAPE    HA17461   6.028   3.326   6.847 -0.0758 -1.0922 -0.1784
  157SAPE    HB17462   6.117   3.188   6.764  1.3088 -0.0699 -1.9298
  157SAPE    C217463   6.224   3.281   6.922 -0.0818  0.1194  0.1044
  157SAPE    HS17464   6.246   3.174   6.939 -1.0411 -0.3408 -1.4440
  157SAPE   O2117465   6.176   3.342   7.042  0.4888 -0.2270  0.7335
  157SAPE   C2117466   6.076   3.299   7.109 -0.6766  0.3600 -0.1174
  157SAPE   O2217467   6.018   3.199   7.087 -0.0468  0.1804  0.0090
  157SAPE   C2217468   6.051   3.391   7.231  0.4913  0.6159  0.5547
  157SAPE   H2R17469   6.151   3.398   7.277  1.2688 -1.7242 -0.5964
  157SAPE   H2S17470   6.020   3.492   7.198 -0.6880  0.3456  0.7858
  157SAPE    C317471   6.361   3.356   6.887 -0.2202  0.3586 -0.6089
  157SAPE    HX17472   6.347   3.466   6.884 -1.0480  0.2351 -1.9387
  157SAPE    HY17473   6.396   3.320   6.788  3.4250 -0.1735  0.6993
  157SAPE   O3117474   6.455   3.325   6.988 -0.1546  0.8807 -0.3016
  157SAPE   C3117475   6.581   3.370   6.983  0.3408  0.2392 -0.2857
  157SAPE   O3217476   6.624   3.422   6.880  0.1873  0.8775  0.2263
  157SAPE   C3217477   6.656   3.352   7.107 -0.4116 -0.2080 -0.6241
  157SAPE   H2X17478   6.762   3.385   7.104 -1.2901  3.2888  0.9762
  157SAPE   H2Y17479   6.663   3.247   7.142 -1.4258  0.6679  2.6574
  157SAPE   C2317480   5.954   3.340   7.341 -0.7197  0.3249 -0.0851
  157SAPE   H3R17481   5.976   3.233   7.365 -0.5690 -0.0690 -1.8671
  157SAPE   H3S17482   5.853   3.341   7.294 -0.9444  2.3031  0.3550
  157SAPE   C2417483   5.947   3.421   7.466 -0.1276  0.6399 -0.1034
  157SAPE   H4R17484   5.863   3.383   7.529  0.0286  1.4319  0.6029
  157SAPE   H4S17485   5.933   3.528   7.444 -1.9330  0.4073 -0.2500
  157SAPE   C2517486   6.077   3.410   7.548 -0.3317  0.1081  0.0547
  157SAPE   H5R17487   6.169   3.450   7.502  0.6559  0.0110  1.8402
  157SAPE   C2617488   6.084   3.359   7.673 -0.4798 -0.8616 -0.7414
  157SAPE   H6R17489   6.182   3.346   7.719 -1.0444 -2.4259  0.0945
  157SAPE   C2717490   5.964   3.307   7.746  0.1690 -0.1958 -0.0025
  157SAPE   H7R17491   6.012   3.225   7.805  2.3169 -0.8734 -2.5083
  157SAPE   H7S17492   5.889   3.261   7.678  0.1890  0.4993 -0.4964
  157SAPE   C2817493   5.895   3.412   7.831  0.7114  0.0975  0.1244
  157SAPE   H8R17494   5.822   3.475   7.778 -0.5452 -2.4095 -1.3136
  157SAPE   C2917495   5.919   3.422   7.967  0.4636 -0.4811  0.4406
  157SAPE   H9R17496   5.868   3.506   8.018 -0.9728  0.7705 -2.7319
  157SAPE  C21017497   6.000   3.334   8.058  0.0271 -0.3656 -0.4151
  157SAPE  H10R17498   6.003   3.227   8.029  1.7255 -0.2186 -0.8958
  157SAPE  H10S17499   5.951   3.331   8.158 -2.6935  0.4696 -1.6236
  157SAPE  C21117500   6.143   3.377   8.053 -0.4444  0.4855  0.3155
  157SAPE  H11R17501   6.193   3.360   7.957 -0.5538 -0.3509  0.3961
  157SAPE  C21217502   6.209   3.459   8.139 -0.5288  0.4510 -0.5857
  157SAPE  H12R17503   6.309   3.495   8.109 -0.6179 -0.2104 -1.7501
  157SAPE  C21317504   6.148   3.522   8.257  0.3114 -0.8513 -0.0600
  157SAPE  H13R17505   6.038   3.532   8.252  0.5101  2.7248 -0.1903
  157SAPE  H13S17506   6.183   3.628   8.254  1.1446 -1.1509 -2.0119
  157SAPE  C21417507   6.200   3.460   8.386 -0.0215  0.5698  0.2810
  157SAPE  H14R17508   6.146   3.367   8.409 -1.6815  1.3380 -0.3235
  157SAPE  C21517509   6.289   3.508   8.472 -0.5871  0.1360 -0.4853
  157SAPE  H15R17510   6.325   3.447   8.557  1.5983  1.5907 -0.2805
  157SAPE  C21617511   6.366   3.639   8.451  0.8533 -0.3120 -0.4154
  157SAPE  H16R17512   6.376   3.661   8.342 -1.1025 -3.4396 -1.3752
  157SAPE  H16S17513   6.470   3.639   8.489  1.0060 -0.6871 -0.8219
  157SAPE  C21717514   6.297   3.749   8.531  0.0914  0.3425 -0.7944
  157SAPE  H17R17515   6.189   3.751   8.506 -0.0026 -0.3895 -0.4676
  157SAPE  H17S17516   6.324   3.848   8.489 -0.2690  1.2339  0.9965
  157SAPE  C21817517   6.326   3.764   8.681 -0.6414  0.8338  0.5020
  157SAPE  H18R17518   6.434   3.788   8.692 -0.2488  0.0340 -1.2100
  157SAPE  H18S17519   6.282   3.672   8.724 -0.6180  0.8420  0.5443
  157SAPE  C21917520   6.244   3.873   8.744  0.6361  0.2862 -0.2844
  157SAPE  H19R17521   6.241   3.852   8.853  0.4097 -1.5281 -0.5929
  157SAPE  H19S17522   6.140   3.850   8.714  0.1085 -0.3599  1.8382
  157SAPE  C22017523   6.282   4.014   8.699  0.0242  0.2508 -0.3790
  157SAPE  H20R17524   6.198   4.083   8.721 -0.8831 -0.0518 -2.6510
  157SAPE  H20S17525   6.310   4.020   8.591  0.8128  1.1564 -0.1410
  157SAPE  H20T17526   6.368   4.047   8.761 -0.3203  0.7567 -0.1665
  157SAPE   C3317527   6.581   3.424   7.222 -0.5043  0.3149  0.9192
  157SAPE   H3X17528   6.473   3.399   7.229 -0.9373  1.9165  0.3654
  157SAPE   H3Y17529   6.587   3.533   7.200 -1.9106  0.0364 -1.0929
  157SAPE   C3417530   6.649   3.397   7.355 -0.0860 -0.0884  0.5112
  157SAPE   H4X17531   6.648   3.488   7.419  1.9736  1.3208 -1.2909
  157SAPE   H4Y17532   6.756   3.373   7.334 -0.1801  0.0290 -0.1227
  157SAPE   C3517533   6.583   3.281   7.425  0.7642  0.3767  0.0631
  157SAPE   H5X17534   6.568   3.192   7.360 -1.4733  1.3312 -0.8442
  157SAPE   H5Y17535   6.484   3.328   7.441  0.3182 -0.0123 -1.3797
  157SAPE   C3617536   6.656   3.219   7.553  0.7766 -0.1624 -0.5762
  157SAPE   H6X17537   6.763   3.213   7.524  0.8011  1.1485 -0.8353
  157SAPE   H6Y17538   6.616   3.116   7.563  0.5726 -0.3329 -2.7440
  157SAPE   C3717539   6.653   3.292   7.680  0.0136 -0.7565 -0.4162
  157SAPE   H7X17540   6.718   3.382   7.676 -0.1408 -0.6249 -5.2325
  157SAPE   H7Y17541   6.689   3.212   7.748  0.5466 -1.0779 -1.0719
  157SAPE   C3817542   6.509   3.331   7.724  0.3369 -0.1643 -0.9297
  157SAPE   H8X17543   6.457   3.232   7.725 -0.0424  0.0112  1.0337
  157SAPE   H8Y17544   6.458   3.403   7.656  1.7292  1.1537 -0.6286
  157SAPE   C3917545   6.516   3.378   7.878  0.1241 -0.2095  0.2332
  157SAPE   H9X17546   6.415   3.383   7.924  0.2350 -0.5395  0.5170
  157SAPE   H9Y17547   6.547   3.484   7.884 -0.9776  0.1095  0.6972
  157SAPE  C31017548   6.605   3.306   7.976  0.6585 -0.7026  0.4403
  157SAPE  H10X17549   6.701   3.362   7.979  0.2699  0.1047 -0.9216
  157SAPE  H10Y17550   6.625   3.203   7.941  0.4258 -0.0922 -1.6757
  157SAPE  C31117551   6.564   3.306   8.125  0.2203  0.7689 -1.1627
  157SAPE  H11X17552   6.464   3.255   8.126  0.2068  0.7856 -0.0404
  157SAPE  H11Y17553   6.553   3.412   8.155  0.3893  0.2842  0.7763
  157SAPE  C31217554   6.670   3.237   8.213  0.1691  0.3345 -0.6249
  157SAPE  H12X17555   6.759   3.303   8.200  1.7028 -1.8538 -1.7783
  157SAPE  H12Y17556   6.700   3.136   8.178  2.2159  1.4235 -2.2635
  157SAPE  C31317557   6.625   3.229   8.356 -0.0032  0.3677 -0.3350
  157SAPE  H13X17558   6.519   3.197   8.363 -0.6082  1.7414 -2.2514
  157SAPE  H13Y17559   6.607   3.332   8.395 -3.2381 -0.5684  0.9278
  157SAPE  C31417560   6.695   3.128   8.448  0.3780  0.3158 -0.6995
  157SAPE  H14X17561   6.799   3.117   8.409  0.9253 -0.8928  1.0255
  157SAPE  H14Y17562   6.638   3.033   8.449  0.8288  0.0421  0.1507
  157SAPE  C31517563   6.721   3.184   8.592  0.0329  0.2657 -0.6166
  157SAPE  H15X17564   6.625   3.220   8.637 -0.5395 -1.1366 -0.6557
  157SAPE  H15Y17565   6.799   3.262   8.594  0.1187  0.1794  0.5940
  157SAPE  C31617566   6.771   3.068   8.683  0.5852 -0.7083  0.0799
  157SAPE  H16X17567   6.864   3.018   8.647  1.8835  1.4665  0.2416
  157SAPE  H16Y17568   6.692   2.990   8.683  0.1334 -0.2554  0.0924
  157SAPE  C31717569   6.801   3.112   8.830  0.0805  0.0979  0.4751
  157SAPE  H17X17570   6.702   3.147   8.865  0.1341  0.8649 -0.1015
  157SAPE  H17Y17571   6.871   3.199   8.825  2.1335 -1.3659  2.1056
  157SAPE  C31817572   6.858   2.998   8.916 -0.1342 -0.3673  0.2339
  157SAPE  H18X17573   6.866   3.014   9.026  1.5262  2.8835 -0.2393
  157SAPE  H18Y17574   6.964   2.980   8.889 -0.2834  0.3887 -0.8695
  157SAPE  H18Z17575   6.796   2.908   8.896  0.5235 -0.7597 -0.0666
  158SAPE     N17576   1.221   5.781   6.477  0.0431 -0.4176 -0.4867
  158SAPE   HN117577   1.292   5.813   6.408  0.1996 -0.4396 -0.3355
  158SAPE   HN217578   1.234   5.678   6.486  1.0040 -0.2029  0.8414
  158SAPE   HN317579   1.123   5.799   6.447 -0.8312 -0.2821  2.1985
  158SAPE   C1217580   1.250   5.828   6.608  0.3693  0.0527 -0.8291
  158SAPE  H12A17581   1.178   5.789   6.683 -0.1081  1.8925 -0.2682
  158SAPE  H12B17582   1.232   5.938   6.611 -1.7637 -0.2794  0.4506
  158SAPE   C1117583   1.383   5.785   6.668 -0.0136 -0.0741  0.0057
  158SAPE  H11A17584   1.389   5.674   6.663  1.9981  0.0652 -1.8097
  158SAPE  H11B17585   1.392   5.819   6.774  1.2525  0.5459 -0.2894
  158SAPE     P17586   1.636   5.755   6.561  0.1920 -0.3488 -0.0311
  158SAPE   O1317587   1.631   5.619   6.608 -0.3545 -0.4402 -0.0807
  158SAPE   O1417588   1.672   5.781   6.422 -0.7106 -0.0517 -0.3707
  158SAPE   O1217589   1.497   5.829   6.594  0.3491  0.0491 -0.5375
  158SAPE   O1117590   1.734   5.825   6.666 -0.6552  0.8341 -0.0360
  158SAPE    C117591   1.685   5.895   6.780 -0.4081 -0.2634 -0.1623
  158SAPE    HA17592   1.626   5.980   6.739  1.6631  0.3655 -2.0511
  158SAPE    HB17593   1.628   5.835   6.854  0.6519 -0.9734  0.0944
  158SAPE    C217594   1.802   5.977   6.850 -0.2026  0.2003  0.3237
  158SAPE    HS17595   1.859   6.030   6.770  2.4461 -1.5484  0.9178
  158SAPE   O2117596   1.886   5.888   6.922  0.5152  0.0363  0.4623
  158SAPE   C2117597   2.015   5.900   6.917 -0.1681 -0.2119 -0.7790
  158SAPE   O2217598   2.082   5.965   6.843 -0.2621 -0.7071  0.0599
  158SAPE   C2217599   2.069   5.788   7.002  0.4030 -0.7012 -0.6215
  158SAPE   H2R17600   1.988   5.726   7.044 -1.9039  1.6385 -1.3182
  158SAPE   H2S17601   2.140   5.732   6.938  1.2719  0.1783 -0.4611
  158SAPE    C317602   1.735   6.075   6.947  0.5749  0.6746 -0.3034
  158SAPE    HX17603   1.657   6.016   7.000  0.0248 -1.3902 -3.1389
  158SAPE    HY17604   1.674   6.152   6.894  0.7700  0.6808 -0.5234
  158SAPE   O3117605   1.833   6.133   7.036  0.5855 -0.4703 -0.2258
  158SAPE   C3117606   1.892   6.234   6.988 -0.7519 -1.0550 -0.1941
  158SAPE   O3217607   1.893   6.273   6.869 -0.3932  0.8121 -0.5689
  158SAPE   C3217608   1.956   6.320   7.095 -0.0570  0.3064 -0.0482
  158SAPE   H2X17609   2.057   6.344   7.055 -0.2062  1.3314  0.1674
  158SAPE   H2Y17610   1.972   6.262   7.189  0.8772  1.3142  0.4380
  158SAPE   C2317611   2.161   5.842   7.116  0.3078  0.2338  0.4159
  158SAPE   H3R17612   2.246   5.897   7.068 -0.8740 -0.1503 -2.3350
  158SAPE   H3S17613   2.192   5.756   7.179 -0.9043 -0.2942  0.3118
  158SAPE   C2417614   2.091   5.935   7.208  0.5714 -0.1631 -0.4346
  158SAPE   H4R17615   1.991   5.896   7.237 -0.2915  1.3834 -1.1941
  158SAPE   H4S17616   2.065   6.029   7.155  1.4953 -0.7987 -2.1076
  158SAPE   C2517617   2.173   5.981   7.330  0.1254  0.7649  0.0457
  158SAPE   H5R17618   2.275   5.938   7.328 -1.2113 -2.7034  0.1605
  158SAPE   C2617619   2.128   6.034   7.448  0.3693 -0.0594  0.5807
  158SAPE   H6R17620   2.204   6.058   7.523  0.6583 -0.2324  0.3460
  158SAPE   C2717621   1.987   6.068   7.479  0.0838  0.3013 -0.1824
  158SAPE   H7R17622   1.940   6.012   7.563 -0.1212 -0.5150 -0.8314
  158SAPE   H7S17623   1.911   6.026   7.410 -0.1418 -1.2894  0.9919
  158SAPE   C2817624   1.964   6.214   7.491  0.1560 -0.1520 -0.9296
  158SAPE   H8R17625   1.928   6.269   7.402 -1.1289  1.7393  0.6588
  158SAPE   C2917626   2.002   6.283   7.595 -0.3010 -0.6228  0.7617
  158SAPE   H9R17627   1.991   6.392   7.583 -1.0467 -0.6612  1.0289
  158SAPE  C21017628   2.061   6.238   7.727 -0.0997  0.0630  0.3855
  158SAPE  H10R17629   2.154   6.296   7.742  0.5589 -1.2768  1.7684
  158SAPE  H10S17630   2.096   6.133   7.722 -0.5055 -0.1089  1.0324
  158SAPE  C21117631   1.970   6.242   7.843  0.9885  0.3221  0.4029
  158SAPE  H11R17632   1.875   6.188   7.829  0.5780  0.9078  0.8432
  158SAPE  C21217633   1.989   6.315   7.956 -0.0893 -0.2574 -0.0799
  158SAPE  H12R17634   1.918   6.304   8.040 -0.5965 -1.9049 -0.6847
  158SAPE  C21317635   2.114   6.399   7.977  0.2585  0.5488 -0.0103
  158SAPE  H13R17636   2.124   6.472   7.894 -1.7084  0.9762  0.0887
  158SAPE  H13S17637   2.194   6.324   7.955 -1.1264 -0.5668 -1.4577
  158SAPE  C21417638   2.143   6.457   8.111 -0.3121 -0.5372  0.6764
  158SAPE  H14R17639   2.085   6.551   8.119 -0.0388 -0.0438 -2.0098
  158SAPE  C21517640   2.214   6.413   8.217  0.0104  0.4131  0.3181
  158SAPE  H15R17641   2.248   6.484   8.293  1.3372 -0.3684  0.4870
  158SAPE  C21617642   2.282   6.281   8.228  0.0245  0.4631  0.2206
  158SAPE  H16R17643   2.304   6.234   8.130 -0.1501 -2.8140  1.6014
  158SAPE  H16S17644   2.205   6.216   8.276 -1.0960  3.2217  2.4011
  158SAPE  C21717645   2.393   6.284   8.335 -0.2956  0.2383  0.1342
  158SAPE  H17R17646   2.424   6.179   8.353 -1.3840  0.2692  2.5964
  158SAPE  H17S17647   2.346   6.316   8.430 -1.9004  0.1378 -0.5951
  158SAPE  C21817648   2.513   6.368   8.291  0.5211  0.1173  0.1665
  158SAPE  H18R17649   2.466   6.468   8.278 -0.7989 -0.2673  1.6846
  158SAPE  H18S17650   2.552   6.328   8.195 -0.4884 -1.1107  0.2496
  158SAPE  C21917651   2.628   6.360   8.391  0.2345  0.2438 -0.5057
  158SAPE  H19R17652   2.673   6.259   8.384 -1.3630 -0.4201 -2.2448
  158SAPE  H19S17653   2.574   6.367   8.487 -2.1802  0.9120 -1.8257
  158SAPE  C22017654   2.733   6.470   8.377 -0.1428 -0.6920 -0.1060
  158SAPE  H20R17655   2.696   6.573   8.364  2.4791  0.1347 -2.0842
  158SAPE  H20S17656   2.774   6.454   8.274 -0.5704 -0.4796 -0.3094
  158SAPE  H20T17657   2.823   6.462   8.442 -0.1330  1.0888  0.1457
  158SAPE   C3317658   1.898   6.457   7.128 -0.5661  1.0058  0.2252
  158SAPE   H3X17659   1.809   6.432   7.189 -2.2194  0.0894 -2.4430
  158SAPE   H3Y17660   1.864   6.511   7.038  3.0980  0.3418 -1.7858
  158SAPE   C3417661   1.996   6.543   7.210 -0.2203 -0.1706  0.3967
  158SAPE   H4X17662   2.067   6.588   7.138  0.6512 -1.7629  0.2212
  158SAPE   H4Y17663   2.049   6.497   7.296 -1.2711  4.8532  4.2204
  158SAPE   C3517664   1.934   6.659   7.281  0.1282  0.3274 -0.4720
  158SAPE   H5X17665   1.870   6.706   7.203  0.9260  0.5921 -0.9779
  158SAPE   H5Y17666   2.010   6.731   7.318 -0.6134  0.6759  0.4314
  158SAPE   C3617667   1.841   6.609   7.393 -0.2323 -0.2168 -1.0590
  158SAPE   H6X17668   1.889   6.524   7.445 -0.3729  0.0748 -0.4511
  158SAPE   H6Y17669   1.751   6.560   7.350  1.6031 -3.8627 -1.0854
  158SAPE   C3717670   1.801   6.719   7.501  0.1402  0.2841  0.3302
  158SAPE   H7X17671   1.772   6.810   7.443 -0.5416 -0.6567 -0.8441
  158SAPE   H7Y17672   1.715   6.676   7.556 -2.1381  0.8106 -2.5334
  158SAPE   C3817673   1.914   6.758   7.589 -0.5238 -0.4562 -0.3928
  158SAPE   H8X17674   2.001   6.797   7.533 -2.1391  3.6835 -0.3838
  158SAPE   H8Y17675   1.944   6.673   7.653 -0.8064 -1.2248 -1.2533
  158SAPE   C3917676   1.873   6.878   7.672  0.3596  0.4596 -0.0139
  158SAPE   H9X17677   1.765   6.870   7.697  0.5262 -1.0703  0.3421
  158SAPE   H9Y17678   1.888   6.974   7.619 -2.4161  0.7216 -0.4631
  158SAPE  C31017679   1.958   6.899   7.793 -0.2143 -0.4986 -0.3837
  158SAPE  H10X17680   2.064   6.890   7.763 -0.1925  0.7668 -0.7707
  158SAPE  H10Y17681   1.941   6.819   7.868  0.3006 -2.9257 -2.7076
  158SAPE  C31117682   1.956   7.043   7.858  0.3242  0.1727  0.3334
  158SAPE  H11X17683   1.911   7.113   7.784  0.4284 -1.0581 -0.9371
  158SAPE  H11Y17684   2.058   7.081   7.880  0.2328 -0.1891  1.4252
  158SAPE  C31217685   1.866   7.045   7.985 -0.3390 -0.0574 -0.2325
  158SAPE  H12X17686   1.768   6.994   7.973 -1.0863  1.4036 -0.6068
  158SAPE  H12Y17687   1.833   7.145   8.021  0.3727 -0.1488  0.7467
  158SAPE  C31317688   1.936   6.978   8.102  0.0192  0.6895  0.4984
  158SAPE  H13X17689   2.037   7.020   8.119  1.1391 -2.3978  2.1513
  158SAPE  H13Y17690   1.963   6.870   8.100  0.1912  0.6902  1.8266
  158SAPE  C31417691   1.844   6.991   8.231 -0.0011  0.0349  0.3954
  158SAPE  H14X17692   1.788   6.900   8.263 -1.5181  1.7648  2.9567
  158SAPE  H14Y17693   1.782   7.082   8.213  1.3094  0.8904  0.0686
  158SAPE  C31517694   1.920   7.018   8.353  0.3256 -0.1710 -0.3330
  158SAPE  H15X17695   1.972   7.117   8.355 -1.3533  0.8145 -2.0718
  158SAPE  H15Y17696   1.998   6.941   8.370 -0.6558 -0.8017  1.5342
  158SAPE  C31617697   1.823   7.029   8.474 -0.0623  0.4722  0.1550
  158SAPE  H16X17698   1.749   6.947   8.461 -1.4245  1.7374 -0.4025
  158SAPE  H16Y17699   1.769   7.126   8.462 -0.5639  0.2558  0.6436
  158SAPE  C31717700   1.886   7.011   8.618  0.7045 -0.5529  0.6844
  158SAPE  H17X17701   1.918   6.906   8.632  1.1374 -0.8369 -1.8745
  158SAPE  H17Y17702   1.806   7.038   8.690 -2.0544  0.3812 -2.4713
  158SAPE  C31817703   2.010   7.099   8.633  0.1907  0.3336  0.1151
  158SAPE  H18X17704   2.059   7.061   8.725 -1.1247  0.8624  1.0596
  158SAPE  H18Y17705   1.984   7.204   8.655  2.0578  0.6160  1.1761
  158SAPE  H18Z17706   2.084   7.105   8.549 -0.6609 -0.9913 -0.7834
  159SAPE     N17707   6.658   4.423   6.194 -0.1536  0.3654 -0.5884
  159SAPE   HN117708   6.598   4.501   6.162  0.2821  0.6070 -0.8261
  159SAPE   HN217709   6.752   4.453   6.161 -0.5277  0.4089 -1.6356
  159SAPE   HN317710   6.635   4.329   6.155 -0.7180 -0.2533  1.1138
  159SAPE   C1217711   6.655   4.397   6.339  0.2206  0.0558  0.2470
  159SAPE  H12A17712   6.654   4.493   6.395  1.7292 -0.3551  1.0343
  159SAPE  H12B17713   6.750   4.359   6.381  0.6645 -0.1355 -0.8710
  159SAPE   C1117714   6.548   4.299   6.357 -0.3641  0.7360  0.3240
  159SAPE  H11A17715   6.450   4.322   6.311  0.6917  1.1696 -1.7936
  159SAPE  H11B17716   6.541   4.279   6.467 -0.4635 -1.4258 -0.0302
  159SAPE     P17717   6.648   4.052   6.368  0.4667 -0.0590 -0.0343
  159SAPE   O1317718   6.554   4.002   6.473  0.1570 -0.0565  0.7750
  159SAPE   O1417719   6.693   3.952   6.270  0.1652  0.1911  0.0678
  159SAPE   O1217720   6.592   4.182   6.293 -0.1385  0.7771  0.2207
  159SAPE   O1117721   6.786   4.092   6.441 -0.2962  0.1294  0.1561
  159SAPE    C117722   6.777   4.159   6.566  1.0388  0.3983 -0.0343
  159SAPE    HA17723   6.823   4.260   6.554  1.2738  0.2156 -0.7603
  159SAPE    HB17724   6.672   4.165   6.601  0.3772 -1.8616 -1.4463
  159SAPE    C217725   6.864   4.081   6.664  0.1690  0.6189 -0.0664
  159SAPE    HS17726   6.939   4.033   6.596 -2.4619 -1.8575 -1.4790
  159SAPE   O2117727   6.782   3.979   6.728  0.1729  0.6524 -0.5990
  159SAPE   C2117728   6.853   3.895   6.803 -0.2086  0.8432 -0.4757
  159SAPE   O2217729   6.977   3.886   6.805  0.4035 -0.0988  0.5720
  159SAPE   C2217730   6.759   3.810   6.876 -0.6701 -0.0133  0.2041
  159SAPE   H2R17731   6.673   3.865   6.920 -1.2173 -1.5664  1.1961
  159SAPE   H2S17732   6.718   3.740   6.800  1.4933  1.4574 -2.4950
  159SAPE    C317733   6.933   4.177   6.777  0.4818  0.6758  0.4697
  159SAPE    HX17734   6.976   4.264   6.724 -0.9869  0.4090 -1.2947
  159SAPE    HY17735   7.011   4.127   6.838 -0.4514 -1.6004 -0.0980
  159SAPE   O3117736   6.825   4.234   6.857 -0.2422 -0.1361  0.2574
  159SAPE   C3117737   6.813   4.187   6.978  0.8407 -0.5722 -0.0946
  159SAPE   O3217738   6.894   4.117   7.031 -1.2590  0.3872 -0.5819
  159SAPE   C3217739   6.684   4.226   7.047  0.1716  0.1428 -0.5032
  159SAPE   H2X17740   6.607   4.171   6.989  1.6034 -2.3658 -0.1440
  159SAPE   H2Y17741   6.666   4.336   7.048  1.1545  0.3104  0.2802
  159SAPE   C2317742   6.825   3.724   6.989 -0.0290  0.5154 -0.4171
  159SAPE   H3R17743   6.920   3.681   6.951  0.2420  1.6356 -1.0677
  159SAPE   H3S17744   6.748   3.646   7.007  0.0279  0.5977  0.1947
  159SAPE   C2417745   6.842   3.808   7.112 -0.5249  0.2948  0.1299
  159SAPE   H4R17746   6.758   3.880   7.121 -0.3761  0.7334 -1.6687
  159SAPE   H4S17747   6.927   3.873   7.081  0.3430 -0.8408  0.0741
  159SAPE   C2517748   6.856   3.737   7.246  0.6370  0.8094 -0.0361
  159SAPE   H5R17749   6.770   3.679   7.282 -0.2344  2.4360  0.6096
  159SAPE   C2617750   6.963   3.747   7.326  0.5166  0.1608 -0.2217
  159SAPE   H6R17751   6.965   3.697   7.424 -0.2030 -0.0107 -0.2949
  159SAPE   C2717752   7.084   3.835   7.307  0.7269  0.2693 -0.0338
  159SAPE   H7R17753   7.112   3.834   7.200 -2.3050 -0.0100 -0.9403
  159SAPE   H7S17754   7.162   3.786   7.369  0.5908 -3.4135 -2.4770
  159SAPE   C2817755   7.060   3.990   7.339 -0.3146  0.6571  0.1023
  159SAPE   H8R17756   7.002   4.041   7.260  1.3665 -0.2681 -1.8257
  159SAPE   C2917757   7.089   4.052   7.454  0.7097 -0.0312 -0.1134
  159SAPE   H9R17758   7.066   4.159   7.471 -0.9190 -0.6852  2.3845
  159SAPE  C21017759   7.150   3.985   7.573 -0.0486  0.1462  0.2511
  159SAPE  H10R17760   7.167   3.876   7.556 -0.9904  0.0824 -0.3223
  159SAPE  H10S17761   7.089   3.996   7.665 -0.0468  0.9996  0.1542
  159SAPE  C21117762   7.280   4.059   7.596 -0.2683  0.4648 -0.1354
  159SAPE  H11R17763   7.330   4.079   7.500 -1.1197 -2.8137 -1.4326
  159SAPE  C21217764   7.332   4.083   7.718 -0.3438  0.3530 -0.7642
  159SAPE  H12R17765   7.422   4.145   7.729 -1.1241  1.7498 -1.9308
  159SAPE  C21317766   7.268   4.041   7.849 -0.6136  0.1312 -0.5484
  159SAPE  H13R17767   7.340   3.978   7.905 -1.1082 -0.8346 -0.9646
  159SAPE  H13S17768   7.179   3.980   7.823  0.8176 -2.0790 -0.5270
  159SAPE  C21417769   7.226   4.166   7.929 -0.2028 -0.1859 -0.8618
  159SAPE  H14R17770   7.188   4.255   7.876  1.0685  0.3517 -0.9142
  159SAPE  C21517771   7.238   4.182   8.062  0.0540  0.2773 -0.0553
  159SAPE  H15R17772   7.211   4.282   8.098 -0.2216 -0.5109  2.0932
  159SAPE  C21617773   7.276   4.078   8.161 -0.1023  0.0859 -0.5293
  159SAPE  H16R17774   7.378   4.071   8.203  0.8983  0.2067 -2.8083
  159SAPE  H16S17775   7.269   3.979   8.111 -3.1658 -0.2337  0.3175
  159SAPE  C21717776   7.174   4.061   8.281 -1.2882 -0.0265 -0.2440
  159SAPE  H17R17777   7.175   3.956   8.318 -0.6383  1.0019  2.9716
  159SAPE  H17S17778   7.070   4.079   8.246 -1.0722 -0.3455 -1.0766
  159SAPE  C21817779   7.207   4.157   8.391 -0.0709 -0.0745  0.1368
  159SAPE  H18R17780   7.192   4.266   8.374  1.0408  0.2151  0.9260
  159SAPE  H18S17781   7.316   4.146   8.410 -0.1111 -0.4862  0.1234
  159SAPE  C21917782   7.134   4.130   8.523 -0.4926  0.8497  0.2941
  159SAPE  H19R17783   7.163   4.025   8.544  0.6497  1.3546  1.3607
  159SAPE  H19S17784   7.026   4.131   8.501 -0.4199 -1.9026 -0.5288
  159SAPE  C22017785   7.163   4.232   8.636  0.9705  0.4405  0.1947
  159SAPE  H20R17786   7.091   4.316   8.627 -1.0117 -1.1439  0.2973
  159SAPE  H20S17787   7.267   4.266   8.619  1.4567 -1.2111 -0.2863
  159SAPE  H20T17788   7.154   4.182   8.735  0.3947  0.7157  0.2855
  159SAPE   C3317789   6.666   4.176   7.197 -0.5586 -0.1203  0.5378
  159SAPE   H3X17790   6.698   4.070   7.196 -1.2179 -0.3305  0.8558
  159SAPE   H3Y17791   6.560   4.179   7.231  0.3300  0.8428  3.5290
  159SAPE   C3417792   6.759   4.247   7.303 -0.6256  0.3409 -0.1226
  159SAPE   H4X17793   6.722   4.351   7.294 -0.4962  0.3517 -0.5466
  159SAPE   H4Y17794   6.864   4.244   7.268 -0.8022 -1.3478 -0.5861
  159SAPE   C3517795   6.742   4.204   7.449  0.2997 -0.3586 -0.0968
  159SAPE   H5X17796   6.789   4.106   7.470 -0.6994 -1.3274 -2.0958
  159SAPE   H5Y17797   6.632   4.188   7.461  0.2809  0.2213  0.5832
  159SAPE   C3617798   6.787   4.298   7.558  0.8653 -0.4590 -0.3855
  159SAPE   H6X17799   6.726   4.391   7.557 -0.7728 -1.4649  0.6064
  159SAPE   H6Y17800   6.894   4.328   7.556  0.7097  0.8212  2.9575
  159SAPE   C3717801   6.776   4.230   7.694  0.5708  0.0263 -0.4337
  159SAPE   H7X17802   6.854   4.151   7.701 -0.5053 -0.9886  0.5010
  159SAPE   H7Y17803   6.685   4.166   7.694  0.2884  0.4044  1.1013
  159SAPE   C3817804   6.780   4.315   7.824  0.0489  0.2177  0.3799
  159SAPE   H8X17805   6.687   4.376   7.831  0.2398  0.2874  3.2503
  159SAPE   H8Y17806   6.861   4.390   7.823  0.9880 -0.7432 -1.2888
  159SAPE   C3917807   6.780   4.232   7.954  0.1164 -0.2815  0.0177
  159SAPE   H9X17808   6.880   4.184   7.956 -0.2418 -1.0677 -0.1615
  159SAPE   H9Y17809   6.710   4.145   7.960  0.5161 -0.6644 -0.7478
  159SAPE  C31017810   6.783   4.334   8.069  0.6250  0.4737  0.1553
  159SAPE  H10X17811   6.682   4.364   8.105  0.8941  0.5129  0.9038
  159SAPE  H10Y17812   6.823   4.428   8.025  0.2129  1.9757  2.7309
  159SAPE  C31117813   6.874   4.287   8.178  0.3964 -0.4750 -0.2456
  159SAPE  H11X17814   6.966   4.241   8.135 -0.8959 -0.8729 -2.7449
  159SAPE  H11Y17815   6.837   4.199   8.235 -0.1165  1.1831  2.1536
  159SAPE  C31217816   6.895   4.398   8.285 -0.1417  0.3985  0.0653
  159SAPE  H12X17817   6.923   4.343   8.377  0.8487  0.9318  0.1078
  159SAPE  H12Y17818   6.798   4.448   8.304 -0.3090  0.0811  0.0362
  159SAPE  C31317819   6.998   4.511   8.243 -0.5407  0.1203  0.2726
  159SAPE  H13X17820   6.932   4.557   8.167 -1.6348 -0.9478  0.5392
  159SAPE  H13Y17821   7.091   4.468   8.199 -2.1303 -1.4237 -1.8615
  159SAPE  C31417822   7.037   4.600   8.365  0.7127 -0.1714  1.1258
  159SAPE  H14X17823   7.121   4.550   8.418  0.0087  1.5824  4.1206
  159SAPE  H14Y17824   6.949   4.621   8.430  0.9824  2.9756  0.5981
  159SAPE  C31517825   7.088   4.737   8.309  0.0352 -0.9747 -0.3512
  159SAPE  H15X17826   7.183   4.705   8.261 -0.6177 -0.9584 -1.7051
  159SAPE  H15Y17827   7.101   4.805   8.395 -0.6611 -0.8029 -0.3832
  159SAPE  C31617828   7.006   4.807   8.194  0.3923  0.4981  0.2810
  159SAPE  H16X17829   6.994   4.760   8.094 -0.1946  2.3549 -0.5729
  159SAPE  H16Y17830   7.057   4.900   8.160  1.0902 -0.3363 -1.0159
  159SAPE  C31717831   6.861   4.835   8.240  0.5218  1.0210 -0.2650
  159SAPE  H17X17832   6.865   4.906   8.325  0.5357 -1.7574  2.2130
  159SAPE  H17Y17833   6.808   4.742   8.270  2.0184  0.6013  1.2439
  159SAPE  C31817834   6.776   4.885   8.132  0.8453 -0.4577  0.6674
  159SAPE  H18X17835   6.795   4.824   8.041 -0.1040 -1.8293  1.3424
  159SAPE  H18Y17836   6.800   4.991   8.110  1.9746 -0.5614  1.3659
  159SAPE  H18Z17837   6.672   4.870   8.167  0.7665  0.7396  0.9712
  160SAPE     N17838   1.041   6.379   6.429 -0.2649 -0.3256  0.6074
  160SAPE   HN117839   1.039   6.317   6.346 -1.6340 -0.3118  0.6186
  160SAPE   HN217840   1.112   6.452   6.406 -2.0880  1.6005  0.7257
  160SAPE   HN317841   1.067   6.321   6.511  1.2737  0.0404  0.4148
  160SAPE   C1217842   0.907   6.439   6.452 -0.5270 -0.3074  0.3937
  160SAPE  H12A17843   0.828   6.361   6.443 -0.7340 -0.3618  2.2924
  160SAPE  H12B17844   0.889   6.512   6.370  1.0827  1.6418  1.6626
  160SAPE   C1117845   0.901   6.518   6.583  0.2558 -0.1892 -0.0684
  160SAPE  H11A17846   0.980   6.596   6.579 -1.6429  1.8038 -0.3841
  160SAPE  H11B17847   0.912   6.443   6.664  2.1094  0.2852  0.1691
  160SAPE     P17848   0.654   6.538   6.686 -0.1610  0.1825 -0.2764
  160SAPE   O1317849   0.550   6.473   6.604  0.3092  0.0178  0.2544
  160SAPE   O1417850   0.704   6.442   6.790  0.6521  0.4633  0.6761
  160SAPE   O1217851   0.777   6.590   6.603 -0.2266  0.1348  0.0292
  160SAPE   O1117852   0.591   6.665   6.757  0.5393 -0.3288 -0.5807
  160SAPE    C117853   0.678   6.766   6.816  0.0832  0.4567 -0.6448
  160SAPE    HA17854   0.788   6.755   6.799  0.3525 -0.2074  1.2774
  160SAPE    HB17855   0.647   6.871   6.798  0.2109  0.8024  1.0293
  160SAPE    C217856   0.663   6.761   6.973 -0.1728 -0.1311 -0.6643
  160SAPE    HS17857   0.572   6.819   6.999 -0.2151  0.7129 -2.5930
  160SAPE   O2117858   0.785   6.818   7.036 -0.2167  0.4087  0.3113
  160SAPE   C2117859   0.779   6.949   7.047 -0.1091 -0.0704 -0.0328
  160SAPE   O2217860   0.689   7.024   7.015 -0.2486 -0.3527  0.1551
  160SAPE   C2217861   0.897   7.002   7.127  0.1413 -0.0282  0.1264
  160SAPE   H2R17862   0.993   6.986   7.073 -0.1134 -2.1885  0.2369
  160SAPE   H2S17863   0.875   7.111   7.126 -2.5159 -0.4720 -1.8663
  160SAPE    C317864   0.636   6.626   7.040 -0.4104 -0.0343  0.0486
  160SAPE    HX17865   0.731   6.568   7.047  0.0537  0.9362  2.9279
  160SAPE    HY17866   0.573   6.569   6.968  1.0324  1.7453 -2.7972
  160SAPE   O3117867   0.577   6.627   7.179  0.2042 -0.3482 -0.0618
  160SAPE   C3117868   0.524   6.509   7.211  0.7569  0.7641  0.4930
  160SAPE   O3217869   0.515   6.406   7.145 -0.4031  0.3911 -0.7329
  160SAPE   C3217870   0.450   6.532   7.340 -0.2046  0.1621  0.3686
  160SAPE   H2X17871   0.388   6.624   7.333  0.6849  0.7873  0.5324
  160SAPE   H2Y17872   0.527   6.535   7.421 -1.1466  1.6269  1.2654
  160SAPE   C2317873   0.914   6.946   7.272  0.1961 -0.4929 -0.6302
  160SAPE   H3R17874   1.000   6.876   7.263  0.1759 -0.6073 -0.0102
  160SAPE   H3S17875   0.824   6.891   7.308  0.3785 -0.3492  0.0578
  160SAPE   C2417876   0.968   7.051   7.369  0.7012  0.6349 -0.4507
  160SAPE   H4R17877   1.044   7.114   7.317 -0.1241  2.1928  0.1704
  160SAPE   H4S17878   1.017   7.003   7.456 -1.4499 -0.8844 -0.0172
  160SAPE   C2517879   0.862   7.148   7.418 -0.4163  0.6560  1.0017
  160SAPE   H5R17880   0.790   7.190   7.346  1.1844  0.5067 -0.7837
  160SAPE   C2617881   0.827   7.185   7.540  0.6033  0.0554 -0.2277
  160SAPE   H6R17882   0.732   7.240   7.540  0.3015 -0.3492 -2.6250
  160SAPE   C2717883   0.872   7.139   7.674 -0.6702 -0.1260  0.0689
  160SAPE   H7R17884   0.884   7.229   7.738  0.1269 -1.0090  1.2010
  160SAPE   H7S17885   0.973   7.092   7.669 -0.2224  0.7139  0.8918
  160SAPE   C2817886   0.784   7.033   7.737  0.4856  0.5098  0.1762
  160SAPE   H8R17887   0.731   6.958   7.677  0.3600 -0.0090  0.9153
  160SAPE   C2917888   0.771   7.027   7.876  0.3643  0.1973  0.0820
  160SAPE   H9R17889   0.708   6.948   7.919  0.2368  0.1235 -0.2355
  160SAPE  C21017890   0.840   7.119   7.981  0.2202 -0.1043  0.9232
  160SAPE  H10R17891   0.936   7.149   7.934 -0.3653  0.8675  0.3261
  160SAPE  H10S17892   0.869   7.059   8.069  2.9271  0.2264  0.3310
  160SAPE  C21117893   0.747   7.232   8.038  0.3567 -0.7304 -0.0333
  160SAPE  H11R17894   0.670   7.279   7.975 -1.8227 -1.8770  1.6202
  160SAPE  C21217895   0.750   7.287   8.160 -0.3601  0.1967 -0.4042
  160SAPE  H12R17896   0.668   7.354   8.192 -0.7224  0.0116 -0.9418
  160SAPE  C21317897   0.859   7.258   8.265  0.7080 -0.2154 -0.7820
  160SAPE  H13R17898   0.887   7.351   8.318  0.4118  0.8482 -2.4426
  160SAPE  H13S17899   0.952   7.230   8.212  0.0826  0.0619 -2.0480
  160SAPE  C21417900   0.820   7.142   8.362 -0.6054 -1.1011  0.7640
  160SAPE  H14R17901   0.766   7.063   8.308 -1.5989  0.5380 -0.7343
  160SAPE  C21517902   0.837   7.134   8.493 -0.3786 -0.1825  0.8343
  160SAPE  H15R17903   0.803   7.049   8.554  1.9773 -0.0847  2.4092
  160SAPE  C21617904   0.896   7.244   8.579 -0.0194 -0.2955 -0.8438
  160SAPE  H16R17905   0.980   7.293   8.523  0.1430  0.7036  0.2413
  160SAPE  H16S17906   0.951   7.183   8.654  2.6042  1.7935 -0.9026
  160SAPE  C21717907   0.799   7.337   8.657  0.4071  0.0570  0.4061
  160SAPE  H17R17908   0.748   7.279   8.737 -1.0138  1.6327  0.6881
  160SAPE  H17S17909   0.728   7.382   8.584  1.1234 -0.1109 -0.4102
  160SAPE  C21817910   0.867   7.450   8.741 -0.0185  0.4879 -0.2556
  160SAPE  H18R17911   0.949   7.398   8.796 -1.8579 -0.5215  1.6542
  160SAPE  H18S17912   0.797   7.499   8.812 -1.2711  0.1522 -1.2235
  160SAPE  C21917913   0.935   7.546   8.648 -0.4754 -0.1416 -0.0751
  160SAPE  H19R17914   0.859   7.601   8.590  2.8448  2.2198 -2.5718
  160SAPE  H19S17915   0.990   7.486   8.573  1.8772  1.3157  0.3682
  160SAPE  C22017916   1.029   7.644   8.704 -0.4116 -1.0732 -0.2079
  160SAPE  H20R17917   0.978   7.725   8.759  0.3564  0.4070 -1.5773
  160SAPE  H20S17918   1.093   7.681   8.621  1.3417 -2.2845  0.5392
  160SAPE  H20T17919   1.097   7.587   8.771  3.3783  2.0557 -0.9636
  160SAPE   C3317920   0.354   6.415   7.366  0.8187 -0.5908 -0.7367
  160SAPE   H3X17921   0.413   6.322   7.349  0.0729 -0.8438 -2.1590
  160SAPE   H3Y17922   0.273   6.410   7.290  1.7952 -1.4446 -1.7649
  160SAPE   C3417923   0.289   6.413   7.508  1.0290 -0.0752  0.3084
  160SAPE   H4X17924   0.367   6.374   7.577  0.2512 -1.5488  0.3795
  160SAPE   H4Y17925   0.216   6.330   7.511  1.4618 -0.6513 -2.2918
  160SAPE   C3517926   0.222   6.540   7.550  0.4009 -0.5204  0.2841
  160SAPE   H5X17927   0.162   6.590   7.471 -1.3781 -0.9174  1.3468
  160SAPE   H5Y17928   0.313   6.601   7.571  0.8433 -1.1126  0.1292
  160SAPE   C3617929   0.134   6.526   7.670 -0.5719  1.0461  0.1719
  160SAPE   H6X17930   0.197   6.461   7.734 -0.0881 -0.1310 -1.4354
  160SAPE   H6Y17931   0.059   6.451   7.637  1.7329 -1.9279  1.1584
  160SAPE   C3717932   0.078   6.654   7.728 -0.7240 -0.2337 -0.2755
  160SAPE   H7X17933   0.038   6.718   7.647  0.2864 -0.7073 -1.1756
  160SAPE   H7Y17934   0.165   6.712   7.765 -0.8252 -1.1596  1.5497
  160SAPE   C3817935  -0.016   6.645   7.849 -0.6723  0.4412  0.6053
  160SAPE   H8X17936  -0.090   6.569   7.815 -0.5462  0.2404  0.7830
  160SAPE   H8Y17937  -0.045   6.746   7.886 -1.9738  0.7802 -1.1797
  160SAPE   C3917938   0.055   6.576   7.968  0.1962  0.7606  0.3288
  160SAPE   H9X17939   0.161   6.608   7.962  0.2004  0.5967 -0.7216
  160SAPE   H9Y17940   0.059   6.465   7.962 -0.3869  0.7642 -0.2241
  160SAPE  C31017941   0.006   6.620   8.100 -0.3013 -0.1413 -0.6946
  160SAPE  H10X17942  -0.103   6.599   8.108 -0.8379  2.5536  0.3476
  160SAPE  H10Y17943   0.006   6.727   8.129 -1.2763  0.5517 -3.0379
  160SAPE  C31117944   0.094   6.556   8.206 -0.4500 -0.2891 -1.2633
  160SAPE  H11X17945   0.198   6.595   8.212 -0.2989 -0.9039  1.9373
  160SAPE  H11Y17946   0.099   6.446   8.188 -2.3754 -0.3085 -1.8599
  160SAPE  C31217947   0.036   6.562   8.353 -0.0400  0.4433 -0.1206
  160SAPE  H12X17948   0.075   6.484   8.421 -0.0016 -0.8794 -1.5844
  160SAPE  H12Y17949  -0.070   6.529   8.359 -0.0997  0.9551  2.5042
  160SAPE  C31317950   0.029   6.702   8.421 -0.9710 -0.2162 -0.3009
  160SAPE  H13X17951  -0.031   6.700   8.514 -0.0092  0.6309  0.3622
  160SAPE  H13Y17952  -0.010   6.772   8.343 -0.1042  1.9539  1.1150
  160SAPE  C31417953   0.166   6.745   8.460  0.2759 -0.3652 -0.2999
  160SAPE  H14X17954   0.163   6.851   8.493  0.6351 -0.1159 -1.0347
  160SAPE  H14Y17955   0.234   6.723   8.375  0.0549  1.5946 -1.0459
  160SAPE  C31517956   0.219   6.672   8.584 -0.3836 -0.2374 -0.6303
  160SAPE  H15X17957   0.242   6.567   8.555 -3.4793 -0.8579 -1.1564
  160SAPE  H15Y17958   0.144   6.676   8.665  0.5461  1.6881  0.2002
  160SAPE  C31617959   0.341   6.744   8.642  0.1238  0.1309  0.0202
  160SAPE  H16X17960   0.351   6.691   8.739 -3.6459 -1.3970 -0.2604
  160SAPE  H16Y17961   0.293   6.840   8.671 -1.3827 -0.3267 -0.8739
  160SAPE  C31717962   0.452   6.768   8.549  0.3570  0.9057  0.5172
  160SAPE  H17X17963   0.479   6.873   8.573  0.3569  0.5505  2.2018
  160SAPE  H17Y17964   0.425   6.771   8.441 -1.3090  0.2958  0.8878
  160SAPE  C31817965   0.568   6.671   8.574 -0.3646  0.2464  0.6321
  160SAPE  H18X17966   0.649   6.697   8.501  0.6930 -1.2747  1.2108
  160SAPE  H18Y17967   0.551   6.562   8.570 -1.3926  0.4221 -2.2951
  160SAPE  H18Z17968   0.614   6.693   8.673  1.2516 -0.7848  0.1567
  161SOPE     N17969   6.092   4.847  11.111 -0.4257 -0.2754 -0.2067
  161SOPE   HN117970   5.995   4.859  11.147 -0.6009 -0.6978 -0.5379
  161SOPE   HN217971   6.132   4.753  11.132 -1.0613 -0.5666 -0.2817
  161SOPE   HN317972   6.156   4.918  11.153 -0.6021 -0.3219  0.1546
  161SOPE   C1217973   6.084   4.875  10.968  0.2272  0.0156  0.3639
  161SOPE  H12A17974   6.190   4.893  10.937 -0.8376  4.5196 -1.4381
  161SOPE  H12B17975   6.029   4.970  10.953  1.6146  0.7867 -0.0932
  161SOPE   C1117976   6.017   4.755  10.900  0.0970  0.1773  0.0655
  161SOPE  H11A17977   6.083   4.666  10.907  1.0961  0.9855  1.6363
  161SOPE  H11B17978   5.996   4.783  10.794 -1.9032  3.5310  1.1798
  161SOPE     P17979   5.752   4.734  10.917  0.3341  0.0309 -0.1047
  161SOPE   O1317980   5.715   4.877  10.901 -0.2989  0.1189 -0.5439
  161SOPE   O1417981   5.677   4.647  11.010  0.2517  0.3314 -0.3031
  161SOPE   O1217982   5.899   4.713  10.964 -0.2063 -0.4473  0.4883
  161SOPE   O1117983   5.733   4.664  10.778  0.1044 -0.4028 -0.0902
  161SOPE    C117984   5.766   4.522  10.764  0.0840 -0.1718  0.1675
  161SOPE    HA17985   5.692   4.467  10.826 -2.2164  0.2501 -2.0250
  161SOPE    HB17986   5.871   4.504  10.796 -0.2019  0.0934  1.3080
  161SOPE    C217987   5.749   4.463  10.620  0.3435  0.5406  0.5667
  161SOPE    HS17988   5.782   4.356  10.627  1.0515  0.6750 -0.4964
  161SOPE   O2117989   5.813   4.553  10.527 -0.5897  0.1934  0.0577
  161SOPE   C2117990   5.948   4.526  10.526 -0.4563 -0.2312  0.5164
  161SOPE   O2217991   6.001   4.428  10.579  0.1379 -0.2062  0.0521
  161SOPE   C2217992   6.015   4.637  10.450 -0.5123 -0.1644 -1.0132
  161SOPE   H2R17993   6.123   4.621  10.474 -0.9086  0.5569  1.5533
  161SOPE   H2S17994   5.978   4.728  10.501 -2.4156 -0.9072 -0.9836
  161SOPE    C317995   5.599   4.474  10.585  0.4227  1.1250  0.7385
  161SOPE    HX17996   5.553   4.575  10.594 -2.2854 -0.1520  2.9306
  161SOPE    HY17997   5.533   4.420  10.656  0.6615 -0.5258 -0.2400
  161SOPE   O3117998   5.576   4.413  10.455 -0.0345 -0.5119 -0.2735
  161SOPE   C3117999   5.495   4.483  10.374  0.4456 -0.7689  0.8232
  161SOPE   O3218000   5.448   4.595  10.385 -0.2188 -0.4624  0.1661
  161SOPE   C3218001   5.446   4.396  10.250 -0.8975  0.1734 -0.3169
  161SOPE   H2X18002   5.422   4.294  10.286 -1.6997 -0.0548 -1.4688
  161SOPE   H2Y18003   5.536   4.396  10.185 -1.2508 -0.3090 -0.8138
  161SOPE   C2318004   5.982   4.636  10.297  0.0568  0.3883 -0.1005
  161SOPE   H3R18005   6.018   4.732  10.255  0.7129  1.2805  2.3291
  161SOPE   H3S18006   5.873   4.625  10.281  0.4962 -2.9993 -1.7898
  161SOPE   C2418007   6.065   4.519  10.232  0.0544 -0.4704 -0.3793
  161SOPE   H4R18008   6.172   4.540  10.254  0.1510 -0.1737 -1.1311
  161SOPE   H4S18009   6.045   4.422  10.284  0.6893 -0.4421 -0.0687
  161SOPE   C2518010   6.032   4.488  10.089 -0.2741  0.2170  0.3100
  161SOPE   H5R18011   6.085   4.398  10.050 -1.2695 -0.4063  0.3612
  161SOPE   H5S18012   5.925   4.470  10.065 -0.3779 -0.0363  0.9310
  161SOPE   C2618013   6.067   4.603   9.987 -0.2352  0.3227 -0.6753
  161SOPE   H6R18014   6.033   4.702  10.025 -0.2395  0.0352  0.0933
  161SOPE   H6S18015   6.176   4.621   9.996 -0.1333 -0.7278  0.3579
  161SOPE   C2718016   6.030   4.579   9.846 -0.4417 -0.6773  0.8213
  161SOPE   H7R18017   6.063   4.479   9.813  1.3272 -0.6306  2.2713
  161SOPE   H7S18018   5.921   4.576   9.827 -0.3030  1.0313 -0.4600
  161SOPE   C2818019   6.085   4.691   9.753 -0.5234 -0.2278 -0.3636
  161SOPE   H8R18020   6.023   4.781   9.773  2.2619  1.7745 -0.0219
  161SOPE   H8S18021   6.180   4.742   9.782 -0.2604 -0.1271 -1.3583
  161SOPE   C2918022   6.085   4.646   9.610  0.1275  0.4746 -0.0450
  161SOPE   H9118023   5.983   4.662   9.573 -0.0653 -1.9787 -0.7779
  161SOPE  C21018024   6.182   4.597   9.533  0.0998  0.6261  0.2339
  161SOPE  H10118025   6.164   4.584   9.425 -0.8113  2.4634  0.1188
  161SOPE  C21118026   6.325   4.575   9.581 -0.0179 -0.3345  0.8482
  161SOPE  H11R18027   6.359   4.471   9.563 -1.4492 -0.4113 -1.9794
  161SOPE  H11S18028   6.334   4.602   9.688 -0.9802 -0.0120  0.8591
  161SOPE  C21218029   6.429   4.684   9.524 -0.1102  0.3921  0.2928
  161SOPE  H12R18030   6.522   4.676   9.584 -0.2897 -2.3110  0.3433
  161SOPE  H12S18031   6.380   4.784   9.534 -1.7949 -0.0824 -2.1599
  161SOPE  C21318032   6.455   4.661   9.374 -0.4606 -0.0477 -0.0784
  161SOPE  H13R18033   6.368   4.668   9.305 -1.2577 -0.9027  0.8190
  161SOPE  H13S18034   6.483   4.554   9.370 -0.2834  0.0261 -1.2794
  161SOPE  C21418035   6.583   4.733   9.340 -0.1492  0.7855  0.0047
  161SOPE  H14R18036   6.652   4.701   9.421 -0.7510  1.8305  0.9591
  161SOPE  H14S18037   6.570   4.842   9.358  2.7845  1.0791  0.7482
  161SOPE  C21518038   6.633   4.683   9.202 -0.2118 -0.2709 -0.1289
  161SOPE  H15R18039   6.625   4.573   9.193 -1.4312 -0.2976  0.9523
  161SOPE  H15S18040   6.740   4.713   9.198 -0.6447  1.5089  0.4300
  161SOPE  C21618041   6.568   4.763   9.084 -0.1366 -0.0095 -0.9614
  161SOPE  H16R18042   6.607   4.866   9.099 -1.9337  0.4710  0.6309
  161SOPE  H16S18043   6.458   4.765   9.096  0.1349  2.2230  2.2083
  161SOPE  C21718044   6.595   4.715   8.944 -0.2688 -0.4910 -0.0808
  161SOPE  H17R18045   6.560   4.614   8.915 -2.2828 -0.4664  1.9678
  161SOPE  H17S18046   6.706   4.701   8.945 -0.3459 -1.1786 -0.5831
  161SOPE  C21818047   6.551   4.817   8.837 -0.5282 -0.1790  0.3301
  161SOPE  H18R18048   6.600   4.791   8.741  1.0215  0.8423  0.8096
  161SOPE  H18S18049   6.582   4.923   8.850 -1.1069  0.0149  0.1771
  161SOPE  H18T18050   6.440   4.815   8.830 -0.7528 -1.5770  2.8916
  161SOPE   C3318051   5.332   4.457  10.180  0.0794 -0.7313 -0.3943
  161SOPE   H3X18052   5.355   4.562  10.151 -0.3586 -0.7151 -0.6950
  161SOPE   H3Y18053   5.248   4.457  10.253  2.5928 -0.7497  2.6868
  161SOPE   C3418054   5.290   4.379  10.051 -0.2110 -0.0177  0.7915
  161SOPE   H4X18055   5.230   4.294  10.089  1.9422 -0.8430  2.5382
  161SOPE   H4Y18056   5.378   4.349   9.990 -0.4192 -0.4526  0.7016
  161SOPE   C3518057   5.205   4.470   9.964 -0.6087  0.4131  0.8452
  161SOPE   H5X18058   5.227   4.578   9.979 -1.2324  0.4310  1.7461
  161SOPE   H5Y18059   5.101   4.457  10.001  0.4194 -1.9436  3.2129
  161SOPE   C3618060   5.203   4.436   9.813  0.7470 -0.3248  0.8342
  161SOPE   H6X18061   5.162   4.333   9.809  2.4979 -1.0355 -2.8461
  161SOPE   H6Y18062   5.301   4.425   9.761 -0.4136 -1.8303 -1.1745
  161SOPE   C3718063   5.102   4.525   9.744  0.1237  0.3477  0.9981
  161SOPE   H7X18064   5.127   4.631   9.765 -2.5243  0.8707  1.9383
  161SOPE   H7Y18065   5.007   4.510   9.801  0.2628  1.4242  1.5540
  161SOPE   C3818066   5.079   4.481   9.599 -0.1398 -0.1528 -0.2022
  161SOPE   H8X18067   4.986   4.524   9.556  0.0547  0.1124 -0.3599
  161SOPE   H8Y18068   5.066   4.371   9.594 -2.1654  0.0990 -1.9124
  161SOPE   C3918069   5.181   4.524   9.487 -0.0211 -0.7245 -0.2970
  161SOPE   H9X18070   5.277   4.483   9.525  1.6530  0.5055 -2.9109
  161SOPE   H9Y18071   5.186   4.634   9.505 -2.5392 -0.7094  0.6673
  161SOPE  C31018072   5.139   4.488   9.351 -0.4875  0.1238  0.4475
  161SOPE  H10X18073   5.171   4.571   9.284 -2.2646  0.4231 -0.0896
  161SOPE  H10Y18074   5.029   4.495   9.336 -0.8202 -0.1009  2.4947
  161SOPE  C31118075   5.211   4.363   9.289  0.0446 -0.9089 -0.2829
  161SOPE  H11X18076   5.195   4.277   9.358  1.0287 -0.4866  0.5019
  161SOPE  H11Y18077   5.321   4.378   9.281 -0.2273  1.0138 -1.0265
  161SOPE  C31218078   5.167   4.338   9.143 -0.2084  0.6020  0.2977
  161SOPE  H12X18079   5.058   4.319   9.156 -0.1237 -1.2528 -1.1867
  161SOPE  H12Y18080   5.210   4.243   9.104  1.4201  0.5316  2.0981
  161SOPE  C31318081   5.204   4.450   9.044 -0.3249  0.1355 -0.7539
  161SOPE  H13X18082   5.313   4.472   9.052  0.4088 -2.5118 -2.4125
  161SOPE  H13Y18083   5.148   4.546   9.056  0.9330  1.2192 -2.8920
  161SOPE  C31418084   5.178   4.426   8.894 -0.7113 -0.4050  0.1888
  161SOPE  H14X18085   5.245   4.352   8.845 -0.6452  0.1620 -0.6055
  161SOPE  H14Y18086   5.183   4.521   8.836  0.3490 -0.7216 -0.2639
  161SOPE  C31518087   5.028   4.378   8.856  0.1834  0.6310 -1.2697
  161SOPE  H15X18088   4.958   4.416   8.933  0.6841 -1.2527  0.2074
  161SOPE  H15Y18089   5.023   4.271   8.886  0.3812  1.1103  0.5631
  161SOPE  C31618090   4.998   4.400   8.706  0.6794 -0.0323 -0.7686
  161SOPE  H16X18091   5.081   4.350   8.651  0.5596 -4.2357  2.4117
  161SOPE  H16Y18092   5.005   4.508   8.680  2.4047  0.5055  1.5706
  161SOPE  C31718093   4.864   4.338   8.664 -0.1906 -0.1374  0.5886
  161SOPE  H17X18094   4.812   4.405   8.592  1.3966 -0.4426 -0.9140
  161SOPE  H17Y18095   4.793   4.341   8.750  0.2404  1.6361  0.9191
  161SOPE  C31818096   4.871   4.197   8.603 -0.0967 -0.7143  0.1314
  161SOPE  H18X18097   4.771   4.153   8.623  1.1122 -2.7871  2.1202
  161SOPE  H18Y18098   4.950   4.138   8.655 -0.6607 -2.7064 -1.1769
  161SOPE  H18Z18099   4.889   4.207   8.494 -2.6884 -1.5050 -0.4233
  162SOPE     N18100   4.931   4.261  11.068 -0.2044  0.4083 -0.0989
  162SOPE   HN118101   4.828   4.242  11.069 -0.0259 -0.6336 -0.3317
  162SOPE   HN218102   4.964   4.299  11.159  1.4579 -0.9877 -0.0700
  162SOPE   HN318103   4.954   4.323  10.988  1.8922  0.1255  0.2454
  162SOPE   C1218104   5.003   4.130  11.035 -0.6025  0.0746 -0.3448
  162SOPE  H12A18105   5.028   4.077  11.129  1.9271  3.1744  0.9091
  162SOPE  H12B18106   5.098   4.162  10.986 -0.3632  0.0528  0.1025
  162SOPE   C1118107   4.905   4.046  10.956 -0.2974 -0.2090  0.7352
  162SOPE  H11A18108   4.959   3.957  10.917 -1.9050 -1.1025  0.4688
  162SOPE  H11B18109   4.861   4.099  10.869 -0.3266  0.4699  1.1525
  162SOPE     P18110   4.654   4.067  11.031 -0.2491  0.0551 -0.0778
  162SOPE   O1318111   4.667   4.209  11.056  0.3617 -0.3030  0.1445
  162SOPE   O1418112   4.566   3.992  11.120  0.2095 -0.5733  0.1258
  162SOPE   O1218113   4.803   3.999  11.033 -0.3957  0.1742 -0.5326
  162SOPE   O1118114   4.613   4.056  10.876  0.2360  0.0603 -0.6648
  162SOPE    C118115   4.587   3.925  10.822  0.9614 -0.1246  0.0653
  162SOPE    HA18116   4.504   3.874  10.874  0.0853  0.4791 -0.7067
  162SOPE    HB18117   4.662   3.848  10.851 -1.7499 -3.3617 -0.9407
  162SOPE    C218118   4.568   3.931  10.665 -0.5446  0.1744 -0.0598
  162SOPE    HS18119   4.579   3.827  10.627  0.6105 -0.4261  1.7754
  162SOPE   O2118120   4.662   4.021  10.613 -0.2657 -0.3142  0.3664
  162SOPE   C2118121   4.789   3.983  10.594  0.0379  0.1891 -0.5204
  162SOPE   O2218122   4.829   3.868  10.588  0.2896 -0.0628  0.3660
  162SOPE   C2218123   4.876   4.110  10.585  0.3917  1.0548 -0.2649
  162SOPE   H2R18124   4.947   4.116  10.671  0.6531  1.3470 -0.4999
  162SOPE   H2S18125   4.817   4.204  10.573  0.2995  1.0583  0.1868
  162SOPE    C318126   4.426   3.986  10.646  0.1849 -0.2918 -0.0633
  162SOPE    HX18127   4.424   4.094  10.673  0.3036  0.3791 -2.4837
  162SOPE    HY18128   4.360   3.936  10.720 -0.3755  0.2024 -0.2188
  162SOPE   O3118129   4.377   3.970  10.511  0.2274 -0.2682  0.7834
  162SOPE   C3118130   4.329   3.850  10.480  0.1297 -0.0104  0.8707
  162SOPE   O3218131   4.316   3.758  10.558 -0.1899 -0.2394 -0.1266
  162SOPE   C3218132   4.279   3.851  10.334  0.1372 -0.0431 -0.2360
  162SOPE   H2X18133   4.208   3.766  10.326  0.6711 -0.5048 -0.1630
  162SOPE   H2Y18134   4.361   3.817  10.267  0.0637 -0.3543 -0.1727
  162SOPE   C2318135   4.960   4.098  10.451  0.1842 -0.0191  0.5808
  162SOPE   H3R18136   4.985   3.992  10.430  0.1876  0.2730 -1.0270
  162SOPE   H3S18137   5.048   4.163  10.468 -0.9879  1.2262  2.1816
  162SOPE   C2418138   4.883   4.155  10.328  0.2471 -0.1431  0.3550
  162SOPE   H4R18139   4.782   4.113  10.311 -0.6411  1.8190  0.4822
  162SOPE   H4S18140   4.859   4.264  10.330 -0.4378 -0.2855  0.1921
  162SOPE   C2518141   4.953   4.129  10.193 -0.8324  0.6357 -0.5802
  162SOPE   H5R18142   5.046   4.191  10.189  1.3445 -2.3561 -0.1220
  162SOPE   H5S18143   4.972   4.020  10.194 -0.7721  0.6475 -0.0339
  162SOPE   C2618144   4.873   4.147  10.067 -0.4232  0.0399 -0.7997
  162SOPE   H6R18145   4.770   4.107  10.084 -1.0864  1.5772 -1.0436
  162SOPE   H6S18146   4.852   4.256  10.065  0.7106  0.2712 -0.8452
  162SOPE   C2718147   4.928   4.087   9.934  0.6074 -0.2870  1.1868
  162SOPE   H7R18148   5.022   4.141   9.911 -1.3243  2.7848 -0.2881
  162SOPE   H7S18149   4.946   3.978   9.944  0.7292 -0.1790  2.1996
  162SOPE   C2818150   4.830   4.108   9.811  0.0355  0.5866  0.1705
  162SOPE   H8R18151   4.750   4.031   9.807  0.7547 -0.1543 -0.1788
  162SOPE   H8S18152   4.774   4.201   9.836  0.2121  0.2127  2.0368
  162SOPE   C2918153   4.893   4.141   9.679 -0.2960 -0.2004 -0.1528
  162SOPE   H9118154   4.919   4.248   9.679 -1.6044  0.1443 -1.7058
  162SOPE  C21018155   4.915   4.070   9.563 -0.0979  0.1010  0.3115
  162SOPE  H10118156   4.963   4.122   9.479  0.6180 -1.0756 -0.0250
  162SOPE  C21118157   4.875   3.925   9.538 -0.0234  0.6042 -0.1992
  162SOPE  H11R18158   4.906   3.852   9.615 -0.5922 -0.7728 -1.2439
  162SOPE  H11S18159   4.918   3.888   9.443 -1.3142  0.1571 -0.6278
  162SOPE  C21218160   4.729   3.888   9.530  0.2233  0.2298  0.9521
  162SOPE  H12R18161   4.671   3.932   9.614 -1.1842 -1.3438  0.8437
  162SOPE  H12S18162   4.710   3.779   9.529 -0.1038  0.2871  0.8230
  162SOPE  C21318163   4.660   3.922   9.390 -0.3205 -0.0831  0.5981
  162SOPE  H13R18164   4.727   3.882   9.311  0.2944 -0.1269  1.1347
  162SOPE  H13S18165   4.659   4.032   9.381 -0.6658 -0.2533 -2.2750
  162SOPE  C21418166   4.520   3.859   9.393  0.0498 -0.2566 -0.4115
  162SOPE  H14R18167   4.462   3.918   9.467 -1.2077  0.9853 -2.3353
  162SOPE  H14S18168   4.528   3.757   9.437 -2.6671 -0.4050 -0.1231
  162SOPE  C21518169   4.441   3.845   9.258 -0.0323 -0.2578  0.8797
  162SOPE  H15R18170   4.500   3.783   9.187 -0.9341 -2.0188  1.5965
  162SOPE  H15S18171   4.422   3.942   9.207 -0.0362 -0.7179 -0.0077
  162SOPE  C21618172   4.299   3.775   9.248  0.0571 -0.6535 -0.4733
  162SOPE  H16R18173   4.225   3.835   9.305  1.6259 -2.4281  3.8628
  162SOPE  H16S18174   4.306   3.679   9.304 -0.2515 -1.0538 -1.1201
  162SOPE  C21718175   4.269   3.750   9.106  0.7476  1.1942  0.9099
  162SOPE  H17R18176   4.183   3.679   9.109  2.0748 -0.5363  0.0787
  162SOPE  H17S18177   4.358   3.698   9.064  0.0239 -0.2482  1.0679
  162SOPE  C21818178   4.242   3.872   9.021  0.2908  0.4066 -0.5132
  162SOPE  H18R18179   4.202   3.835   8.925 -1.8344  0.5610  0.2585
  162SOPE  H18S18180   4.333   3.926   8.985  0.8539 -0.4740 -0.4329
  162SOPE  H18T18181   4.166   3.939   9.069 -2.4597 -0.4992 -3.2838
  162SOPE   C3318182   4.227   3.988  10.271 -0.3107 -0.0711 -0.3927
  162SOPE   H3X18183   4.264   3.991  10.167 -1.9069 -1.1498 -1.0368
  162SOPE   H3Y18184   4.287   4.076  10.303  2.0963 -1.6632 -0.2678
  162SOPE   C3418185   4.076   4.009  10.271  0.1977 -0.0949 -0.5754
  162SOPE   H4X18186   4.067   4.115  10.239  0.6786 -0.2215 -1.1652
  162SOPE   H4Y18187   4.033   4.009  10.373 -0.3811  0.2959 -0.8156
  162SOPE   C3518188   3.994   3.911  10.186  0.1239  0.4323  0.8587
  162SOPE   H5X18189   3.896   3.958  10.164  0.6955  2.3913  2.2418
  162SOPE   H5Y18190   3.964   3.820  10.243 -3.2031  1.5268  1.0544
  162SOPE   C3618191   4.071   3.872  10.053 -0.3344 -0.1485  0.0547
  162SOPE   H6X18192   4.154   3.803  10.081 -0.9617 -0.5579  0.9815
  162SOPE   H6Y18193   4.111   3.962  10.003  0.0450 -1.0773 -1.3773
  162SOPE   C3718194   3.985   3.789   9.949 -0.0492 -0.9628 -0.1627
  162SOPE   H7X18195   4.064   3.766   9.875  1.8167  1.9288  0.7334
  162SOPE   H7Y18196   3.904   3.850   9.904  0.3954 -1.3108 -1.4746
  162SOPE   C3818197   3.939   3.660  10.007  0.3021 -0.2287 -0.0916
  162SOPE   H8X18198   3.870   3.697  10.086  1.4678 -0.5875  1.1517
  162SOPE   H8Y18199   4.020   3.599  10.053 -0.5587 -1.5784 -0.2995
  162SOPE   C3918200   3.868   3.558   9.908 -0.3504 -0.4700 -0.7088
  162SOPE   H9X18201   3.820   3.479   9.969  2.3007 -1.3059  0.4269
  162SOPE   H9Y18202   3.940   3.496   9.851  0.5603 -1.2300  1.1776
  162SOPE  C31018203   3.772   3.641   9.817 -0.1523  0.8199 -0.1713
  162SOPE  H10X18204   3.716   3.570   9.752 -0.6935  0.4856  0.6496
  162SOPE  H10Y18205   3.833   3.706   9.751 -3.6433  1.2776 -3.3213
  162SOPE  C31118206   3.664   3.720   9.890 -0.0783 -0.2116  0.4705
  162SOPE  H11X18207   3.726   3.774   9.966  3.9914 -4.2406  0.4486
  162SOPE  H11Y18208   3.594   3.655   9.947 -1.5735  3.3385  3.0940
  162SOPE  C31218209   3.595   3.824   9.801 -0.4386 -0.3280  0.2290
  162SOPE  H12X18210   3.525   3.785   9.724 -0.2087  0.5012 -0.4164
  162SOPE  H12Y18211   3.673   3.878   9.744  0.7206  1.0914  3.0101
  162SOPE  C31318212   3.524   3.939   9.877  0.2519  0.0235 -0.6464
  162SOPE  H13X18213   3.470   3.888   9.958  1.8559 -0.4678  0.1567
  162SOPE  H13Y18214   3.453   3.993   9.810 -0.6245 -3.0740 -2.4415
  162SOPE  C31418215   3.622   4.029   9.942 -0.1450 -0.0971  0.5550
  162SOPE  H14X18216   3.685   4.078   9.865 -2.0904  0.8557 -0.5164
  162SOPE  H14Y18217   3.687   3.971  10.011  1.2253  1.4528  0.6275
  162SOPE  C31518218   3.558   4.122  10.046 -0.6229  1.1530 -0.0608
  162SOPE  H15X18219   3.531   4.062  10.136 -0.3219  0.7352 -0.2455
  162SOPE  H15Y18220   3.458   4.150  10.006 -0.0918  2.0847 -0.7778
  162SOPE  C31618221   3.636   4.251  10.081  0.2052 -0.1550  0.7111
  162SOPE  H16X18222   3.556   4.313  10.127 -0.6127 -0.3079 -0.4842
  162SOPE  H16Y18223   3.663   4.303   9.987  2.7250 -0.5225  1.1451
  162SOPE  C31718224   3.758   4.237  10.176  0.0251 -0.2612  0.1174
  162SOPE  H17X18225   3.841   4.189  10.121 -1.0036 -0.9413 -0.9030
  162SOPE  H17Y18226   3.721   4.170  10.256  0.2356  0.5173  0.8752
  162SOPE  C31818227   3.807   4.374  10.229 -0.2292 -0.2829 -0.5573
  162SOPE  H18X18228   3.897   4.367  10.294  1.5450 -2.5342 -3.0583
  162SOPE  H18Y18229   3.727   4.421  10.290 -0.9140 -1.6843 -0.3279
  162SOPE  H18Z18230   3.836   4.441  10.146  1.1164 -0.3791 -0.1816
  163SOPE     N18231   4.936   1.247  11.078  0.4075  0.0644  0.1569
  163SOPE   HN118232   5.000   1.221  11.000  1.3288 -0.4331  1.0664
  163SOPE   HN218233   5.000   1.284  11.151  0.6446  1.8459 -0.8900
  163SOPE   HN318234   4.880   1.170  11.119  0.0638  1.2041  1.9287
  163SOPE   C1218235   4.844   1.355  11.036 -0.0798  0.2497  0.0819
  163SOPE  H12A18236   4.787   1.372  11.130  2.7744  0.5170  1.8709
  163SOPE  H12B18237   4.777   1.316  10.956  0.6863  0.2697 -0.5911
  163SOPE   C1118238   4.922   1.483  10.996  0.1410  0.2567  0.5749
  163SOPE  H11A18239   4.851   1.566  10.978  1.2419  1.1351  0.1595
  163SOPE  H11B18240   4.962   1.453  10.897 -1.2729  0.1122  0.0295
  163SOPE     P18241   5.098   1.656  11.090  0.0861  0.0720 -0.0697
  163SOPE   O1318242   5.222   1.649  11.178  0.5808 -0.2845  0.2202
  163SOPE   O1418243   5.003   1.765  11.110 -0.6053  0.6741  0.1163
  163SOPE   O1218244   5.019   1.518  11.092 -0.0633  0.0639 -0.4950
  163SOPE   O1118245   5.153   1.664  10.948  0.6847  0.4700 -0.2146
  163SOPE    C118246   5.252   1.585  10.885  0.0851 -0.1590 -0.4340
  163SOPE    HA18247   5.238   1.476  10.904 -2.8714 -0.4408 -3.1964
  163SOPE    HB18248   5.347   1.623  10.926 -0.6107  1.6965 -0.4304
  163SOPE    C218249   5.238   1.607  10.736 -0.1799  0.8744  0.2087
  163SOPE    HS18250   5.255   1.715  10.714 -1.2808  1.1853  0.8018
  163SOPE   O2118251   5.103   1.570  10.686 -0.0254  0.6159  0.1812
  163SOPE   C2118252   5.018   1.669  10.685  0.0644 -0.2945 -0.4905
  163SOPE   O2218253   5.036   1.784  10.715  0.0722  0.1333 -0.6310
  163SOPE   C2218254   4.884   1.617  10.628  0.2410 -0.1332  0.0236
  163SOPE   H2R18255   4.810   1.624  10.711 -0.6277 -1.1560 -0.6311
  163SOPE   H2S18256   4.899   1.507  10.615  1.7100 -0.2062  1.9350
  163SOPE    C318257   5.341   1.529  10.655 -0.5687 -0.2325  1.0325
  163SOPE    HX18258   5.353   1.426  10.693 -2.0886 -1.4214 -1.5073
  163SOPE    HY18259   5.440   1.578  10.667 -1.3539  2.3220 -1.6478
  163SOPE   O3118260   5.304   1.523  10.510  0.2640  0.6583 -0.2351
  163SOPE   C3118261   5.402   1.521  10.419 -0.4730 -0.2833 -1.1227
  163SOPE   O3218262   5.522   1.524  10.445 -0.0625  0.4409  0.2260
  163SOPE   C3218263   5.348   1.496  10.280  0.0451 -0.9946  0.1323
  163SOPE   H2X18264   5.425   1.486  10.201 -1.4445 -1.8450 -1.2893
  163SOPE   H2Y18265   5.263   1.564  10.260  0.0240 -0.9105  0.4933
  163SOPE   C2318266   4.825   1.696  10.505 -0.5192 -0.8132 -0.9360
  163SOPE   H3R18267   4.801   1.803  10.522  1.2923 -0.5696  0.3392
  163SOPE   H3S18268   4.730   1.642  10.481 -1.2436  0.6731 -1.5342
  163SOPE   C2418269   4.915   1.674  10.378 -0.3016 -0.1002  0.0124
  163SOPE   H4R18270   5.006   1.738  10.391  0.1496 -0.6893 -0.1967
  163SOPE   H4S18271   4.934   1.566  10.359  1.4673  0.3682 -1.1617
  163SOPE   C2518272   4.828   1.716  10.256 -0.2565 -0.1559  0.7808
  163SOPE   H5R18273   4.742   1.646  10.249 -0.6209  0.4120 -1.1693
  163SOPE   H5S18274   4.779   1.813  10.278  3.5199  2.0893  0.2106
  163SOPE   C2618275   4.903   1.738  10.121 -0.3720 -0.3136 -0.5573
  163SOPE   H6R18276   4.965   1.830  10.124 -1.4926  0.4434 -0.3013
  163SOPE   H6S18277   4.984   1.662  10.108  0.1871  0.2424 -0.3650
  163SOPE   C2718278   4.817   1.734   9.995  0.3701  0.0494  0.1416
  163SOPE   H7R18279   4.744   1.654  10.015 -1.2552  2.0219  2.8211
  163SOPE   H7S18280   4.754   1.825   9.997  1.1719  0.6133  0.5321
  163SOPE   C2818281   4.890   1.710   9.857 -0.3660 -0.1250  0.1577
  163SOPE   H8R18282   4.962   1.627   9.869 -0.0008  0.1869  0.1455
  163SOPE   H8S18283   4.815   1.671   9.784 -0.6072  1.9714 -0.7858
  163SOPE   C2918284   4.975   1.837   9.832  0.4696  0.7390  0.5217
  163SOPE   H9118285   4.994   1.902   9.918 -0.3950 -1.8582  2.8016
  163SOPE  C21018286   5.016   1.873   9.705 -0.6194  0.9063  0.5655
  163SOPE  H10118287   5.061   1.973   9.690  2.6182 -0.5058 -0.1259
  163SOPE  C21118288   4.972   1.798   9.576 -0.2131  0.1503 -0.4929
  163SOPE  H11R18289   4.969   1.862   9.485  0.4093 -0.3837 -0.8961
  163SOPE  H11S18290   4.874   1.750   9.595  0.2110  0.0825  1.8362
  163SOPE  C21218291   5.072   1.689   9.546 -0.3765 -0.0826 -0.8952
  163SOPE  H12R18292   5.026   1.623   9.469  1.0959 -2.2991  0.0064
  163SOPE  H12S18293   5.091   1.624   9.635 -0.8222  2.8018  1.4657
  163SOPE  C21318294   5.206   1.736   9.476  0.1184  0.0833  0.2430
  163SOPE  H13R18295   5.279   1.652   9.488  1.0214  0.9886  1.2713
  163SOPE  H13S18296   5.256   1.815   9.535  2.4295 -2.0573  1.3739
  163SOPE  C21418297   5.192   1.776   9.330 -0.4016 -0.5106  0.1714
  163SOPE  H14R18298   5.114   1.853   9.317 -0.1120 -0.2087  0.2245
  163SOPE  H14S18299   5.154   1.691   9.269  0.9261  1.0092 -3.0182
  163SOPE  C21518300   5.319   1.815   9.259 -0.1900 -0.1795 -0.2561
  163SOPE  H15R18301   5.399   1.738   9.262  1.1268  1.0811 -1.6016
  163SOPE  H15S18302   5.356   1.905   9.311  0.4622 -1.1582  1.0432
  163SOPE  C21618303   5.286   1.868   9.116  1.1502 -0.2568  0.4954
  163SOPE  H16R18304   5.251   1.972   9.134  0.7268 -0.3783  0.3789
  163SOPE  H16S18305   5.196   1.817   9.075 -0.5674  2.8020  0.1074
  163SOPE  C21718306   5.405   1.875   9.024 -0.7410  0.0812  0.5661
  163SOPE  H17R18307   5.444   1.772   9.010 -0.2129  0.5271 -1.6090
  163SOPE  H17S18308   5.486   1.931   9.076 -0.5998 -0.3616  0.8235
  163SOPE  C21818309   5.376   1.937   8.879  0.1865  0.0656  0.0298
  163SOPE  H18R18310   5.318   2.031   8.878 -2.5980 -1.5542 -1.4013
  163SOPE  H18S18311   5.306   1.861   8.839 -2.4299  1.6896  1.2197
  163SOPE  H18T18312   5.478   1.940   8.835  0.4862 -1.9147  0.4662
  163SOPE   C3318313   5.280   1.356  10.270 -0.1949 -0.0985 -0.9201
  163SOPE   H3X18314   5.214   1.342  10.358 -0.6094 -1.6220 -1.4386
  163SOPE   H3Y18315   5.358   1.276  10.271 -0.6672 -0.6044 -1.9902
  163SOPE   C3418316   5.189   1.328  10.150 -0.0638 -0.1091 -0.5395
  163SOPE   H4X18317   5.107   1.402  10.161 -1.6281 -2.0232  1.9532
  163SOPE   H4Y18318   5.154   1.223  10.161 -2.2912  0.3732 -2.1799
  163SOPE   C3518319   5.263   1.345  10.020 -0.2407  0.4681  1.0293
  163SOPE   H5X18320   5.337   1.263  10.006 -0.5251  0.5348 -1.1551
  163SOPE   H5Y18321   5.313   1.444  10.020  0.0061  0.3505  2.1078
  163SOPE   C3618322   5.169   1.332   9.915  0.4096  0.2695 -0.1896
  163SOPE   H6X18323   5.105   1.423   9.907 -0.3252 -0.1752  0.4411
  163SOPE   H6Y18324   5.101   1.245   9.930 -0.2658  0.7135 -0.5861
  163SOPE   C3718325   5.234   1.312   9.782 -0.3405 -1.3991 -0.8451
  163SOPE   H7X18326   5.306   1.227   9.783  0.2392 -0.9235 -1.2063
  163SOPE   H7Y18327   5.280   1.410   9.754 -0.8590 -0.5187  1.2104
  163SOPE   C3818328   5.134   1.285   9.677 -0.1211  0.1141 -0.0745
  163SOPE   H8X18329   5.051   1.358   9.671  0.1779  0.5985  1.3280
  163SOPE   H8Y18330   5.088   1.187   9.699  0.7987 -0.5350 -0.9664
  163SOPE   C3918331   5.208   1.291   9.541  0.4444  0.0712  0.2109
  163SOPE   H9X18332   5.289   1.216   9.536 -0.0171 -0.4514  0.3851
  163SOPE   H9Y18333   5.263   1.384   9.518 -0.2864  0.8958  1.6214
  163SOPE  C31018334   5.100   1.271   9.437  0.3342  0.3579  0.4667
  163SOPE  H10X18335   5.029   1.354   9.454  0.9242  1.1186 -0.6387
  163SOPE  H10Y18336   5.048   1.175   9.452 -0.3672 -0.0207 -3.3444
  163SOPE  C31118337   5.163   1.288   9.298  0.0491 -0.8379 -0.4869
  163SOPE  H11X18338   5.245   1.215   9.280  1.5797  0.2339  1.6924
  163SOPE  H11Y18339   5.209   1.388   9.286 -0.9597 -0.6210 -3.3080
  163SOPE  C31218340   5.061   1.285   9.184 -0.1663 -0.6988 -0.0628
  163SOPE  H12X18341   4.994   1.366   9.220  2.2388  1.0198  0.8200
  163SOPE  H12Y18342   4.999   1.193   9.176 -0.7916 -0.1233 -2.9889
  163SOPE  C31318343   5.120   1.310   9.042 -0.3553  1.1817 -0.3533
  163SOPE  H13X18344   5.035   1.294   8.972 -0.5094 -3.5671  0.5623
  163SOPE  H13Y18345   5.190   1.227   9.019  0.7454  2.1215 -0.4982
  163SOPE  C31418346   5.180   1.448   9.030  0.2887  0.0697  0.5416
  163SOPE  H14X18347   5.282   1.452   9.073  0.0644  0.3738  1.0579
  163SOPE  H14Y18348   5.119   1.510   9.100  0.5268  1.5360 -0.4987
  163SOPE  C31518349   5.176   1.508   8.891 -0.1366  0.0805 -0.6904
  163SOPE  H15X18350   5.209   1.427   8.822  1.3864 -1.0530  1.2433
  163SOPE  H15Y18351   5.251   1.587   8.873 -0.8098  1.0097  0.4594
  163SOPE  C31618352   5.037   1.572   8.862  0.6753  0.4532  0.3194
  163SOPE  H16X18353   5.018   1.652   8.936  1.8172  1.4763 -0.4432
  163SOPE  H16Y18354   4.965   1.488   8.875 -0.4123  1.2571 -0.3336
  163SOPE  C31718355   5.034   1.637   8.726  0.6858 -0.7122  0.2433
  163SOPE  H17X18356   5.096   1.574   8.659  0.2667  1.2806 -2.1783
  163SOPE  H17Y18357   5.086   1.736   8.729 -0.9870  0.1907  1.7581
  163SOPE  C31818358   4.890   1.662   8.667  0.2830 -0.1618  0.4099
  163SOPE  H18X18359   4.915   1.680   8.560  0.6845 -0.1908  0.4972
  163SOPE  H18Y18360   4.846   1.754   8.711  2.6553 -0.0778  2.7993
  163SOPE  H18Z18361   4.827   1.571   8.680 -0.3815  0.1838 -0.2774
  164SOPE     N18362   2.976   1.085  10.986 -0.0581  0.2074 -0.0153
  164SOPE   HN118363   2.983   0.984  11.008 -1.0524  0.0843 -0.2502
  164SOPE   HN218364   2.897   1.101  10.920 -1.2396  0.3008  1.3746
  164SOPE   HN318365   3.060   1.113  10.930 -0.2775 -1.2140 -1.1396
  164SOPE   C1218366   2.971   1.167  11.113 -0.2071  0.1375  0.4213
  164SOPE  H12A18367   3.057   1.142  11.179  1.6480  1.5807 -1.3223
  164SOPE  H12B18368   2.873   1.151  11.162  0.4250  0.5531  1.9040
  164SOPE   C1118369   2.971   1.314  11.075 -0.4930 -0.4424 -0.6349
  164SOPE  H11A18370   2.973   1.361  11.176  1.0335  0.2737 -0.9710
  164SOPE  H11B18371   2.879   1.352  11.024  1.3756  1.9792 -2.4368
  164SOPE     P18372   3.179   1.463  11.023 -0.2980  0.3557 -0.1189
  164SOPE   O1318373   3.267   1.479  10.909 -0.4257 -0.3221  0.5037
  164SOPE   O1418374   3.247   1.426  11.152 -0.5398  0.1746  0.3289
  164SOPE   O1218375   3.082   1.347  10.994 -0.6360  0.5075  0.0948
  164SOPE   O1118376   3.083   1.591  11.036  0.2282  0.0521  0.3729
  164SOPE    C118377   3.055   1.669  10.912  0.3141  0.2388  0.1987
  164SOPE    HA18378   3.136   1.677  10.836  0.9368  1.6072  0.9645
  164SOPE    HB18379   3.026   1.766  10.959 -3.2870 -0.7692  0.3574
  164SOPE    C218380   2.925   1.614  10.845 -0.4245  0.4507  0.9562
  164SOPE    HS18381   2.933   1.504  10.832 -0.1450  0.5638  0.1386
  164SOPE   O2118382   2.905   1.673  10.715  0.1673  0.2248  0.4118
  164SOPE   C2118383   2.967   1.624  10.600 -0.3580  0.4210 -1.0673
  164SOPE   O2218384   3.027   1.517  10.605  0.1360  0.2632  0.1981
  164SOPE   C2218385   2.949   1.716  10.487 -0.2384 -0.4464  0.4894
  164SOPE   H2R18386   3.034   1.787  10.484 -0.2356 -0.4182  1.1975
  164SOPE   H2S18387   2.851   1.769  10.491  0.9917  2.1617 -1.2856
  164SOPE    C318388   2.808   1.639  10.947  0.0926  0.1527  0.1096
  164SOPE    HX18389   2.828   1.603  11.050 -0.1990 -1.5834 -0.4099
  164SOPE    HY18390   2.720   1.582  10.910 -0.3315  1.5325 -1.1465
  164SOPE   O3118391   2.791   1.778  10.957  0.5021  0.1134 -0.4036
  164SOPE   C3118392   2.696   1.828  10.883 -0.1749 -0.0646  0.6868
  164SOPE   O3218393   2.623   1.765  10.809  0.1401 -0.2425  0.1453
  164SOPE   C3218394   2.689   1.978  10.904  0.0356 -0.6248 -0.1071
  164SOPE   H2X18395   2.785   2.028  10.932 -0.2854 -0.8670  1.5178
  164SOPE   H2Y18396   2.617   1.996  10.987 -0.1485  1.5533 -0.6760
  164SOPE   C2318397   2.944   1.633  10.357 -0.0553 -0.3778  0.2773
  164SOPE   H3R18398   2.886   1.539  10.368 -1.2441  0.3493  0.3453
  164SOPE   H3S18399   3.049   1.601  10.338  0.1476  0.8918 -0.9669
  164SOPE   C2418400   2.906   1.727  10.239 -0.1479  0.5083 -0.3407
  164SOPE   H4R18401   2.804   1.765  10.258 -1.0643 -0.9121 -2.1359
  164SOPE   H4S18402   2.982   1.808  10.233  2.0900 -1.3992  0.6611
  164SOPE   C2518403   2.912   1.661  10.104 -0.7915  0.6564 -0.2326
  164SOPE   H5R18404   3.012   1.615  10.090 -0.4055  0.5658  2.2677
  164SOPE   H5S18405   2.850   1.570  10.115  1.1524 -0.6614  0.4965
  164SOPE   C2618406   2.876   1.743   9.985  0.3757  0.1478 -0.8674
  164SOPE   H6R18407   2.767   1.761   9.990  0.0104 -1.1437 -2.9907
  164SOPE   H6S18408   2.927   1.841   9.979  0.3966  0.0994 -1.5545
  164SOPE   C2718409   2.891   1.664   9.863  0.5243  0.2253 -0.0249
  164SOPE   H7R18410   2.863   1.558   9.882 -0.1416  0.9686  4.0767
  164SOPE   H7S18411   2.824   1.708   9.786  0.6794  0.9983  0.2665
  164SOPE   C2818412   3.039   1.652   9.811 -0.0910 -0.4090  0.7300
  164SOPE   H8R18413   3.109   1.631   9.895 -0.5233 -0.7243  1.0167
  164SOPE   H8S18414   3.046   1.561   9.748 -1.5715 -0.0023 -0.0844
  164SOPE   C2918415   3.083   1.775   9.731  0.4797 -0.0634 -0.3881
  164SOPE   H9118416   3.043   1.862   9.784 -2.6215 -1.6087  0.0206
  164SOPE  C21018417   3.150   1.784   9.612  0.0196 -0.6350  0.2375
  164SOPE  H10118418   3.145   1.875   9.551 -1.6677 -2.2759 -2.2910
  164SOPE  C21118419   3.196   1.660   9.534  0.3086  0.1273 -0.1578
  164SOPE  H11R18420   3.206   1.578   9.608 -1.9442  0.4033  0.5201
  164SOPE  H11S18421   3.296   1.672   9.486 -0.3435  1.3877 -1.2711
  164SOPE  C21218422   3.112   1.612   9.410  0.4798  0.3789 -0.1138
  164SOPE  H12R18423   3.007   1.605   9.446  0.5478  0.2803  0.0701
  164SOPE  H12S18424   3.144   1.513   9.372 -1.1494 -0.6998  1.1846
  164SOPE  C21318425   3.108   1.715   9.287  0.2450 -0.2252 -0.8365
  164SOPE  H13R18426   3.150   1.816   9.308  0.0270 -0.4681  0.8954
  164SOPE  H13S18427   3.005   1.736   9.251  0.5159  0.4821 -1.2183
  164SOPE  C21418428   3.196   1.672   9.162 -0.6350  0.1405 -0.7037
  164SOPE  H14R18429   3.186   1.562   9.144  2.4825 -0.6557  1.7099
  164SOPE  H14S18430   3.304   1.665   9.187 -0.8199  0.4264  0.2035
  164SOPE  C21518431   3.166   1.734   9.028 -0.0002 -0.6679  0.2930
  164SOPE  H15R18432   3.056   1.740   9.012  0.3859  0.7085 -2.3286
  164SOPE  H15S18433   3.207   1.663   8.953  0.0309  0.1052 -0.4241
  164SOPE  C21618434   3.244   1.864   8.990 -0.2424  0.1787 -0.7295
  164SOPE  H16R18435   3.349   1.832   9.005 -0.2937  0.0646 -0.6168
  164SOPE  H16S18436   3.219   1.960   9.041  0.8246  1.5103 -2.5833
  164SOPE  C21718437   3.224   1.900   8.844  0.0930 -0.3683  0.1549
  164SOPE  H17R18438   3.140   1.972   8.833 -0.4089 -1.2745 -2.8696
  164SOPE  H17S18439   3.197   1.804   8.793  0.8122 -0.1568 -0.6487
  164SOPE  C21818440   3.353   1.958   8.779 -0.0366  0.1410 -0.3558
  164SOPE  H18R18441   3.372   2.056   8.829  1.2632 -1.0241  1.5534
  164SOPE  H18S18442   3.347   1.970   8.668 -0.3540  0.8959 -0.2623
  164SOPE  H18T18443   3.441   1.900   8.814 -0.0228 -0.0805 -0.7477
  164SOPE   C3318444   2.623   2.043  10.773  0.0397  0.3331 -0.3511
  164SOPE   H3X18445   2.579   2.138  10.811  1.6657  0.4082  1.4824
  164SOPE   H3Y18446   2.532   1.980  10.757 -0.7733  0.9226  1.5864
  164SOPE   C3418447   2.721   2.055  10.665 -0.0003  0.0612  0.1828
  164SOPE   H4X18448   2.804   1.982  10.680  0.6661  1.1950  2.4557
  164SOPE   H4Y18449   2.772   2.153  10.656  2.4938 -1.3378 -2.8294
  164SOPE   C3518450   2.657   2.019  10.530  0.2784 -0.5073 -0.3019
  164SOPE   H5X18451   2.579   1.940  10.532 -1.3160  0.9423 -1.9445
  164SOPE   H5Y18452   2.748   1.984  10.477  0.3441  0.6730 -0.9980
  164SOPE   C3618453   2.589   2.135  10.450  0.0097 -0.3460 -0.3039
  164SOPE   H6X18454   2.663   2.216  10.433 -2.0944  1.0709 -3.8818
  164SOPE   H6Y18455   2.504   2.166  10.515 -0.7050 -4.1509  0.8786
  164SOPE   C3718456   2.546   2.100  10.311 -0.3954  0.1070  0.0057
  164SOPE   H7X18457   2.464   2.164  10.273 -0.6741 -0.5051 -0.4376
  164SOPE   H7Y18458   2.522   1.993  10.297 -0.2275  0.3170 -2.3621
  164SOPE   C3818459   2.654   2.109  10.207 -0.5134 -0.0937  0.8703
  164SOPE   H8X18460   2.716   2.018  10.217  0.1622  0.1556 -0.6713
  164SOPE   H8Y18461   2.715   2.202  10.216 -0.1141 -0.1243 -1.0528
  164SOPE   C3918462   2.599   2.092  10.063  0.9090 -0.0890 -0.7239
  164SOPE   H9X18463   2.504   2.035  10.071  1.3344 -0.9918 -1.8579
  164SOPE   H9Y18464   2.671   2.033  10.003  2.5848  2.0994 -0.9726
  164SOPE  C31018465   2.584   2.225   9.991 -0.6955 -0.2611 -0.1400
  164SOPE  H10X18466   2.685   2.266   9.969 -0.0197 -1.6651  0.2550
  164SOPE  H10Y18467   2.534   2.300  10.057  0.2690  1.3554 -1.1723
  164SOPE  C31118468   2.519   2.198   9.856 -0.6919  0.0923 -0.1001
  164SOPE  H11X18469   2.421   2.148   9.873  0.3958 -2.2903 -0.3896
  164SOPE  H11Y18470   2.580   2.120   9.805  2.1588 -0.5233  3.7291
  164SOPE  C31218471   2.518   2.322   9.768  0.4786 -1.1896  0.0316
  164SOPE  H12X18472   2.613   2.374   9.792  0.4570 -1.1267 -0.0214
  164SOPE  H12Y18473   2.435   2.385   9.807  0.5267 -2.2136  1.9352
  164SOPE  C31318474   2.500   2.297   9.614 -0.3970  1.2525  0.3453
  164SOPE  H13X18475   2.592   2.244   9.582 -1.0436  0.9828 -1.1039
  164SOPE  H13Y18476   2.497   2.396   9.564 -0.6012  0.7382 -0.6694
  164SOPE  C31418477   2.377   2.209   9.580  0.4069 -0.3742  0.2938
  164SOPE  H14X18478   2.292   2.273   9.611 -1.8568 -2.6943 -0.7288
  164SOPE  H14Y18479   2.381   2.105   9.620  3.1727 -0.8927 -1.0380
  164SOPE  C31518480   2.358   2.197   9.428 -0.2298  0.1207  0.7691
  164SOPE  H15X18481   2.430   2.125   9.383  1.6666  0.6011  2.8656
  164SOPE  H15Y18482   2.382   2.292   9.376 -2.0313 -0.2398 -0.8257
  164SOPE  C31618483   2.219   2.158   9.390 -0.4926 -0.2787  0.4393
  164SOPE  H16X18484   2.180   2.241   9.328 -1.0991  0.3708  1.6537
  164SOPE  H16Y18485   2.152   2.152   9.478 -1.5107 -2.6482 -0.4015
  164SOPE  C31718486   2.204   2.029   9.312 -0.6573  0.7282 -0.5168
  164SOPE  H17X18487   2.261   2.038   9.217 -0.0950  2.6924 -0.0367
  164SOPE  H17Y18488   2.098   2.020   9.279 -1.3028  2.1625  1.0271
  164SOPE  C31818489   2.249   1.901   9.383 -0.0092 -0.2610  0.2257
  164SOPE  H18X18490   2.213   1.808   9.335  1.3770 -0.6297 -0.1518
  164SOPE  H18Y18491   2.224   1.897   9.491  0.0487 -3.4933  0.2160
  164SOPE  H18Z18492   2.357   1.877   9.386 -0.0127 -0.3303 -0.1311
  165SOPE     N18493   1.475   0.418  10.800  0.1845  0.2788 -0.3588
  165SOPE   HN118494   1.485   0.512  10.755 -0.5647  1.1884  1.2698
  165SOPE   HN218495   1.568   0.381  10.826 -0.6238 -1.8552 -0.3241
  165SOPE   HN318496   1.431   0.355  10.730 -1.6303  0.5197  0.5026
  165SOPE   C1218497   1.388   0.441  10.920 -0.9693 -0.2193 -0.5016
  165SOPE  H12A18498   1.350   0.343  10.958 -2.6415  0.9483  1.0281
  165SOPE  H12B18499   1.294   0.489  10.883 -0.7556 -0.0906 -0.8781
  165SOPE   C1118500   1.459   0.513  11.032 -0.3387  0.6179  0.2858
  165SOPE  H11A18501   1.548   0.453  11.061  0.5821  0.4833 -2.5038
  165SOPE  H11B18502   1.395   0.531  11.121  0.0629 -2.0252  1.2123
  165SOPE     P18503   1.554   0.749  11.095 -0.2489  0.6926 -0.1619
  165SOPE   O1318504   1.632   0.680  11.199  0.4838 -0.2014 -0.0830
  165SOPE   O1418505   1.425   0.807  11.141 -0.1134 -0.0857  0.0511
  165SOPE   O1218506   1.518   0.638  10.987  0.0137  0.3832 -0.0223
  165SOPE   O1118507   1.635   0.849  10.996  0.1229  0.0890  0.3413
  165SOPE    C118508   1.658   0.809  10.859 -0.1559  0.2680 -0.1357
  165SOPE    HA18509   1.700   0.707  10.844  2.8880  1.2715  0.8543
  165SOPE    HB18510   1.749   0.866  10.831 -0.9027  0.7330 -1.7431
  165SOPE    C218511   1.546   0.861  10.762  0.3054 -0.0750 -0.5530
  165SOPE    HS18512   1.451   0.805  10.774  0.8328 -1.0572 -0.8698
  165SOPE   O2118513   1.595   0.863  10.627  0.0519  0.0127  0.1678
  165SOPE   C2118514   1.584   0.741  10.560  0.2613 -0.1142 -0.7796
  165SOPE   O2218515   1.530   0.640  10.607 -0.3009  0.0729  0.4015
  165SOPE   C2218516   1.661   0.752  10.430  0.4384 -0.4522 -0.1070
  165SOPE   H2R18517   1.659   0.651  10.384  0.9469 -1.3490  1.7234
  165SOPE   H2S18518   1.768   0.775  10.447  1.3929 -2.6906 -2.4189
  165SOPE    C318519   1.516   1.001  10.795 -0.3568 -0.5396 -0.3410
  165SOPE    HX18520   1.608   1.064  10.791 -1.4241  1.0459 -0.5979
  165SOPE    HY18521   1.460   1.007  10.891 -1.9070 -1.5837 -1.1407
  165SOPE   O3118522   1.434   1.058  10.691 -0.0427  0.1717 -0.4866
  165SOPE   C3118523   1.365   1.167  10.727 -0.5096  0.6539 -0.3857
  165SOPE   O3218524   1.361   1.225  10.833 -0.6004 -0.1018 -0.1222
  165SOPE   C3218525   1.281   1.213  10.603 -0.4114  0.1154 -0.4015
  165SOPE   H2X18526   1.183   1.257  10.630 -0.1682  1.2408 -1.2729
  165SOPE   H2Y18527   1.263   1.116  10.551  0.2715 -1.3458  1.9533
  165SOPE   C2318528   1.613   0.854  10.331  0.6268  0.0821 -0.2806
  165SOPE   H3R18529   1.589   0.952  10.379  1.1366  0.3991 -0.6609
  165SOPE   H3S18530   1.515   0.821  10.289  0.5116  1.6214 -1.3167
  165SOPE   C2418531   1.710   0.882  10.223  0.1949  0.2066 -0.4488
  165SOPE   H4R18532   1.796   0.922  10.280  0.0624 -0.5940  0.3214
  165SOPE   H4S18533   1.745   0.786  10.179  0.1648  0.8021 -1.8420
  165SOPE   C2518534   1.669   0.984  10.113  0.2232 -0.7026 -0.1537
  165SOPE   H5R18535   1.560   1.003  10.126  0.2364  0.1864 -1.2490
  165SOPE   H5S18536   1.725   1.075  10.141  1.5095 -2.6092  4.5699
  165SOPE   C2618537   1.711   0.930   9.976  0.5874 -0.1264  0.1730
  165SOPE   H6R18538   1.810   0.971   9.947  0.3947 -0.3738 -0.8735
  165SOPE   H6S18539   1.727   0.820   9.979  0.4129 -0.2417 -1.8047
  165SOPE   C2718540   1.604   0.955   9.866 -0.4717  0.4327 -0.1285
  165SOPE   H7R18541   1.613   0.892   9.776 -0.5147 -0.5077  0.5170
  165SOPE   H7S18542   1.509   0.922   9.913 -0.4914  0.6127 -0.0374
  165SOPE   C2818543   1.595   1.104   9.821 -0.6872 -0.0945  0.2234
  165SOPE   H8R18544   1.488   1.113   9.793 -0.0571  0.0948 -2.3495
  165SOPE   H8S18545   1.587   1.162   9.915 -0.5716 -0.4527  0.4574
  165SOPE   C2918546   1.686   1.161   9.711  0.7295 -0.9714 -0.1321
  165SOPE   H9118547   1.776   1.206   9.756  1.0069  0.7523 -2.2112
  165SOPE  C21018548   1.664   1.187   9.580 -0.1189 -0.3699  0.2808
  165SOPE  H10118549   1.743   1.233   9.518 -1.4886 -0.1139 -1.3430
  165SOPE  C21118550   1.538   1.168   9.498 -0.7446 -0.6867 -0.1171
  165SOPE  H11R18551   1.466   1.103   9.553  0.9993 -1.2261  1.6355
  165SOPE  H11S18552   1.567   1.100   9.416  0.7396 -1.0716  0.6851
  165SOPE  C21218553   1.480   1.305   9.441 -0.2363  0.3537 -0.7683
  165SOPE  H12R18554   1.451   1.362   9.532  0.3193 -0.0683 -0.3149
  165SOPE  H12S18555   1.390   1.289   9.378 -0.7422  1.5666 -0.3877
  165SOPE  C21318556   1.578   1.409   9.370 -0.5123  1.1228  0.3421
  165SOPE  H13R18557   1.650   1.449   9.445  0.0473  0.0734  0.3868
  165SOPE  H13S18558   1.506   1.486   9.335 -1.4694 -0.2537 -0.8249
  165SOPE  C21418559   1.647   1.355   9.242  0.0415  0.6259  0.2564
  165SOPE  H14R18560   1.567   1.301   9.187  0.2685  0.3969  0.1500
  165SOPE  H14S18561   1.728   1.286   9.274  0.7366  2.3638  2.4918
  165SOPE  C21518562   1.709   1.456   9.156 -0.3245 -0.3053  0.3011
  165SOPE  H15R18563   1.779   1.518   9.216 -0.4727 -0.8749  1.0844
  165SOPE  H15S18564   1.625   1.523   9.129  0.8612  0.7620 -0.8535
  165SOPE  C21618565   1.766   1.405   9.026 -0.5508  0.4317 -0.4910
  165SOPE  H16R18566   1.729   1.304   8.998  1.1512  0.0518 -1.4507
  165SOPE  H16S18567   1.876   1.409   9.034 -0.4421  3.2497 -2.1220
  165SOPE  C21718568   1.725   1.500   8.911 -0.1281 -0.6989 -0.1340
  165SOPE  H17R18569   1.754   1.601   8.946 -0.9189 -1.1593  2.0213
  165SOPE  H17S18570   1.616   1.488   8.892 -0.2726  1.6970 -1.1326
  165SOPE  C21818571   1.790   1.481   8.773  0.7696  0.7832 -0.2445
  165SOPE  H18R18572   1.744   1.543   8.692 -0.6718  1.6780  1.2149
  165SOPE  H18S18573   1.781   1.379   8.728 -1.1598  0.8008  0.0382
  165SOPE  H18T18574   1.897   1.509   8.784  0.9794 -0.1321  0.1412
  165SOPE   C3318575   1.363   1.305  10.516 -1.5170 -0.1485  0.2948
  165SOPE   H3X18576   1.453   1.248  10.484  0.5777  1.9780  1.9861
  165SOPE   H3Y18577   1.389   1.399  10.570  0.0467  0.8257 -1.9970
  165SOPE   C3418578   1.273   1.354  10.397  0.3492  0.4050 -0.6444
  165SOPE   H4X18579   1.200   1.429  10.435  0.5554  0.0493  0.5019
  165SOPE   H4Y18580   1.222   1.259  10.368 -2.4542  1.1916  1.2189
  165SOPE   C3518581   1.356   1.402  10.277 -0.1156 -0.4571 -0.5551
  165SOPE   H5X18582   1.419   1.312  10.259 -0.2777 -0.9285  1.0591
  165SOPE   H5Y18583   1.414   1.490  10.312  0.7369 -0.4548 -1.9251
  165SOPE   C3618584   1.281   1.435  10.152 -0.3263  0.2804 -0.0127
  165SOPE   H6X18585   1.228   1.528  10.180  1.4680  1.3875 -0.1043
  165SOPE   H6Y18586   1.210   1.355  10.124  0.5132  0.4350 -2.9087
  165SOPE   C3718587   1.361   1.468  10.028 -0.5888  0.1676  0.1400
  165SOPE   H7X18588   1.411   1.384   9.975 -0.6552  0.0239  0.3051
  165SOPE   H7Y18589   1.453   1.528  10.043  0.4967 -1.1803 -0.8481
  165SOPE   C3818590   1.272   1.539   9.923 -0.2008 -0.4125  0.3278
  165SOPE   H8X18591   1.254   1.644   9.957  1.1668 -0.2838  0.7015
  165SOPE   H8Y18592   1.178   1.481   9.909 -0.3181  0.1581 -1.4764
  165SOPE   C3918593   1.324   1.536   9.781 -0.0974  0.1516  0.7080
  165SOPE   H9X18594   1.325   1.432   9.743 -2.3639  0.4456 -0.3126
  165SOPE   H9Y18595   1.427   1.576   9.781  0.5000 -1.1814 -1.6984
  165SOPE  C31018596   1.237   1.623   9.694  0.0444 -0.0160 -0.5076
  165SOPE  H10X18597   1.269   1.728   9.712 -0.3645  0.3077 -1.6287
  165SOPE  H10Y18598   1.131   1.603   9.724  0.3424 -1.9826 -0.6444
  165SOPE  C31118599   1.245   1.586   9.544 -0.6841  0.2818 -0.5494
  165SOPE  H11X18600   1.196   1.486   9.537 -0.8780  0.4176 -1.1926
  165SOPE  H11Y18601   1.352   1.576   9.519 -0.3881  4.7504 -2.0454
  165SOPE  C31218602   1.176   1.675   9.439 -0.5993  0.1572  0.0801
  165SOPE  H12X18603   1.239   1.766   9.424  0.9920 -1.0465 -0.8516
  165SOPE  H12Y18604   1.074   1.703   9.473 -0.0621  0.4462  1.5555
  165SOPE  C31318605   1.154   1.622   9.296 -0.1003  0.1119 -0.0806
  165SOPE  H13X18606   1.048   1.602   9.271 -0.3913  3.9627 -2.7707
  165SOPE  H13Y18607   1.214   1.528   9.294  1.4239  0.9932  1.3252
  165SOPE  C31418608   1.211   1.720   9.190 -0.5010  0.1998 -0.1374
  165SOPE  H14X18609   1.321   1.732   9.185 -0.1064 -2.5488  0.5944
  165SOPE  H14Y18610   1.164   1.820   9.199 -0.0271  0.4804 -0.7229
  165SOPE  C31518611   1.179   1.679   9.042 -0.3504 -0.4706  0.1399
  165SOPE  H15X18612   1.070   1.700   9.035 -0.2520  0.0586  0.1938
  165SOPE  H15Y18613   1.197   1.570   9.028 -2.0259 -0.3435 -5.9924
  165SOPE  C31618614   1.243   1.754   8.927  0.5290 -0.1200 -0.3767
  165SOPE  H16X18615   1.240   1.864   8.944  0.7480  0.0740 -1.5480
  165SOPE  H16Y18616   1.173   1.730   8.844  1.0168 -1.6555 -0.3808
  165SOPE  C31718617   1.393   1.720   8.906 -0.0740  0.3863 -0.4064
  165SOPE  H17X18618   1.398   1.613   8.875  1.2679  0.0189  0.9926
  165SOPE  H17Y18619   1.444   1.725   9.004 -1.0682 -1.5224  0.2654
  165SOPE  C31818620   1.460   1.811   8.799 -0.9917  0.1262  0.5504
  165SOPE  H18X18621   1.463   1.918   8.828  0.7944 -0.2362  1.9031
  165SOPE  H18Y18622   1.396   1.802   8.709 -1.6364  0.0978  1.0089
  165SOPE  H18Z18623   1.563   1.778   8.771 -0.5071  2.4323 -0.7052
  166SOPE     N18624   3.807   1.029  11.248 -0.0258  0.5254  0.3419
  166SOPE   HN118625   3.819   0.928  11.227  3.5863  0.5397  1.5443
  166SOPE   HN218626   3.888   1.056  11.308 -1.1546  3.6747  0.6326
  166SOPE   HN318627   3.730   1.036  11.317 -0.6729 -0.4929 -0.2643
  166SOPE   C1218628   3.791   1.113  11.121  0.2546  0.4551 -0.0678
  166SOPE  H12A18629   3.692   1.162  11.117  0.6467  1.2393 -0.4857
  166SOPE  H12B18630   3.801   1.045  11.034  2.0671  1.3886 -0.6533
  166SOPE   C1118631   3.902   1.213  11.097 -0.2539 -0.3526  0.0682
  166SOPE  H11A18632   3.903   1.270  11.192 -2.9781  1.2769 -0.7761
  166SOPE  H11B18633   3.886   1.268  11.002 -0.0458  0.5301  0.5405
  166SOPE     P18634   4.164   1.204  11.097 -0.0812  0.1062 -0.3677
  166SOPE   O1318635   4.218   1.179  11.231  0.1273 -0.6767 -0.6774
  166SOPE   O1418636   4.160   1.346  11.056 -0.1810  0.1758 -0.1568
  166SOPE   O1218637   4.020   1.141  11.092 -0.2290 -0.4054  0.2438
  166SOPE   O1118638   4.240   1.118  10.986  0.7924 -0.0807 -0.4451
  166SOPE    C118639   4.198   1.094  10.851 -0.6177 -0.0658  0.3713
  166SOPE    HA18640   4.091   1.073  10.831 -0.8038  1.6136 -0.5807
  166SOPE    HB18641   4.270   1.015  10.820 -0.7565 -0.3850  0.8497
  166SOPE    C218642   4.226   1.212  10.753  0.4497 -0.1472 -1.1009
  166SOPE    HS18643   4.328   1.250  10.776  0.2853  0.6992 -1.6964
  166SOPE   O2118644   4.131   1.318  10.759  0.7853 -0.4462  0.1531
  166SOPE   C2118645   4.174   1.439  10.762 -0.8472 -0.1054  0.0497
  166SOPE   O2218646   4.287   1.474  10.730  0.1487  0.8616  0.6112
  166SOPE   C2218647   4.063   1.537  10.787  0.6758  0.1581  0.3332
  166SOPE   H2R18648   4.076   1.579  10.889 -0.9089 -0.8716  1.0019
  166SOPE   H2S18649   3.962   1.491  10.776  0.9236 -0.3706  0.2328
  166SOPE    C318650   4.232   1.160  10.606  0.4412  0.9557 -0.3864
  166SOPE    HX18651   4.132   1.115  10.592 -0.5916  3.2781 -0.9581
  166SOPE    HY18652   4.315   1.087  10.592  1.0411  1.7465 -1.1158
  166SOPE   O3118653   4.241   1.262  10.504 -0.2254 -0.4364  0.1712
  166SOPE   C3118654   4.368   1.293  10.468  0.3642 -0.7435  0.1005
  166SOPE   O3218655   4.469   1.244  10.511  0.6371  0.0784 -0.2754
  166SOPE   C3218656   4.365   1.394  10.359  0.9295  0.4644  0.6996
  166SOPE   H2X18657   4.461   1.406  10.305 -0.4270 -1.8973 -2.5669
  166SOPE   H2Y18658   4.342   1.498  10.390 -1.4515  0.2367 -0.1106
  166SOPE   C2318659   4.065   1.661  10.691  0.3753 -0.2648  0.5904
  166SOPE   H3R18660   4.154   1.723  10.715  1.2831 -2.3114  3.0555
  166SOPE   H3S18661   3.969   1.708  10.720 -0.6322 -2.6238  1.3888
  166SOPE   C2418662   4.061   1.622  10.538  0.1954 -0.2610 -0.2869
  166SOPE   H4R18663   4.164   1.582  10.522  0.7350 -0.4787  2.9125
  166SOPE   H4S18664   3.985   1.542  10.527  0.7974 -0.6346 -2.1004
  166SOPE   C2518665   4.022   1.741  10.448 -0.5170 -0.1934  0.2629
  166SOPE   H5R18666   3.916   1.769  10.466  0.1381  1.8621  1.3010
  166SOPE   H5S18667   4.083   1.829  10.480  0.7109 -0.0946 -2.1408
  166SOPE   C2618668   4.041   1.708  10.303  0.2657  0.3895  0.1618
  166SOPE   H6R18669   4.146   1.679  10.286 -0.1466 -1.4172  0.5294
  166SOPE   H6S18670   3.969   1.625  10.291 -1.5958  1.7515  1.2833
  166SOPE   C2718671   3.997   1.823  10.214 -0.1518 -0.4762  0.0917
  166SOPE   H7R18672   3.893   1.851  10.245 -0.3573 -1.2133  0.0720
  166SOPE   H7S18673   4.054   1.917  10.228  1.3261 -1.2092 -0.8624
  166SOPE   C2818674   4.004   1.790  10.062  0.0774  0.4249  0.2811
  166SOPE   H8R18675   4.105   1.762  10.025 -0.0138 -0.9353  1.0196
  166SOPE   H8S18676   3.941   1.698  10.056  0.5208  0.0467  1.2858
  166SOPE   C2918677   3.951   1.904   9.978  0.8410  0.3160  0.3614
  166SOPE   H9118678   3.873   1.959  10.033  1.5568 -0.0176  1.7478
  166SOPE  C21018679   3.976   1.937   9.846 -0.5511 -0.3590  0.1836
  166SOPE  H10118680   3.916   2.016   9.800 -2.7893 -2.2725 -0.4157
  166SOPE  C21118681   4.080   1.865   9.763 -0.3486  0.3781 -0.1257
  166SOPE  H11R18682   4.094   1.759   9.794  1.2598  0.2235 -1.2612
  166SOPE  H11S18683   4.169   1.924   9.793  0.3214 -1.6377  2.1739
  166SOPE  C21218684   4.062   1.877   9.607 -0.5369  0.3671 -0.2300
  166SOPE  H12R18685   3.977   1.814   9.572 -1.3753  1.0185  0.5749
  166SOPE  H12S18686   4.154   1.835   9.560 -1.3116 -1.8332  0.0854
  166SOPE  C21318687   4.035   2.016   9.546  0.5166  0.1610 -0.9162
  166SOPE  H13R18688   4.120   2.079   9.579 -1.1793  1.0800  2.1446
  166SOPE  H13S18689   3.945   2.057   9.598  1.3352  0.0022  0.7024
  166SOPE  C21418690   4.020   2.016   9.396 -0.4289 -0.0135 -0.0661
  166SOPE  H14R18691   3.990   2.114   9.352 -0.8965  0.5068  1.3457
  166SOPE  H14S18692   3.944   1.943   9.364 -2.0680  1.3851  0.4785
  166SOPE  C21518693   4.153   1.974   9.329  0.5914  0.1576 -0.1784
  166SOPE  H15R18694   4.174   1.866   9.340  0.1456  0.1310  0.5030
  166SOPE  H15S18695   4.230   2.047   9.363 -0.3385  1.6139 -1.0476
  166SOPE  C21618696   4.158   2.011   9.178  0.3612 -0.0233  0.4450
  166SOPE  H16R18697   4.263   2.004   9.141  0.7727  1.8912  1.1354
  166SOPE  H16S18698   4.139   2.120   9.162  1.1857  0.3176  1.6767
  166SOPE  C21718699   4.068   1.918   9.089 -0.3988 -0.3457  0.2942
  166SOPE  H17R18700   3.964   1.903   9.127 -0.8417 -1.3557 -1.2341
  166SOPE  H17S18701   4.115   1.817   9.088  0.8455  0.2158 -1.1656
  166SOPE  C21818702   4.066   1.968   8.945  0.1956  0.2757 -0.3273
  166SOPE  H18R18703   4.047   2.077   8.942  2.2454  0.7311  0.9267
  166SOPE  H18S18704   4.005   1.897   8.885  0.9989 -0.8623  0.1726
  166SOPE  H18T18705   4.166   1.949   8.902  1.3561 -2.8030  3.2016
  166SOPE   C3318706   4.281   1.350  10.238  0.2415  0.6134  0.3555
  166SOPE   H3X18707   4.175   1.347  10.268 -0.2884  1.5344 -1.2610
  166SOPE   H3Y18708   4.315   1.255  10.191  0.8312  1.0337 -0.0867
  166SOPE   C3418709   4.294   1.452  10.122  0.3756  1.1672  0.4219
  166SOPE   H4X18710   4.397   1.488  10.100 -0.0767  2.6775  0.6565
  166SOPE   H4Y18711   4.236   1.543  10.147 -0.9302  0.2478  0.8580
  166SOPE   C3518712   4.218   1.388   9.995  0.1113 -0.1012 -0.3395
  166SOPE   H5X18713   4.109   1.377  10.018  0.3637 -0.5178  0.6941
  166SOPE   H5Y18714   4.253   1.285   9.973 -1.3423 -1.1718  1.9026
  166SOPE   C3618715   4.242   1.481   9.878  0.2798 -0.2905 -0.2872
  166SOPE   H6X18716   4.353   1.476   9.875  0.3960  1.1753  0.5543
  166SOPE   H6Y18717   4.218   1.585   9.909  2.2523  0.3286 -0.7007
  166SOPE   C3718718   4.178   1.442   9.745 -0.6003  0.1990  0.1911
  166SOPE   H7X18719   4.073   1.478   9.750 -1.1388 -1.4405  1.4811
  166SOPE   H7Y18720   4.187   1.332   9.738  2.4542  0.3480  0.2687
  166SOPE   C3818721   4.251   1.507   9.625 -0.7661  0.5134  0.4934
  166SOPE   H8X18722   4.346   1.451   9.609 -0.1019  0.5484  3.5752
  166SOPE   H8Y18723   4.274   1.615   9.637 -1.3524  0.8953 -1.5387
  166SOPE   C3918724   4.173   1.496   9.493 -0.0106  0.6467  0.5382
  166SOPE   H9X18725   4.077   1.552   9.505 -0.1634  0.7503 -0.9530
  166SOPE   H9Y18726   4.130   1.395   9.476 -3.1681  1.9686 -0.1213
  166SOPE  C31018727   4.243   1.569   9.373 -0.4928  0.4720 -0.8072
  166SOPE  H10X18728   4.344   1.523   9.364 -0.4297  0.7444 -1.5893
  166SOPE  H10Y18729   4.250   1.675   9.406  0.0544 -0.7279  3.6265
  166SOPE  C31118730   4.163   1.547   9.246 -0.3667  0.2133 -0.2175
  166SOPE  H11X18731   4.091   1.630   9.231 -1.3404 -0.6833 -0.7026
  166SOPE  H11Y18732   4.114   1.447   9.256  1.0813 -0.5901 -0.8478
  166SOPE  C31218733   4.245   1.550   9.118 -0.7449 -0.8385  0.6143
  166SOPE  H12X18734   4.327   1.475   9.103  1.5264  1.9157 -2.1589
  166SOPE  H12Y18735   4.292   1.650   9.121  0.0719 -1.2361  1.3930
  166SOPE  C31318736   4.158   1.544   8.993 -0.1424 -0.1649  0.1366
  166SOPE  H13X18737   4.086   1.629   8.989 -1.3664 -1.0381  2.3271
  166SOPE  H13Y18738   4.089   1.458   9.003 -0.8663  0.3249 -0.5766
  166SOPE  C31418739   4.236   1.523   8.865  0.4572 -0.0618 -0.5595
  166SOPE  H14X18740   4.159   1.533   8.785  2.5111  1.4106 -2.4968
  166SOPE  H14Y18741   4.283   1.422   8.862  0.1175 -0.2130 -0.9360
  166SOPE  C31518742   4.347   1.625   8.837 -0.0594 -0.2614  0.1182
  166SOPE  H15X18743   4.423   1.625   8.917  0.9916  1.4599 -0.8166
  166SOPE  H15Y18744   4.304   1.727   8.833 -0.7143 -0.4811  1.1902
  166SOPE  C31618745   4.418   1.593   8.701  0.0373  0.2051 -0.4575
  166SOPE  H16X18746   4.331   1.589   8.632  1.0047 -0.2399 -1.6749
  166SOPE  H16Y18747   4.455   1.489   8.707 -1.5026 -0.3413  0.2747
  166SOPE  C31718748   4.516   1.701   8.648 -0.2327  0.3152  0.0172
  166SOPE  H17X18749   4.604   1.701   8.717 -0.8480 -2.8665  0.9480
  166SOPE  H17Y18750   4.459   1.797   8.649  0.2223  0.6021 -0.6553
  166SOPE  C31818751   4.561   1.680   8.497  0.9401  0.0274  0.4131
  166SOPE  H18X18752   4.634   1.754   8.459  2.6543 -1.8774 -0.1822
  166SOPE  H18Y18753   4.474   1.674   8.428  1.0880  1.0843  0.1141
  166SOPE  H18Z18754   4.613   1.582   8.496  0.3116 -0.3315 -1.6775
  167SOPE     N18755   0.430   6.196   6.659  0.0497 -0.4237 -0.5044
  167SOPE   HN118756   0.420   6.100   6.622 -2.8689 -1.2939  2.1902
  167SOPE   HN218757   0.479   6.254   6.588  2.2153  0.1749  1.3327
  167SOPE   HN318758   0.499   6.204   6.737  0.2672  3.7299 -0.8785
  167SOPE   C1218759   0.292   6.240   6.702  0.9370  0.3062 -0.0060
  167SOPE  H12A18760   0.292   6.312   6.787 -1.5678 -2.8603  2.9846
  167SOPE  H12B18761   0.237   6.151   6.740  1.4104  1.2822  3.2713
  167SOPE   C1118762   0.219   6.303   6.575  0.1185  0.3352  0.3412
  167SOPE  H11A18763   0.271   6.395   6.542  2.0956 -0.8202  0.0819
  167SOPE  H11B18764   0.115   6.332   6.600 -0.2013 -0.0755 -0.4930
  167SOPE     P18765   0.088   6.206   6.363  0.3869 -0.1393  0.2126
  167SOPE   O1318766   0.135   6.131   6.240  0.3963 -0.1604 -0.4490
  167SOPE   O1418767   0.034   6.347   6.339 -0.3832 -0.0394 -0.0200
  167SOPE   O1218768   0.209   6.210   6.463 -0.1296  0.1957 -0.4235
  167SOPE   O1118769  -0.018   6.128   6.448  0.5949  0.2731  0.5189
  167SOPE    C118770   0.006   5.989   6.466  0.4925  0.1507  0.2007
  167SOPE    HA18771   0.108   5.977   6.508  0.7626  0.1572 -0.4546
  167SOPE    HB18772   0.002   5.934   6.370  1.2580  1.3665 -0.5451
  167SOPE    C218773  -0.091   5.920   6.563  0.0722 -0.5134  0.3382
  167SOPE    HS18774  -0.189   5.937   6.513  0.6030 -3.2834 -1.9094
  167SOPE   O2118775  -0.064   5.982   6.694 -0.3830 -0.6415  0.5266
  167SOPE   C2118776  -0.137   6.082   6.723  1.0640 -0.4401 -0.2017
  167SOPE   O2218777  -0.236   6.124   6.662  0.1719 -0.4393  0.2017
  167SOPE   C2218778  -0.086   6.140   6.862 -0.5318 -0.5200 -0.0351
  167SOPE   H2R18779  -0.176   6.161   6.923 -2.4143 -2.2948 -2.0209
  167SOPE   H2S18780  -0.038   6.234   6.827 -0.3822 -0.8040 -0.6162
  167SOPE    C318781  -0.052   5.766   6.571  0.2417 -0.0993 -0.6530
  167SOPE    HX18782   0.057   5.750   6.582  0.2388  0.4084  0.1691
  167SOPE    HY18783  -0.089   5.723   6.475 -1.4774 -1.1167  0.4038
  167SOPE   O3118784  -0.118   5.693   6.672 -0.1933  0.1421 -0.7066
  167SOPE   C3118785  -0.049   5.694   6.790 -0.1089 -0.4649  0.0261
  167SOPE   O3218786   0.061   5.736   6.812 -0.0648 -0.1330  0.4605
  167SOPE   C3218787  -0.142   5.636   6.906  0.4116 -0.9848 -0.3151
  167SOPE   H2X18788  -0.067   5.584   6.969  2.2443  0.6476 -1.0371
  167SOPE   H2Y18789  -0.207   5.558   6.860 -1.1460  0.0615  0.0646
  167SOPE   C2318790   0.016   6.042   6.930  0.0651 -0.2250 -0.3546
  167SOPE   H3R18791   0.095   6.005   6.861 -1.5850 -2.4004 -1.1977
  167SOPE   H3S18792  -0.037   5.952   6.965 -1.1877  0.2684 -0.9181
  167SOPE   C2418793   0.078   6.105   7.063  0.2883  0.0849 -0.4604
  167SOPE   H4R18794   0.137   6.193   7.028  2.4315 -1.0227  0.1656
  167SOPE   H4S18795  -0.003   6.141   7.129 -1.6402  2.0387 -3.6571
  167SOPE   C2518796   0.176   6.010   7.147 -0.0055 -0.3603  0.5255
  167SOPE   H5R18797   0.124   5.914   7.169  1.2156 -1.3711 -0.8228
  167SOPE   H5S18798   0.259   6.001   7.074 -0.5730  1.3031 -0.3719
  167SOPE   C2618799   0.229   6.071   7.278 -0.1923 -0.2823 -0.6632
  167SOPE   H6R18800   0.327   6.122   7.269 -0.5269  0.3653 -0.6758
  167SOPE   H6S18801   0.153   6.141   7.320 -0.3205  0.3900 -1.9358
  167SOPE   C2718802   0.232   5.966   7.396  0.1530 -0.1309  0.3794
  167SOPE   H7R18803   0.123   5.952   7.413  0.4678 -2.1703  1.0555
  167SOPE   H7S18804   0.286   5.871   7.374  0.3229 -0.0144  0.2878
  167SOPE   C2818805   0.285   6.030   7.526 -1.1169  0.2337 -0.4136
  167SOPE   H8R18806   0.396   6.029   7.532 -1.0022 -2.2617 -1.5002
  167SOPE   H8S18807   0.252   6.136   7.532  0.6954  0.8085 -0.0813
  167SOPE   C2918808   0.234   5.948   7.645  0.3520 -0.0565 -0.2497
  167SOPE   H9118809   0.197   5.846   7.628 -3.1012  0.7343  1.5389
  167SOPE  C21018810   0.199   5.996   7.764 -0.4837  0.5163  0.4116
  167SOPE  H10118811   0.182   5.925   7.847  2.5458 -2.7623 -1.4762
  167SOPE  C21118812   0.203   6.144   7.808 -0.4796  0.1763 -0.1311
  167SOPE  H11R18813   0.101   6.189   7.804 -0.5590  0.0416  0.3189
  167SOPE  H11S18814   0.264   6.197   7.732 -1.2221 -0.8149 -1.4743
  167SOPE  C21218815   0.256   6.156   7.946 -0.1013 -0.5909  0.3553
  167SOPE  H12R18816   0.274   6.265   7.962 -0.8806 -0.6169  1.4660
  167SOPE  H12S18817   0.352   6.104   7.965 -0.3287 -1.2941 -0.3312
  167SOPE  C21318818   0.162   6.098   8.050 -0.1051 -0.3464  0.8563
  167SOPE  H13R18819   0.098   6.015   8.013  1.5713 -0.9302 -0.8683
  167SOPE  H13S18820   0.093   6.180   8.080 -0.3395  0.2923 -1.2810
  167SOPE  C21418821   0.236   6.065   8.183 -0.2316 -0.5979 -0.7717
  167SOPE  H14R18822   0.287   6.143   8.243  1.4708 -2.6999  0.6867
  167SOPE  H14S18823   0.314   5.993   8.150 -0.6640 -0.8169 -1.3427
  167SOPE  C21518824   0.139   5.985   8.282  0.5138 -0.3850  0.1509
  167SOPE  H15R18825   0.090   5.905   8.223  1.3401 -0.5396 -0.3458
  167SOPE  H15S18826   0.064   6.054   8.327  0.1481 -2.2142  2.5557
  167SOPE  C21618827   0.208   5.912   8.393  0.1485 -0.8537  0.6409
  167SOPE  H16R18828   0.254   5.982   8.466 -1.7675 -0.3477  1.4274
  167SOPE  H16S18829   0.293   5.864   8.340 -0.4810 -1.3069  0.0307
  167SOPE  C21718830   0.111   5.823   8.470  0.8053  0.1777 -0.4771
  167SOPE  H17R18831   0.045   5.769   8.399  0.8730 -0.7046  0.1094
  167SOPE  H17S18832   0.050   5.890   8.535 -0.5048 -2.3719  1.0799
  167SOPE  C21818833   0.166   5.727   8.574  0.2144  0.2427 -0.8046
  167SOPE  H18R18834   0.088   5.665   8.624 -0.4133 -0.0615 -2.1146
  167SOPE  H18S18835   0.221   5.786   8.650  0.7889 -1.0405 -0.1864
  167SOPE  H18T18836   0.245   5.656   8.543 -0.5437 -1.5644  1.1294
  167SOPE   C3318837  -0.223   5.739   6.985  0.4063  0.5263 -0.3054
  167SOPE   H3X18838  -0.273   5.809   6.914  0.8389  1.6209  0.4384
  167SOPE   H3Y18839  -0.158   5.806   7.045 -1.4228  2.6032 -0.4879
  167SOPE   C3418840  -0.318   5.675   7.093 -0.3564 -0.2169 -0.1164
  167SOPE   H4X18841  -0.335   5.569   7.062 -0.2435 -0.0785 -0.6689
  167SOPE   H4Y18842  -0.416   5.726   7.087 -1.7380 -2.7066  0.1813
  167SOPE   C3518843  -0.249   5.685   7.237  0.7180  0.0307  0.0993
  167SOPE   H5X18844  -0.140   5.663   7.238  0.4845 -1.6493  3.2217
  167SOPE   H5Y18845  -0.295   5.617   7.312  0.8943 -0.1926  0.0063
  167SOPE   C3618846  -0.256   5.831   7.295  0.0914  0.7787  1.0712
  167SOPE   H6X18847  -0.364   5.857   7.302  0.1363  0.6120  2.6396
  167SOPE   H6Y18848  -0.210   5.908   7.228  1.1841  1.1613  2.2411
  167SOPE   C3718849  -0.188   5.848   7.429  0.0341 -0.0241  0.6114
  167SOPE   H7X18850  -0.079   5.863   7.417  0.0312  1.7244  2.3225
  167SOPE   H7Y18851  -0.204   5.759   7.492 -0.0469 -0.7623 -0.4254
  167SOPE   C3818852  -0.245   5.970   7.501 -0.0945 -1.0958  0.1131
  167SOPE   H8X18853  -0.355   5.966   7.514  0.1412 -0.4154  3.0752
  167SOPE   H8Y18854  -0.225   6.066   7.450  1.5662 -0.7713  1.2831
  167SOPE   C3918855  -0.198   5.988   7.647  0.3505 -0.0748 -0.7265
  167SOPE   H9X18856  -0.087   5.987   7.640  0.2813  1.3193 -2.9223
  167SOPE   H9Y18857  -0.216   5.895   7.704  1.7439 -1.0354 -1.7869
  167SOPE  C31018858  -0.255   6.109   7.717 -0.1496 -0.0730 -0.3092
  167SOPE  H10X18859  -0.366   6.108   7.717 -0.1584 -0.0026 -1.5789
  167SOPE  H10Y18860  -0.218   6.196   7.660 -1.1170 -1.1095 -2.6215
  167SOPE  C31118861  -0.200   6.119   7.860 -0.7638  0.0975 -0.5428
  167SOPE  H11X18862  -0.090   6.132   7.867 -0.7701 -0.3286  0.5692
  167SOPE  H11Y18863  -0.234   6.029   7.915 -0.3076 -0.8171 -1.7091
  167SOPE  C31218864  -0.252   6.247   7.928 -0.2366  0.1275 -0.6641
  167SOPE  H12X18865  -0.360   6.223   7.939  0.2249 -2.3582 -1.1009
  167SOPE  H12Y18866  -0.236   6.336   7.863  1.7364 -0.1021 -0.5536
  167SOPE  C31318867  -0.200   6.281   8.064 -0.6656 -0.2987  0.2133
  167SOPE  H13X18868  -0.250   6.378   8.084 -0.9313  0.9769 -5.0463
  167SOPE  H13Y18869  -0.093   6.306   8.049 -1.2390  2.5668  0.2582
  167SOPE  C31418870  -0.221   6.183   8.179 -0.7351 -0.2217  0.4612
  167SOPE  H14X18871  -0.170   6.085   8.164 -2.3266 -1.2682  1.5187
  167SOPE  H14Y18872  -0.328   6.152   8.169 -0.0482 -2.5240 -0.6310
  167SOPE  C31518873  -0.180   6.253   8.309  0.2011  0.2069  0.0222
  167SOPE  H15X18874  -0.238   6.346   8.324  1.7145  1.2672 -0.5220
  167SOPE  H15Y18875  -0.072   6.268   8.328  0.3269 -1.2744  0.6543
  167SOPE  C31618876  -0.217   6.162   8.431 -0.9574  0.2549  0.5324
  167SOPE  H16X18877  -0.193   6.224   8.519  0.7732  2.5009 -1.3937
  167SOPE  H16Y18878  -0.146   6.077   8.419 -2.2133 -0.8500  0.6160
  167SOPE  C31718879  -0.356   6.098   8.442  0.9450  0.1823 -0.3922
  167SOPE  H17X18880  -0.374   6.016   8.369 -1.7794  1.2003 -0.9452
  167SOPE  H17Y18881  -0.436   6.171   8.420 -0.9317 -1.1412  1.6198
  167SOPE  C31818882  -0.382   6.055   8.583 -0.0243  0.5288  0.3023
  167SOPE  H18X18883  -0.295   6.006   8.630  0.5110  1.0295 -0.1552
  167SOPE  H18Y18884  -0.467   5.983   8.575  0.0495  0.4424  0.2890
  167SOPE  H18Z18885  -0.408   6.136   8.654  0.9575  0.2258  1.0126
  168SOPE     N18886   4.736   2.808   6.710  0.5416  0.7685  0.4900
  168SOPE   HN118887   4.781   2.880   6.770 -0.6962  0.5769  1.7300
  168SOPE   HN218888   4.637   2.839   6.697  0.3776  0.1456  0.1771
  168SOPE   HN318889   4.748   2.722   6.768  0.0563  0.3612  0.0050
  168SOPE   C1218890   4.800   2.789   6.582  0.8480 -0.3072  0.3803
  168SOPE  H12A18891   4.775   2.690   6.538 -0.1446  0.9598 -2.1581
  168SOPE  H12B18892   4.911   2.800   6.590  1.0363 -1.7918  0.0759
  168SOPE   C1118893   4.750   2.883   6.469  0.3688 -0.2818  0.7017
  168SOPE  H11A18894   4.646   2.853   6.443  0.6175  0.2111 -0.9888
  168SOPE  H11B18895   4.809   2.862   6.377  1.3284  0.7169  1.0662
  168SOPE     P18896   4.912   3.089   6.487  0.2909  0.0184 -0.1609
  168SOPE   O1318897   4.884   3.215   6.415  0.0679  0.4605  0.3987
  168SOPE   O1418898   5.004   2.996   6.422 -0.0922  0.0397 -0.7579
  168SOPE   O1218899   4.768   3.018   6.510  0.3108 -0.0773 -0.0187
  168SOPE   O1118900   4.966   3.124   6.633  0.2755 -0.1203  0.1039
  168SOPE    C118901   5.100   3.173   6.640 -0.1315  0.7251  0.6828
  168SOPE    HA18902   5.100   3.277   6.599 -0.0349  0.3762 -0.2090
  168SOPE    HB18903   5.177   3.111   6.590  0.9936  1.0536  1.9190
  168SOPE    C218904   5.156   3.161   6.789  0.1717  0.0849  0.1978
  168SOPE    HS18905   5.179   3.055   6.812  1.3597  0.1206 -0.7046
  168SOPE   O2118906   5.058   3.210   6.883 -0.6037  0.1690  0.2360
  168SOPE   C2118907   5.039   3.345   6.883 -0.5267  0.7123 -0.5973
  168SOPE   O2218908   5.092   3.423   6.806  0.5467  0.0323 -0.5643
  168SOPE   C2218909   4.947   3.381   7.000  0.3464 -1.1470  0.2264
  168SOPE   H2R18910   4.895   3.287   7.031  2.3007 -2.0117  0.9993
  168SOPE   H2S18911   4.865   3.443   6.957  1.9559  0.2426 -0.9836
  168SOPE    C318912   5.302   3.228   6.804  0.2020 -0.5395 -0.3480
  168SOPE    HX18913   5.294   3.338   6.790 -1.7589  0.0269  3.7909
  168SOPE    HY18914   5.365   3.192   6.720  0.1462 -0.6169 -0.3570
  168SOPE   O3118915   5.364   3.202   6.932 -0.1217 -0.5834  0.0153
  168SOPE   C3118916   5.419   3.083   6.950  0.2033  0.3508 -0.0239
  168SOPE   O3218917   5.412   2.987   6.879  0.7359 -0.1154 -0.1852
  168SOPE   C3218918   5.482   3.082   7.089 -0.3226  0.1164  0.0850
  168SOPE   H2X18919   5.412   3.115   7.168  0.6599  0.4627  0.8271
  168SOPE   H2Y18920   5.560   3.159   7.103  0.5208 -1.0005  1.8459
  168SOPE   C2318921   5.008   3.452   7.127 -0.1301 -0.4205 -0.2457
  168SOPE   H3R18922   4.919   3.474   7.190 -0.9995 -0.8145 -1.2995
  168SOPE   H3S18923   5.048   3.552   7.100  0.2212 -0.7319 -0.9026
  168SOPE   C2418924   5.097   3.356   7.205  0.3935 -0.2039  0.8745
  168SOPE   H4R18925   5.017   3.279   7.219  0.6158 -1.1210 -2.1434
  168SOPE   H4S18926   5.174   3.320   7.134  0.5541 -1.0982  1.4803
  168SOPE   C2518927   5.151   3.411   7.337 -0.0834  0.3222  0.0234
  168SOPE   H5R18928   5.219   3.337   7.384  0.9317  1.6539  0.7438
  168SOPE   H5S18929   5.210   3.504   7.320 -0.5758  0.6984  0.3258
  168SOPE   C2618930   5.039   3.451   7.431  0.4728 -0.0262 -0.1064
  168SOPE   H6R18931   4.970   3.528   7.390  0.7917  1.8109  2.5288
  168SOPE   H6S18932   4.995   3.350   7.449  0.5077 -0.5046 -2.4468
  168SOPE   C2718933   5.088   3.507   7.566 -0.0792  0.9502 -0.2139
  168SOPE   H7R18934   5.192   3.472   7.582 -0.6770 -1.1424 -0.6519
  168SOPE   H7S18935   5.084   3.618   7.557  0.7852  1.1390  1.4475
  168SOPE   C2818936   4.999   3.486   7.689  0.4419 -0.8198 -0.0005
  168SOPE   H8R18937   4.907   3.545   7.668  1.3079 -0.5337 -3.8847
  168SOPE   H8S18938   4.977   3.378   7.707  1.0594 -1.0353 -0.4898
  168SOPE   C2918939   5.068   3.557   7.804 -0.2564 -0.8683  0.2998
  168SOPE   H9118940   5.109   3.657   7.783 -2.5643 -0.0744 -0.6811
  168SOPE  C21018941   5.103   3.498   7.917  0.0549 -0.1468 -0.0868
  168SOPE  H10118942   5.157   3.550   7.998  1.6381 -0.5233 -0.8599
  168SOPE  C21118943   5.064   3.358   7.966 -0.0188 -0.3160 -0.0397
  168SOPE  H11R18944   5.141   3.279   7.960 -1.3819 -1.6289 -0.9676
  168SOPE  H11S18945   4.982   3.316   7.904  0.5058 -0.1127 -0.8875
  168SOPE  C21218946   5.022   3.366   8.114 -0.2434  0.6560  0.4031
  168SOPE  H12R18947   5.097   3.424   8.170  1.5777 -0.7495 -0.4614
  168SOPE  H12S18948   5.017   3.268   8.166 -3.2252  0.6406  0.2876
  168SOPE  C21318949   4.878   3.411   8.131  0.6086 -0.4530  0.6944
  168SOPE  H13R18950   4.815   3.331   8.086 -1.1405  0.2075  1.8935
  168SOPE  H13S18951   4.856   3.506   8.077  0.9192 -0.4056  0.6463
  168SOPE  C21418952   4.820   3.417   8.268 -0.3282 -0.2174  0.6973
  168SOPE  H14R18953   4.839   3.521   8.303 -0.4615  0.1478 -0.2669
  168SOPE  H14S18954   4.875   3.348   8.336  0.1846  0.0305  0.5354
  168SOPE  C21518955   4.668   3.388   8.271 -0.3143 -0.4378 -0.7653
  168SOPE  H15R18956   4.628   3.395   8.375  1.4115 -0.8506 -0.0249
  168SOPE  H15S18957   4.659   3.281   8.242 -0.7559 -1.2094  1.9086
  168SOPE  C21618958   4.596   3.460   8.158  0.2614  0.6391  0.1495
  168SOPE  H16R18959   4.646   3.437   8.061  0.2151  1.3211 -0.0415
  168SOPE  H16S18960   4.610   3.570   8.170 -1.6145  0.8583  0.5551
  168SOPE  C21718961   4.450   3.423   8.144  0.0894  0.7580  0.3179
  168SOPE  H17R18962   4.431   3.314   8.160  1.8585  0.1972 -1.1067
  168SOPE  H17S18963   4.434   3.450   8.038  2.4015 -0.1902 -0.3229
  168SOPE  C21818964   4.377   3.503   8.247 -0.3850 -0.2896  0.0690
  168SOPE  H18R18965   4.410   3.483   8.351  0.5912  4.2452  0.8280
  168SOPE  H18S18966   4.268   3.487   8.235 -0.6632 -0.0942  2.0241
  168SOPE  H18T18967   4.387   3.613   8.236 -1.5734 -0.1697  0.0696
  168SOPE   C3318968   5.552   2.945   7.123  0.2705 -0.2650  1.0188
  168SOPE   H3X18969   5.612   2.913   7.035 -0.5468 -0.4325  0.5114
  168SOPE   H3Y18970   5.479   2.867   7.154 -1.7644  1.5492  0.9667
  168SOPE   C3418971   5.659   2.961   7.231  0.4799 -0.1542 -0.1878
  168SOPE   H4X18972   5.720   3.045   7.191 -0.7530  0.6564 -0.4184
  168SOPE   H4Y18973   5.733   2.878   7.234  2.4835  1.4180 -2.2174
  168SOPE   C3518974   5.596   2.987   7.366  0.5327 -0.6509 -0.3139
  168SOPE   H5X18975   5.539   2.896   7.394  0.8593 -0.8517 -0.3005
  168SOPE   H5Y18976   5.532   3.078   7.374  1.2427 -0.1019 -0.7597
  168SOPE   C3618977   5.688   3.004   7.493  0.2962 -0.3069  0.1502
  168SOPE   H6X18978   5.733   3.105   7.497 -1.9491  0.7596  0.1663
  168SOPE   H6Y18979   5.771   2.931   7.480  0.7614  0.0409  1.0677
  168SOPE   C3718980   5.612   2.973   7.624 -0.5631  0.4118  0.0651
  168SOPE   H7X18981   5.579   2.867   7.627 -0.1726  0.3008  0.5684
  168SOPE   H7Y18982   5.519   3.032   7.632 -0.0484  1.2837 -0.2567
  168SOPE   C3818983   5.697   3.007   7.739 -0.4972  0.2469 -0.8956
  168SOPE   H8X18984   5.737   3.111   7.732 -1.0021  0.6569  1.4073
  168SOPE   H8Y18985   5.785   2.945   7.764 -1.8653 -0.9151  1.4971
  168SOPE   C3918986   5.607   3.013   7.864 -0.0390  0.0202 -0.1154
  168SOPE   H9X18987   5.550   2.918   7.868 -1.1483  0.6849 -0.0085
  168SOPE   H9Y18988   5.536   3.098   7.864  1.3764  1.2547 -0.8160
  168SOPE  C31018989   5.694   3.035   7.991 -0.1527  0.3286  0.6371
  168SOPE  H10X18990   5.735   3.136   7.975 -0.4666  0.0365 -2.6659
  168SOPE  H10Y18991   5.774   2.958   8.001 -0.4702  0.0856  1.4345
  168SOPE  C31118992   5.609   3.031   8.122  0.0520  0.2184 -0.3314
  168SOPE  H11X18993   5.552   2.939   8.147 -1.0529  0.5032 -1.6922
  168SOPE  H11Y18994   5.537   3.116   8.120 -0.9192 -0.5540  0.8965
  168SOPE  C31218995   5.704   3.065   8.241  0.4882  0.4912 -0.1152
  168SOPE  H12X18996   5.626   3.086   8.318  0.3817  1.0968 -0.3784
  168SOPE  H12Y18997   5.753   3.163   8.222 -1.0796  1.2912 -0.1720
  168SOPE  C31318998   5.815   2.959   8.275  0.0627 -0.1995  0.2331
  168SOPE  H13X18999   5.899   2.982   8.206 -1.2999  1.6689 -0.8793
  168SOPE  H13Y19000   5.777   2.860   8.244 -0.3754  0.2333 -0.6255
  168SOPE  C31419001   5.866   2.980   8.415  0.2222 -0.3247  0.4670
  168SOPE  H14X19002   5.966   2.930   8.418  2.4838  3.4239 -2.6901
  168SOPE  H14Y19003   5.794   2.937   8.487 -3.0083 -1.2256 -2.9940
  168SOPE  C31519004   5.920   3.120   8.445 -0.1151  0.4509 -0.2659
  168SOPE  H15X19005   5.840   3.193   8.422  0.7230  1.7154  0.7017
  168SOPE  H15Y19006   6.007   3.133   8.378  0.9829 -1.8623  0.5663
  168SOPE  C31619007   5.992   3.135   8.584  0.2628 -0.4221  0.7525
  168SOPE  H16X19008   6.008   3.244   8.595  0.7605 -0.0508 -2.6818
  168SOPE  H16Y19009   6.094   3.092   8.577  1.5748  2.4972  0.3847
  168SOPE  C31719010   5.917   3.072   8.703  0.0019  0.1438  0.6546
  168SOPE  H17X19011   5.915   2.961   8.692  1.1131  0.2194 -0.5618
  168SOPE  H17Y19012   5.812   3.106   8.697  0.3410  1.1564  0.2394
  168SOPE  C31819013   5.967   3.124   8.835  0.3691 -0.1423  0.2405
  168SOPE  H18X19014   5.906   3.085   8.919  0.1472  0.0188  0.1544
  168SOPE  H18Y19015   5.957   3.235   8.836 -1.6269 -0.2943  0.8404
  168SOPE  H18Z19016   6.073   3.093   8.845 -0.0776 -1.1185  3.0872
  169SOPE     N19017   1.344   4.642   6.925 -0.3069 -0.4568  0.2883
  169SOPE   HN119018   1.341   4.595   7.018  0.9043  0.8322  1.0228
  169SOPE   HN219019   1.440   4.676   6.904 -0.6657 -0.4037 -1.3732
  169SOPE   HN319020   1.269   4.714   6.920  0.8245  0.8156  0.8825
  169SOPE   C1219021   1.292   4.541   6.822  0.0149  0.1104  0.0936
  169SOPE  H12A19022   1.196   4.491   6.849  0.3721 -2.0641 -2.2982
  169SOPE  H12B19023   1.372   4.467   6.802 -1.0383 -0.5598 -1.8780
  169SOPE   C1119024   1.276   4.615   6.688 -0.6391 -0.0530 -0.6369
  169SOPE  H11A19025   1.270   4.538   6.608 -0.4456  0.6044 -1.2936
  169SOPE  H11B19026   1.366   4.675   6.665 -0.9112  0.8135  0.4506
  169SOPE     P19027   1.166   4.856   6.664 -0.5266  0.0608  0.2483
  169SOPE   O1319028   1.028   4.908   6.665 -0.2614 -0.6907  0.1428
  169SOPE   O1419029   1.253   4.888   6.543  0.1214  0.0235 -0.4412
  169SOPE   O1219030   1.160   4.701   6.685  0.4664  0.1523  0.1638
  169SOPE   O1119031   1.235   4.897   6.798 -0.1381  0.0040 -0.3211
  169SOPE    C119032   1.313   5.013   6.811 -0.6035  0.1221  0.3365
  169SOPE    HA19033   1.264   5.100   6.762  0.8817  1.4445  1.0817
  169SOPE    HB19034   1.409   4.983   6.764 -0.8708 -1.1852  0.5993
  169SOPE    C219035   1.334   5.043   6.966 -0.1006 -0.0204  0.1551
  169SOPE    HS19036   1.385   4.956   7.012 -2.4665 -1.8238 -0.4476
  169SOPE   O2119037   1.210   5.063   7.032 -0.0357  0.1196 -0.8338
  169SOPE   C2119038   1.140   4.960   7.056  0.9622 -0.2687 -0.0878
  169SOPE   O2219039   1.183   4.845   7.065 -0.0592  0.4266  0.3188
  169SOPE   C2219040   0.990   5.009   7.062  0.4080  0.2506  0.3271
  169SOPE   H2R19041   0.922   4.925   7.087 -1.8148  1.4284 -1.4134
  169SOPE   H2S19042   0.966   5.038   6.958  0.8069  1.3823  0.5251
  169SOPE    C319043   1.428   5.167   6.988 -0.0283  0.5657 -0.0117
  169SOPE    HX19044   1.378   5.258   6.947  0.7923  0.1449 -2.0424
  169SOPE    HY19045   1.521   5.152   6.930 -0.9165 -1.2973 -1.0607
  169SOPE   O3119046   1.468   5.192   7.124 -0.1889 -0.1034  0.4604
  169SOPE   C3119047   1.555   5.290   7.141  0.2193  0.0733 -0.2935
  169SOPE   O3219048   1.606   5.358   7.056  0.0650 -0.0835 -0.0590
  169SOPE   C3219049   1.565   5.311   7.290  0.1587  0.0979  0.2518
  169SOPE   H2X19050   1.623   5.402   7.313 -2.1267  1.4978  0.8389
  169SOPE   H2Y19051   1.615   5.222   7.335  1.3576  0.2822 -0.6940
  169SOPE   C2319052   0.965   5.122   7.171  0.0151  0.2840 -0.7570
  169SOPE   H3R19053   0.863   5.166   7.161  0.0323  0.8275  1.2211
  169SOPE   H3S19054   1.038   5.199   7.139  0.0079  0.7429  0.2961
  169SOPE   C2419055   0.999   5.075   7.311  0.4361 -0.0567 -0.3725
  169SOPE   H4R19056   0.988   4.966   7.329  0.6873  0.1384  1.0808
  169SOPE   H4S19057   1.109   5.095   7.318  0.1666  1.8107 -0.7347
  169SOPE   C2519058   0.926   5.152   7.424 -0.7147 -0.3866 -0.1836
  169SOPE   H5R19059   0.820   5.131   7.402 -0.7225 -0.2298 -0.2940
  169SOPE   H5S19060   0.952   5.105   7.522  1.5775 -1.1932 -1.1118
  169SOPE   C2619061   0.965   5.303   7.430  0.2743  0.3578 -0.6047
  169SOPE   H6R19062   1.069   5.300   7.470  0.7631  0.6682 -1.7775
  169SOPE   H6S19063   0.964   5.353   7.330  0.1836  3.8999  1.0181
  169SOPE   C2719064   0.867   5.383   7.520 -0.6554  0.3156 -0.5851
  169SOPE   H7R19065   0.862   5.492   7.499 -1.0563  0.7516  1.5361
  169SOPE   H7S19066   0.766   5.342   7.502  0.6590 -2.6459 -1.8373
  169SOPE   C2819067   0.899   5.358   7.676 -0.1898  0.2750  0.2122
  169SOPE   H8R19068   0.939   5.254   7.679 -0.3826  0.0740 -2.2472
  169SOPE   H8S19069   0.983   5.421   7.710  0.1519 -1.0352  1.9551
  169SOPE   C2919070   0.782   5.369   7.770 -0.8431 -0.3288  0.5723
  169SOPE   H9119071   0.684   5.349   7.725 -0.3966  1.8129 -1.5712
  169SOPE  C21019072   0.786   5.398   7.896 -0.1069  1.0441  0.3904
  169SOPE  H10119073   0.686   5.422   7.936 -1.0776 -0.9184 -0.6811
  169SOPE  C21119074   0.903   5.429   7.985  0.4076  0.3370 -0.3632
  169SOPE  H11R19075   0.904   5.536   8.016  1.2348 -0.4953  2.8158
  169SOPE  H11S19076   0.996   5.403   7.930 -0.9157 -0.2305 -2.4367
  169SOPE  C21219077   0.888   5.353   8.115 -0.2824 -0.1780  0.1834
  169SOPE  H12R19078   0.897   5.246   8.088  2.0001  0.2995 -1.2460
  169SOPE  H12S19079   0.784   5.357   8.155 -1.8066 -2.2715 -3.0668
  169SOPE  C21319080   1.003   5.396   8.203 -0.0842 -0.5599  0.2724
  169SOPE  H13R19081   0.984   5.505   8.206 -0.3606 -0.6220  0.8930
  169SOPE  H13S19082   1.100   5.362   8.160 -0.2168 -0.7101  0.0890
  169SOPE  C21419083   0.993   5.347   8.339  0.0426  0.0204 -0.6886
  169SOPE  H14R19084   1.032   5.242   8.343  0.5562  0.2371  0.8450
  169SOPE  H14S19085   0.888   5.354   8.374 -0.1408  1.0079 -1.4180
  169SOPE  C21519086   1.076   5.429   8.444 -0.1674 -0.4552  0.3598
  169SOPE  H15R19087   1.172   5.459   8.399 -1.5108  0.8089 -1.8356
  169SOPE  H15S19088   1.112   5.359   8.523  0.3471  0.7100  1.1816
  169SOPE  C21619089   1.009   5.555   8.500 -0.0326 -0.2138  0.0177
  169SOPE  H16R19090   0.959   5.624   8.428 -1.9165 -1.8869 -0.3774
  169SOPE  H16S19091   1.089   5.621   8.539  0.7322 -0.7127 -0.6780
  169SOPE  C21719092   0.914   5.523   8.618  0.6294  0.5731 -0.2536
  169SOPE  H17R19093   0.972   5.460   8.690  0.2663 -1.4541 -1.6581
  169SOPE  H17S19094   0.829   5.462   8.579  0.4173  0.3216  0.5713
  169SOPE  C21819095   0.873   5.644   8.689 -0.2006 -0.0194  0.1690
  169SOPE  H18R19096   0.852   5.618   8.795  0.1870 -0.6882  0.0848
  169SOPE  H18S19097   0.781   5.687   8.641  0.1416  0.8643  0.2876
  169SOPE  H18T19098   0.948   5.723   8.707  0.0656 -0.2327 -0.0022
  169SOPE   C3319099   1.423   5.339   7.351  0.3249  0.7648 -0.9535
  169SOPE   H3X19100   1.356   5.259   7.313 -0.2310 -0.3750  2.1172
  169SOPE   H3Y19101   1.370   5.431   7.318 -3.3929 -0.4675  0.9894
  169SOPE   C3419102   1.421   5.331   7.503  0.4750 -0.2221 -0.2596
  169SOPE   H4X19103   1.490   5.252   7.539  0.4602  0.0105  0.2934
  169SOPE   H4Y19104   1.322   5.292   7.537  0.0400  0.6297 -0.5250
  169SOPE   C3519105   1.461   5.453   7.580  0.7099 -0.0794  0.1261
  169SOPE   H5X19106   1.390   5.537   7.570  0.7769 -0.0885 -0.4774
  169SOPE   H5Y19107   1.558   5.489   7.539  1.5953 -0.1256  2.0399
  169SOPE   C3619108   1.466   5.422   7.727 -0.3717 -0.1630  0.4719
  169SOPE   H6X19109   1.514   5.506   7.781 -0.4990 -0.2246  0.6825
  169SOPE   H6Y19110   1.524   5.330   7.751 -1.5485 -1.6465 -1.9733
  169SOPE   C3719111   1.333   5.405   7.800 -0.3687  0.3092 -0.0031
  169SOPE   H7X19112   1.291   5.308   7.763  0.3958 -0.1849  0.3959
  169SOPE   H7Y19113   1.261   5.482   7.764 -0.3095  0.6468  0.5891
  169SOPE   C3819114   1.330   5.424   7.951 -0.2582  0.0187 -0.3900
  169SOPE   H8X19115   1.322   5.533   7.968  0.0563 -0.0719  0.3773
  169SOPE   H8Y19116   1.239   5.366   7.980 -1.5066  0.0753 -3.7499
  169SOPE   C3919117   1.444   5.365   8.035 -0.4149 -0.3550  0.2410
  169SOPE   H9X19118   1.531   5.430   8.015  0.0711 -1.4522 -1.4562
  169SOPE   H9Y19119   1.473   5.262   8.004 -1.0965 -0.1201 -1.3082
  169SOPE  C31019120   1.417   5.357   8.183  0.4641  0.0985 -0.1760
  169SOPE  H10X19121   1.327   5.293   8.197 -0.7727  2.0311  1.2764
  169SOPE  H10Y19122   1.385   5.461   8.204 -0.7229 -0.1295 -0.7315
  169SOPE  C31119123   1.539   5.308   8.263  0.0969 -0.2992 -0.1159
  169SOPE  H11X19124   1.624   5.377   8.245  0.6699 -1.0223 -0.2376
  169SOPE  H11Y19125   1.568   5.208   8.223 -1.9158 -1.3745  0.9352
  169SOPE  C31219126   1.488   5.287   8.406 -0.8552  0.1031  0.0404
  169SOPE  H12X19127   1.401   5.221   8.388 -0.0033 -0.2651 -3.2921
  169SOPE  H12Y19128   1.448   5.378   8.457  0.3571  0.8073 -0.2292
  169SOPE  C31319129   1.586   5.203   8.490 -0.2236 -0.2723  0.4969
  169SOPE  H13X19130   1.637   5.122   8.435  0.1363 -0.4761  1.1135
  169SOPE  H13Y19131   1.518   5.148   8.558 -1.9162 -2.1094 -2.5178
  169SOPE  C31419132   1.694   5.292   8.552 -0.0751 -0.5318 -0.6210
  169SOPE  H14X19133   1.645   5.367   8.617 -0.3018 -0.8433 -0.4356
  169SOPE  H14Y19134   1.743   5.345   8.467  0.5807  1.0773  0.7058
  169SOPE  C31519135   1.797   5.222   8.632 -0.8362 -0.1991 -0.0728
  169SOPE  H15X19136   1.823   5.130   8.575 -3.1541 -0.3076 -1.0605
  169SOPE  H15Y19137   1.755   5.187   8.728  0.4468 -1.2559  0.1320
  169SOPE  C31619138   1.931   5.304   8.659 -0.2505 -0.1385  0.0515
  169SOPE  H16X19139   1.988   5.240   8.729 -0.2077  0.7026  0.8076
  169SOPE  H16Y19140   1.915   5.400   8.713  0.7816  1.1136 -1.7606
  169SOPE  C31719141   2.022   5.329   8.531  0.5377  0.2450  0.5567
  169SOPE  H17X19142   1.966   5.396   8.462  0.9056 -0.2690 -0.2505
  169SOPE  H17Y19143   2.021   5.237   8.470 -1.3480  0.9479 -0.5868
  169SOPE  C31819144   2.159   5.397   8.566  0.5262 -0.0025  0.9678
  169SOPE  H18X19145   2.225   5.309   8.586 -0.0595 -1.1745 -1.7641
  169SOPE  H18Y19146   2.147   5.463   8.655 -1.3962  0.1885  0.6036
  169SOPE  H18Z19147   2.205   5.450   8.480  1.1793 -2.7081 -0.4803
  170SOPE     N19148   1.016   2.006   6.670  0.5954  0.1665  0.2087
  170SOPE   HN119149   1.067   1.949   6.599 -2.5648 -1.1519 -1.2220
  170SOPE   HN219150   0.939   1.951   6.713 -0.4343 -1.6224 -3.4269
  170SOPE   HN319151   0.959   2.073   6.614 -1.6143 -1.3816  0.4464
  170SOPE   C1219152   1.107   2.056   6.769  0.0667  0.1227 -0.2106
  170SOPE  H12A19153   1.134   1.975   6.840  0.6544  0.2169 -0.3214
  170SOPE  H12B19154   1.064   2.137   6.832  0.4467 -0.4072  0.7520
  170SOPE   C1119155   1.236   2.114   6.706 -0.8777 -0.0617  0.1702
  170SOPE  H11A19156   1.307   2.145   6.785 -1.3632  0.5947  0.3558
  170SOPE  H11B19157   1.213   2.212   6.659  0.6748  0.1752 -0.1668
  170SOPE     P19158   1.369   1.889   6.664  0.1641  0.1565  0.3437
  170SOPE   O1319159   1.489   1.868   6.582 -0.3387 -0.2622 -0.0536
  170SOPE   O1419160   1.263   1.790   6.644  0.1389 -0.5624 -0.4133
  170SOPE   O1219161   1.300   2.026   6.618  0.0231 -0.1211  0.4926
  170SOPE   O1119162   1.403   1.899   6.817 -0.1082 -0.0828  0.3678
  170SOPE    C119163   1.423   1.775   6.893  0.1599 -0.3123 -0.4692
  170SOPE    HA19164   1.484   1.804   6.981 -3.0526 -1.5020  2.4096
  170SOPE    HB19165   1.469   1.692   6.836  0.8604  0.0456 -0.4297
  170SOPE    C219166   1.289   1.732   6.968 -0.4982 -0.2375  0.6468
  170SOPE    HS19167   1.223   1.686   6.891 -0.3533 -2.1422  1.6162
  170SOPE   O2119168   1.225   1.844   7.024 -0.2235 -0.0936  0.2691
  170SOPE   C2119169   1.111   1.810   7.076 -0.3881 -0.2368 -0.1744
  170SOPE   O2219170   1.044   1.711   7.056  0.4856  0.3684  0.0426
  170SOPE   C2219171   1.064   1.917   7.177  0.2526  0.0691  0.2833
  170SOPE   H2R19172   0.955   1.905   7.195  0.2245 -0.6381 -0.3086
  170SOPE   H2S19173   1.076   2.013   7.122  2.6048 -0.0424  0.5187
  170SOPE    C319174   1.310   1.624   7.076  0.6836 -0.0361 -0.1255
  170SOPE    HX19175   1.364   1.541   7.025  1.1416  0.3371 -0.2561
  170SOPE    HY19176   1.212   1.580   7.102  0.0056 -0.2919 -2.8128
  170SOPE   O3119177   1.371   1.677   7.197 -0.3464  0.2495  0.3427
  170SOPE   C3119178   1.486   1.624   7.222 -0.3950  0.4681  0.8690
  170SOPE   O3219179   1.541   1.536   7.149 -0.1521  0.3572  0.8966
  170SOPE   C3219180   1.539   1.674   7.361 -0.8659 -0.0745 -0.0065
  170SOPE   H2X19181   1.452   1.702   7.425 -1.5871 -2.3068  0.0702
  170SOPE   H2Y19182   1.620   1.750   7.354 -0.1007 -0.9275 -0.6217
  170SOPE   C2319183   1.128   1.933   7.315  0.1914  0.2217  0.2369
  170SOPE   H3R19184   1.203   2.014   7.307  0.1731  0.3591  1.3516
  170SOPE   H3S19185   1.177   1.836   7.341  0.6804  0.1938 -0.7255
  170SOPE   C2419186   1.033   1.975   7.423 -0.0308  0.7575  0.2504
  170SOPE   H4R19187   0.996   2.076   7.394 -0.1705  0.4099 -0.8220
  170SOPE   H4S19188   0.947   1.907   7.438  0.7180 -0.6278 -1.4023
  170SOPE   C2519189   1.105   1.991   7.558 -0.5768 -0.3794  0.0975
  170SOPE   H5R19190   1.152   1.892   7.582  1.7835  0.7979  0.6767
  170SOPE   H5S19191   1.191   2.060   7.546 -0.6568 -0.3172 -0.1148
  170SOPE   C2619192   1.017   2.044   7.670  0.4895 -0.0557  0.2558
  170SOPE   H6R19193   1.007   2.153   7.657  0.6239  0.1691  1.8343
  170SOPE   H6S19194   0.918   1.994   7.671 -0.3215  1.5044  1.1023
  170SOPE   C2719195   1.080   2.025   7.809  0.5657 -0.6521 -0.3268
  170SOPE   H7R19196   1.095   1.917   7.829 -1.4067 -0.9892 -0.4717
  170SOPE   H7S19197   1.183   2.066   7.820 -0.0390  1.1945 -1.0811
  170SOPE   C2819198   0.994   2.077   7.923 -0.2739 -0.0837 -0.6309
  170SOPE   H8R19199   1.057   2.067   8.014 -0.5736 -2.1159 -0.5845
  170SOPE   H8S19200   0.977   2.186   7.920  1.4734  0.2669  0.8072
  170SOPE   C2919201   0.861   2.003   7.952  0.2206 -0.0071  0.2644
  170SOPE   H9119202   0.876   1.903   7.995  1.5143  0.3216  0.5982
  170SOPE  C21019203   0.732   2.038   7.924  0.3279 -0.3692 -0.4020
  170SOPE  H10119204   0.646   1.973   7.944  1.2428 -1.0201  1.6856
  170SOPE  C21119205   0.697   2.164   7.853  0.0984  0.4602  0.1171
  170SOPE  H11R19206   0.625   2.136   7.773 -0.5431  1.7504  0.2095
  170SOPE  H11S19207   0.788   2.199   7.798 -0.1323  0.5427 -0.2183
  170SOPE  C21219208   0.642   2.270   7.947 -0.1886 -0.5324  0.3612
  170SOPE  H12R19209   0.543   2.238   7.988 -0.5298  1.7508  1.5038
  170SOPE  H12S19210   0.622   2.356   7.880  0.0333 -1.7376 -1.3043
  170SOPE  C21319211   0.734   2.314   8.063 -0.5932 -0.0995 -0.1699
  170SOPE  H13R19212   0.831   2.359   8.032 -1.8586  1.2472 -2.4766
  170SOPE  H13S19213   0.760   2.231   8.132  0.5722  1.0890  0.8761
  170SOPE  C21419214   0.668   2.418   8.145  0.0579 -0.1054 -0.1405
  170SOPE  H14R19215   0.563   2.394   8.170  0.2113 -2.7524 -1.6881
  170SOPE  H14S19216   0.665   2.515   8.091  1.3698 -1.2833 -2.5093
  170SOPE  C21519217   0.740   2.428   8.279  0.0769  0.5787  0.0404
  170SOPE  H15R19218   0.793   2.525   8.278  0.1668  0.5645 -2.5438
  170SOPE  H15S19219   0.826   2.359   8.294  3.2778  4.1019 -0.5800
  170SOPE  C21619220   0.637   2.420   8.391  0.5636 -0.2552 -0.2109
  170SOPE  H16R19221   0.593   2.320   8.405  0.3637 -0.0150  1.0159
  170SOPE  H16S19222   0.554   2.491   8.371  0.5050 -0.5554 -1.0568
  170SOPE  C21719223   0.699   2.460   8.530  0.1093 -0.2706  0.9764
  170SOPE  H17R19224   0.729   2.567   8.523  2.0304 -0.8629 -1.4977
  170SOPE  H17S19225   0.796   2.406   8.533  0.9186  0.8286 -1.7989
  170SOPE  C21819226   0.633   2.417   8.661 -0.1635 -0.5734 -0.1683
  170SOPE  H18R19227   0.687   2.453   8.751 -0.4223  2.2951 -1.0631
  170SOPE  H18S19228   0.607   2.309   8.668 -2.1936 -0.1632 -0.7860
  170SOPE  H18T19229   0.531   2.458   8.673 -0.2797 -0.8614 -0.1478
  170SOPE   C3319230   1.591   1.552   7.440 -0.0342 -0.4332  0.4923
  170SOPE   H3X19231   1.675   1.511   7.380 -0.7224  0.4241 -1.1451
  170SOPE   H3Y19232   1.508   1.479   7.433  0.8104 -1.5027  1.3622
  170SOPE   C3419233   1.641   1.590   7.578  0.4745  0.1038 -0.4324
  170SOPE   H4X19234   1.547   1.617   7.629 -0.8368 -0.9065 -2.2080
  170SOPE   H4Y19235   1.707   1.680   7.580  0.3267  0.2265 -0.9274
  170SOPE   C3519236   1.704   1.467   7.647  0.0002 -0.4411  0.7039
  170SOPE   H5X19237   1.778   1.417   7.581 -0.9481 -0.3559 -0.4443
  170SOPE   H5Y19238   1.632   1.386   7.672 -1.5861  0.4905 -0.6526
  170SOPE   C3619239   1.761   1.513   7.780 -0.4936  0.4619 -0.0104
  170SOPE   H6X19240   1.833   1.595   7.756 -0.2408 -0.7164 -4.0945
  170SOPE   H6Y19241   1.807   1.416   7.808  0.9328  0.8949 -0.7223
  170SOPE   C3719242   1.652   1.558   7.879 -0.1145  0.6573  0.3772
  170SOPE   H7X19243   1.592   1.470   7.912  1.5892  0.6644  3.8751
  170SOPE   H7Y19244   1.600   1.640   7.825 -0.9148 -0.9915 -1.5415
  170SOPE   C3819245   1.724   1.624   7.999 -0.0031  1.1261  0.4668
  170SOPE   H8X19246   1.767   1.718   7.957 -0.0475 -0.0984 -2.5908
  170SOPE   H8Y19247   1.804   1.551   8.025  0.5275  1.8549  0.9336
  170SOPE   C3919248   1.622   1.636   8.113  0.3279  0.2561 -0.1466
  170SOPE   H9X19249   1.596   1.529   8.131  0.1436  0.5205  1.2636
  170SOPE   H9Y19250   1.533   1.689   8.074 -0.4557  0.3976  1.7385
  170SOPE  C31019251   1.669   1.709   8.241 -0.8086  0.6738  0.7909
  170SOPE  H10X19252   1.710   1.807   8.210 -1.6962  0.7409 -0.2307
  170SOPE  H10Y19253   1.756   1.656   8.286  1.2711  0.2109 -3.2920
  170SOPE  C31119254   1.551   1.726   8.336 -0.3481  0.0346 -0.3366
  170SOPE  H11X19255   1.475   1.791   8.288 -0.2568  0.4137  0.0292
  170SOPE  H11Y19256   1.593   1.779   8.424 -0.0593  1.0519 -1.0626
  170SOPE  C31219257   1.475   1.602   8.370  0.2403 -0.5657  1.0173
  170SOPE  H12X19258   1.556   1.529   8.392  0.9587  0.2262  1.0707
  170SOPE  H12Y19259   1.408   1.575   8.286  1.0789 -1.5541  0.6447
  170SOPE  C31319260   1.396   1.610   8.503 -0.3687 -0.5014  0.2424
  170SOPE  H13X19261   1.354   1.712   8.518 -0.8911 -0.6744 -0.0082
  170SOPE  H13Y19262   1.465   1.589   8.587 -1.4464 -2.8021  0.6333
  170SOPE  C31419263   1.266   1.520   8.517 -0.5402  0.1921  0.0299
  170SOPE  H14X19264   1.185   1.550   8.447 -2.2120 -3.2875  0.2830
  170SOPE  H14Y19265   1.217   1.543   8.614  1.4041 -2.3160  1.7636
  170SOPE  C31519266   1.302   1.370   8.499 -0.1064  0.2378  0.1063
  170SOPE  H15X19267   1.331   1.348   8.394  1.2308  2.7627 -0.1189
  170SOPE  H15Y19268   1.218   1.303   8.527 -0.3462  0.5487  0.1353
  170SOPE  C31619269   1.421   1.323   8.579  0.7894  0.0515  0.0571
  170SOPE  H16X19270   1.520   1.366   8.553  0.9674 -1.5007 -2.2163
  170SOPE  H16Y19271   1.430   1.214   8.561  1.1388 -0.3684  2.4931
  170SOPE  C31719272   1.410   1.318   8.734 -0.4941  0.2398 -0.4907
  170SOPE  H17X19273   1.306   1.301   8.768 -0.2857  0.5289  0.3146
  170SOPE  H17Y19274   1.419   1.424   8.764 -2.6433  0.6006 -0.9731
  170SOPE  C31819275   1.508   1.229   8.817  0.2116 -0.7370  0.1950
  170SOPE  H18X19276   1.487   1.237   8.926  3.0236 -1.2065  0.8336
  170SOPE  H18Y19277   1.615   1.253   8.803 -0.2466  1.7282  0.4519
  170SOPE  H18Z19278   1.477   1.126   8.790 -0.2371 -1.0393  1.7523
  171SOPE     N19279   2.930   6.223   6.508  0.1650 -0.0685 -0.1659
  171SOPE   HN119280   2.849   6.274   6.466  0.2195 -0.3310 -0.5854
  171SOPE   HN219281   2.968   6.160   6.435 -0.9415 -1.8240  0.7167
  171SOPE   HN319282   2.899   6.166   6.589 -4.0723  1.1258 -0.7047
  171SOPE   C1219283   3.034   6.318   6.535 -0.3550  0.1277  0.5944
  171SOPE  H12A19284   2.986   6.409   6.578  1.0824  0.3602  1.8094
  171SOPE  H12B19285   3.095   6.341   6.445 -0.3570  1.7191  0.9580
  171SOPE   C1119286   3.106   6.267   6.661 -0.3675  0.6499 -0.1835
  171SOPE  H11A19287   3.028   6.258   6.740 -0.9802 -2.1389 -1.0252
  171SOPE  H11B19288   3.177   6.339   6.709  0.2539  0.3244 -0.6039
  171SOPE     P19289   3.308   6.099   6.601 -0.1455 -0.0608 -0.2362
  171SOPE   O1319290   3.344   6.160   6.468 -0.4581  0.5205  0.1608
  171SOPE   O1419291   3.308   5.956   6.604 -0.0467  0.8672 -0.6008
  171SOPE   O1219292   3.161   6.141   6.642  0.0576 -0.0689 -0.2330
  171SOPE   O1119293   3.403   6.168   6.708 -0.4146 -0.0651 -1.0603
  171SOPE    C119294   3.392   6.139   6.842 -0.6549  1.3340 -0.0358
  171SOPE    HA19295   3.288   6.112   6.869 -0.1965 -1.3172 -0.5836
  171SOPE    HB19296   3.442   6.215   6.905 -1.4883  1.2028  0.7961
  171SOPE    C219297   3.465   6.004   6.872 -0.9796 -0.2680  0.2812
  171SOPE    HS19298   3.411   5.919   6.826  0.8141 -1.0559 -0.4521
  171SOPE   O2119299   3.477   5.991   7.017 -0.6121  0.2243  0.5441
  171SOPE   C2119300   3.485   5.864   7.058 -0.2968  0.1119  0.4439
  171SOPE   O2219301   3.479   5.762   6.986 -0.4622 -0.0166 -0.2073
  171SOPE   C2219302   3.519   5.869   7.202 -0.3059  0.3954 -0.9228
  171SOPE   H2R19303   3.594   5.951   7.207  1.1960 -0.9526 -0.8101
  171SOPE   H2S19304   3.555   5.770   7.238 -2.7684  0.1176  1.0499
  171SOPE    C319305   3.610   5.999   6.806  0.7136 -0.4739  0.1145
  171SOPE    HX19306   3.649   6.103   6.803  2.2500 -0.9401  1.8487
  171SOPE    HY19307   3.596   5.978   6.698 -3.3571 -0.1444  0.4111
  171SOPE   O3119308   3.715   5.927   6.866 -0.5425 -0.2284 -0.2557
  171SOPE   C3119309   3.736   5.807   6.814 -0.0175  0.6115 -0.2045
  171SOPE   O3219310   3.669   5.750   6.733 -0.7555  0.1578 -0.2747
  171SOPE   C3219311   3.833   5.742   6.926  0.0310 -0.3840 -0.1634
  171SOPE   H2X19312   3.771   5.757   7.018 -2.0451  2.3336 -1.8442
  171SOPE   H2Y19313   3.923   5.807   6.931 -0.5874  0.4334  1.6762
  171SOPE   C2319314   3.397   5.907   7.292  0.2746  0.3392 -0.2376
  171SOPE   H3R19315   3.329   5.823   7.267 -1.3992  1.8451 -1.0239
  171SOPE   H3S19316   3.332   5.989   7.255 -0.4563  0.7659  1.8343
  171SOPE   C2419317   3.436   5.925   7.439 -0.2023  0.3533  0.7798
  171SOPE   H4R19318   3.523   5.994   7.443 -1.0737  1.5964 -0.7630
  171SOPE   H4S19319   3.346   5.974   7.483 -2.3697 -1.3837 -1.4437
  171SOPE   C2519320   3.470   5.801   7.507 -0.2420  0.9881 -0.4741
  171SOPE   H5R19321   3.395   5.721   7.486  0.4928  0.1506  0.0477
  171SOPE   H5S19322   3.569   5.767   7.471  0.5064  2.5616  0.0475
  171SOPE   C2619323   3.486   5.813   7.657  0.5583  0.0042  0.1153
  171SOPE   H6R19324   3.553   5.897   7.685 -0.8354  0.8607  0.9688
  171SOPE   H6S19325   3.384   5.844   7.687 -0.4766 -2.3913 -0.7258
  171SOPE   C2719326   3.536   5.686   7.716 -0.2931 -0.8573 -0.2400
  171SOPE   H7R19327   3.464   5.608   7.683  0.9162 -2.3566  0.5646
  171SOPE   H7S19328   3.640   5.665   7.683  1.3784  3.3148  1.5998
  171SOPE   C2819329   3.545   5.674   7.870 -0.4016  0.0637 -0.4540
  171SOPE   H8R19330   3.558   5.567   7.894  1.5490  0.6317  1.3809
  171SOPE   H8S19331   3.638   5.727   7.899  0.3351 -1.2049 -0.4385
  171SOPE   C2919332   3.422   5.721   7.943 -0.2442  0.4756 -0.1034
  171SOPE   H9119333   3.342   5.646   7.945 -1.3526  1.6207  0.4502
  171SOPE  C21019334   3.401   5.834   8.011  0.0649 -0.4583  0.1308
  171SOPE  H10119335   3.301   5.838   8.058 -0.7741  1.9336 -1.6573
  171SOPE  C21119336   3.498   5.952   8.036  0.3754 -0.1332  0.3613
  171SOPE  H11R19337   3.501   6.008   7.940 -1.5718  0.0082  0.3435
  171SOPE  H11S19338   3.600   5.914   8.058 -0.0134 -2.8046 -1.9054
  171SOPE  C21219339   3.444   6.036   8.148  0.2984 -0.4199 -0.5911
  171SOPE  H12R19340   3.347   6.086   8.127  2.0249  2.8423 -1.3460
  171SOPE  H12S19341   3.518   6.112   8.178 -0.1074 -0.0980 -0.3927
  171SOPE  C21319342   3.429   5.964   8.282 -0.3164 -0.5369 -0.2213
  171SOPE  H13R19343   3.511   5.889   8.292 -0.7260 -0.8135  1.2137
  171SOPE  H13S19344   3.330   5.914   8.286 -0.7545  0.2404 -0.9317
  171SOPE  C21419345   3.426   6.050   8.406 -0.1854 -0.4218 -0.8066
  171SOPE  H14R19346   3.353   6.133   8.414  0.1514 -0.1438 -0.5885
  171SOPE  H14S19347   3.517   6.114   8.408  1.1808 -2.3122 -0.4444
  171SOPE  C21519348   3.415   5.956   8.535 -0.2158 -0.0255  0.0967
  171SOPE  H15R19349   3.504   5.891   8.540  0.0206  0.3110  0.2725
  171SOPE  H15S19350   3.325   5.893   8.514  0.1414 -0.9330  1.2059
  171SOPE  C21619351   3.405   6.045   8.663 -0.1373  0.7432  0.1167
  171SOPE  H16R19352   3.398   5.971   8.745  0.2400  0.1824 -0.3443
  171SOPE  H16S19353   3.319   6.114   8.666 -0.0692  0.8111  2.6654
  171SOPE  C21719354   3.536   6.119   8.684  0.3826  0.4862 -0.0313
  171SOPE  H17R19355   3.546   6.197   8.606 -0.0129  1.2253  0.6352
  171SOPE  H17S19356   3.627   6.055   8.694 -0.2336 -0.4331 -0.1516
  171SOPE  C21819357   3.525   6.199   8.819 -0.0087 -0.0301  0.0681
  171SOPE  H18R19358   3.620   6.248   8.847 -1.8899  4.1522 -0.2252
  171SOPE  H18S19359   3.505   6.129   8.904 -0.2255  1.2929  1.1391
  171SOPE  H18T19360   3.449   6.279   8.804 -0.2556 -0.4987 -1.2582
  171SOPE   C3319361   3.863   5.593   6.909 -0.3961  0.1030 -0.7298
  171SOPE   H3X19362   3.940   5.591   6.829  1.1418  1.5690  0.6343
  171SOPE   H3Y19363   3.788   5.520   6.871  0.1506 -0.8592  0.0100
  171SOPE   C3419364   3.922   5.532   7.045 -0.0605 -0.2262  0.0789
  171SOPE   H4X19365   3.841   5.549   7.119 -1.1971  2.9509 -1.6900
  171SOPE   H4Y19366   4.010   5.594   7.073 -0.4139  0.3615 -0.0896
  171SOPE   C3519367   3.955   5.387   7.036 -0.3579  0.1966  0.2960
  171SOPE   H5X19368   4.030   5.369   6.955 -1.9423  0.0111 -1.2063
  171SOPE   H5Y19369   3.861   5.336   7.006 -0.2566  0.0196  0.2789
  171SOPE   C3619370   4.002   5.334   7.170  0.0617  0.2964 -0.1162
  171SOPE   H6X19371   4.020   5.225   7.157 -2.5903 -0.4023  1.4403
  171SOPE   H6Y19372   3.922   5.353   7.244  0.8606  0.1021  0.8178
  171SOPE   C3719373   4.128   5.403   7.232  0.0382 -0.1954 -0.6561
  171SOPE   H7X19374   4.118   5.514   7.230  0.3964 -0.1192  0.5787
  171SOPE   H7Y19375   4.220   5.379   7.175  0.0790  1.8220 -1.5420
  171SOPE   C3819376   4.160   5.366   7.374 -1.0727 -0.3559 -0.3130
  171SOPE   H8X19377   4.081   5.407   7.441 -0.9442 -2.2747  1.1117
  171SOPE   H8Y19378   4.252   5.417   7.409 -0.9931  0.5629 -1.7614
  171SOPE   C3919379   4.178   5.216   7.404 -0.3631  0.2175  0.2921
  171SOPE   H9X19380   4.275   5.189   7.358 -0.4052 -0.3181  0.5171
  171SOPE   H9Y19381   4.096   5.158   7.357 -0.1721  1.4764 -1.7094
  171SOPE  C31019382   4.180   5.188   7.559 -0.2506 -0.2592  0.3656
  171SOPE  H10X19383   4.148   5.086   7.587  1.0739 -0.8817 -0.2559
  171SOPE  H10Y19384   4.109   5.258   7.607  0.3293  0.3917  0.3010
  171SOPE  C31119385   4.318   5.198   7.615  0.2586 -0.1230 -0.1689
  171SOPE  H11X19386   4.360   5.299   7.596  0.2942  0.1377  1.1790
  171SOPE  H11Y19387   4.395   5.130   7.573  0.9723  1.9844 -2.5571
  171SOPE  C31219388   4.314   5.178   7.770  0.8939  0.5844  0.4433
  171SOPE  H12X19389   4.255   5.259   7.818 -0.3074 -0.2128  0.3610
  171SOPE  H12Y19390   4.419   5.180   7.805  0.9297  2.4736  0.3220
  171SOPE  C31319391   4.253   5.045   7.815 -0.0820 -0.1349  0.3270
  171SOPE  H13X19392   4.313   4.967   7.762  0.2414 -0.1683  0.7318
  171SOPE  H13Y19393   4.148   5.033   7.782  0.0981  0.2366 -0.4055
  171SOPE  C31419394   4.267   5.033   7.972  0.1556  0.2066 -0.2160
  171SOPE  H14X19395   4.373   5.061   7.991 -0.2819  0.9066  1.3189
  171SOPE  H14Y19396   4.254   4.927   8.004 -0.3752  0.0969 -0.7867
  171SOPE  C31519397   4.190   5.131   8.059  0.3190 -0.8267 -0.0547
  171SOPE  H15X19398   4.082   5.122   8.034 -0.2017 -1.6376  2.3023
  171SOPE  H15Y19399   4.224   5.232   8.026 -0.2778 -0.3473  0.7840
  171SOPE  C31619400   4.203   5.112   8.211 -0.2377 -0.2327  0.2291
  171SOPE  H16X19401   4.310   5.135   8.232 -0.4117  0.6819  0.1550
  171SOPE  H16Y19402   4.195   5.003   8.233 -2.0987 -0.1831 -0.0869
  171SOPE  C31719403   4.108   5.189   8.297 -0.1699  0.1832  0.2922
  171SOPE  H17X19404   4.001   5.171   8.273 -0.3064  0.7572  0.4692
  171SOPE  H17Y19405   4.131   5.293   8.267  0.8173  0.1405  0.8397
  171SOPE  C31819406   4.137   5.176   8.447  0.7182 -0.2632 -0.5800
  171SOPE  H18X19407   4.158   5.069   8.470  1.4904 -0.3337 -1.5440
  171SOPE  H18Y19408   4.042   5.209   8.494  0.4280  1.1253 -2.0375
  171SOPE  H18Z19409   4.224   5.234   8.484  0.7586  0.8036 -2.2202
  172SOPE     N19410   1.572   1.362   6.549 -0.0018  0.2593 -0.2999
  172SOPE   HN119411   1.488   1.301   6.556  0.0667  0.2211  0.2877
  172SOPE   HN219412   1.555   1.444   6.488 -0.8172 -1.4316 -2.4696
  172SOPE   HN319413   1.644   1.306   6.499  1.1129 -0.5070  2.0120
  172SOPE   C1219414   1.620   1.393   6.687  0.2624  0.2182  0.2286
  172SOPE  H12A19415   1.589   1.309   6.752 -3.8064  1.8831  0.7449
  172SOPE  H12B19416   1.560   1.476   6.731 -0.2556 -0.9968  1.9166
  172SOPE   C1119417   1.764   1.434   6.687  0.3012  0.7020 -0.6582
  172SOPE  H11A19418   1.830   1.345   6.680  1.2705  1.5338 -3.3067
  172SOPE  H11B19419   1.785   1.490   6.781 -2.1660  0.8279 -0.1105
  172SOPE     P19420   1.923   1.613   6.573  0.0520  0.0187 -0.0436
  172SOPE   O1319421   1.971   1.609   6.436  0.0635 -0.0541  0.1229
  172SOPE   O1419422   2.011   1.568   6.681  0.0327 -0.0628  0.1061
  172SOPE   O1219423   1.794   1.523   6.587 -0.1001  0.4794  0.2717
  172SOPE   O1119424   1.875   1.762   6.591  0.0977 -0.5613 -0.0920
  172SOPE    C119425   1.786   1.801   6.699  0.7669  0.4007 -0.0181
  172SOPE    HA19426   1.695   1.738   6.704 -0.4098  2.0756  0.6237
  172SOPE    HB19427   1.736   1.895   6.668 -1.3419 -0.6510  0.0253
  172SOPE    C219428   1.861   1.823   6.830  0.1982 -0.2043  0.3018
  172SOPE    HS19429   1.961   1.850   6.791  0.3090 -0.8410  0.1223
  172SOPE   O2119430   1.865   1.700   6.905 -0.2739 -0.1240 -0.8939
  172SOPE   C2119431   1.990   1.681   6.967  1.3135 -0.0492 -0.1454
  172SOPE   O2219432   2.082   1.760   6.963  0.3010 -0.2976 -0.7012
  172SOPE   C2219433   1.981   1.548   7.034 -0.6190  0.5036 -0.2234
  172SOPE   H2R19434   1.937   1.473   6.965  0.5395 -2.3012  1.8867
  172SOPE   H2S19435   1.909   1.560   7.117 -0.5813  0.7921 -0.2326
  172SOPE    C319436   1.783   1.935   6.917 -0.1070  0.1129  0.7093
  172SOPE    HX19437   1.688   1.895   6.957  0.1906 -0.6102  0.7011
  172SOPE    HY19438   1.766   2.010   6.836  1.8246 -1.1012 -0.9403
  172SOPE   O3119439   1.863   1.995   7.017 -0.0291 -0.4243 -0.3041
  172SOPE   C3119440   1.844   1.939   7.137 -0.5080  0.3983 -0.0096
  172SOPE   O3219441   1.773   1.841   7.166 -0.0319 -0.2751 -0.0267
  172SOPE   C3219442   1.939   2.013   7.235  0.9184  0.2064  0.0825
  172SOPE   H2X19443   1.924   2.121   7.211  0.3475 -0.4707 -2.9981
  172SOPE   H2Y19444   2.043   1.978   7.221  0.4152 -1.7825  1.0291
  172SOPE   C2319445   2.115   1.490   7.097  0.1779 -0.0815 -0.2771
  172SOPE   H3R19446   2.198   1.495   7.024  0.4948  1.4084  0.1754
  172SOPE   H3S19447   2.101   1.386   7.135 -2.2583  0.3027  0.0774
  172SOPE   C2419448   2.169   1.569   7.226  0.3403  0.2403 -0.4160
  172SOPE   H4R19449   2.270   1.533   7.255 -0.4783 -1.6980  0.1343
  172SOPE   H4S19450   2.176   1.677   7.200  0.0670  0.8408  1.7847
  172SOPE   C2519451   2.071   1.559   7.349 -0.2711 -0.4105  0.3564
  172SOPE   H5R19452   1.980   1.619   7.332 -0.8544 -1.9959 -2.8114
  172SOPE   H5S19453   2.045   1.452   7.336  3.6987 -1.4963 -0.1088
  172SOPE   C2619454   2.147   1.602   7.476 -0.6487  0.3498  0.6026
  172SOPE   H6R19455   2.252   1.567   7.481 -0.2375  1.4740  0.0956
  172SOPE   H6S19456   2.144   1.713   7.483 -2.3439  0.3669  0.1805
  172SOPE   C2719457   2.067   1.560   7.601  0.1950  0.2185  0.2718
  172SOPE   H7R19458   1.961   1.589   7.587 -0.0788 -1.0102 -0.4027
  172SOPE   H7S19459   2.050   1.450   7.607 -0.9327  0.4704  2.6358
  172SOPE   C2819460   2.121   1.620   7.727 -1.0571  0.2362  0.2756
  172SOPE   H8R19461   2.126   1.731   7.734  0.6316  0.1147  1.8252
  172SOPE   H8S19462   2.052   1.594   7.810 -3.4155 -1.0566 -1.9303
  172SOPE   C2919463   2.258   1.574   7.774  0.2882  0.4413  0.1567
  172SOPE   H9119464   2.327   1.563   7.689  0.9443  0.1748  0.7205
  172SOPE  C21019465   2.294   1.538   7.899  0.1916 -0.0457 -0.1341
  172SOPE  H10119466   2.393   1.491   7.906 -0.0333 -0.3142  1.5219
  172SOPE  C21119467   2.215   1.559   8.024  0.1735 -0.0902  0.1440
  172SOPE  H11R19468   2.174   1.661   8.036  1.0618  0.4602 -1.2490
  172SOPE  H11S19469   2.284   1.542   8.109 -0.0523 -0.4709  0.2527
  172SOPE  C21219470   2.104   1.460   8.039 -0.6698  0.5744 -0.7440
  172SOPE  H12R19471   2.140   1.355   8.031 -3.2486 -0.7814  2.6261
  172SOPE  H12S19472   2.024   1.479   7.964 -1.4728  0.2979  0.0216
  172SOPE  C21319473   2.040   1.464   8.185 -0.0469  0.2480 -0.5410
  172SOPE  H13R19474   2.009   1.569   8.203  2.2494  0.9970 -0.6868
  172SOPE  H13S19475   2.124   1.442   8.254  1.5076 -0.2561 -2.5045
  172SOPE  C21419476   1.921   1.369   8.216 -0.2428 -0.6148 -0.1842
  172SOPE  H14R19477   1.950   1.264   8.195  1.1969 -0.5964  1.4624
  172SOPE  H14S19478   1.830   1.406   8.164 -1.1660  1.3679  2.5776
  172SOPE  C21519479   1.876   1.369   8.360  0.6496  0.0836 -0.3503
  172SOPE  H15R19480   1.879   1.475   8.394  0.2535  0.2358 -0.7886
  172SOPE  H15S19481   1.941   1.301   8.419 -2.8696 -2.6581  0.7069
  172SOPE  C21619482   1.739   1.299   8.376 -0.2973  0.0863  0.2335
  172SOPE  H16R19483   1.667   1.356   8.314 -0.1855  0.8885  0.8199
  172SOPE  H16S19484   1.697   1.320   8.477  0.8566  4.4061  0.0251
  172SOPE  C21719485   1.756   1.149   8.343  0.8508 -0.1007 -0.2950
  172SOPE  H17R19486   1.861   1.114   8.356  1.3463  1.6489  0.9320
  172SOPE  H17S19487   1.730   1.132   8.236 -0.2291 -2.3385  0.2726
  172SOPE  C21819488   1.654   1.054   8.415  0.2760 -0.4958  0.2172
  172SOPE  H18R19489   1.653   0.955   8.366  0.4007 -0.4196  0.0606
  172SOPE  H18S19490   1.551   1.093   8.398  0.3094 -0.5371 -0.0798
  172SOPE  H18T19491   1.670   1.044   8.525 -1.3824 -3.2116  0.3105
  172SOPE   C3319492   1.896   1.979   7.381  0.1859  0.1654 -0.6337
  172SOPE   H3X19493   1.870   1.873   7.403  2.0003  0.2822  2.8720
  172SOPE   H3Y19494   1.817   2.045   7.422  0.0970 -0.4399  0.2034
  172SOPE   C3419495   2.014   2.006   7.484  0.5677 -0.0518 -0.1448
  172SOPE   H4X19496   2.051   2.110   7.486  1.0353 -0.1425 -1.9520
  172SOPE   H4Y19497   2.089   1.932   7.449  0.7740 -1.0995  2.3233
  172SOPE   C3519498   1.994   1.966   7.631  0.5625  0.2137  0.4615
  172SOPE   H5X19499   1.993   1.855   7.640  2.5057  0.1842  0.8048
  172SOPE   H5Y19500   1.893   2.007   7.648  0.6435 -0.2922  2.4182
  172SOPE   C3619501   2.097   2.031   7.728  0.8930 -0.2141 -0.3695
  172SOPE   H6X19502   2.080   2.141   7.730 -0.7173 -0.3613  3.7504
  172SOPE   H6Y19503   2.204   2.013   7.702  1.1428 -0.3036  0.6750
  172SOPE   C3719504   2.067   1.986   7.871  0.1471  0.3793 -0.1955
  172SOPE   H7X19505   2.127   2.052   7.937 -0.0337  1.2575 -0.8901
  172SOPE   H7Y19506   2.103   1.882   7.883  1.3400  0.9885  2.3977
  172SOPE   C3819507   1.917   1.993   7.917 -0.7386  0.4938 -0.3884
  172SOPE   H8X19508   1.859   1.912   7.866 -1.4645 -0.5043  1.9085
  172SOPE   H8Y19509   1.877   2.091   7.882 -2.1678  0.2966  0.5738
  172SOPE   C3919510   1.893   2.001   8.068  0.3974 -0.1960 -0.7318
  172SOPE   H9X19511   1.928   1.914   8.129 -0.9519  0.4597  1.0641
  172SOPE   H9Y19512   1.782   2.003   8.071  0.4019 -0.2679 -0.3920
  172SOPE  C31019513   1.953   2.118   8.143 -0.0580 -0.8154 -0.1236
  172SOPE  H10X19514   1.960   2.205   8.074  1.4125 -0.8919 -0.0961
  172SOPE  H10Y19515   2.060   2.098   8.163  1.1634  3.1521 -1.6063
  172SOPE  C31119516   1.874   2.153   8.267  0.7894  0.2806  0.0623
  172SOPE  H11X19517   1.817   2.067   8.309  1.0696  0.3422  0.5704
  172SOPE  H11Y19518   1.795   2.226   8.237  2.3055  1.1374 -2.0665
  172SOPE  C31219519   1.962   2.217   8.380 -0.7293  0.2398  0.1949
  172SOPE  H12X19520   1.977   2.324   8.351 -0.9270  0.3192  0.3892
  172SOPE  H12Y19521   2.057   2.160   8.385 -0.8145 -0.0126 -0.7236
  172SOPE  C31319522   1.898   2.216   8.519  0.7438 -0.6113 -0.1050
  172SOPE  H13X19523   1.789   2.240   8.512  1.1165  0.9297 -1.2156
  172SOPE  H13Y19524   1.950   2.295   8.577 -1.9815  1.9390 -0.8829
  172SOPE  C31419525   1.915   2.082   8.590 -0.0446  0.3133 -0.0921
  172SOPE  H14X19526   2.019   2.085   8.628 -0.2665  1.1854  0.4693
  172SOPE  H14Y19527   1.902   1.998   8.518 -0.8469 -0.1024  0.5148
  172SOPE  C31519528   1.815   2.050   8.705  0.1295 -0.3215 -0.3766
  172SOPE  H15X19529   1.837   1.952   8.753  1.7354  0.4645  0.5469
  172SOPE  H15Y19530   1.716   2.030   8.657 -0.1126  0.9890 -0.4680
  172SOPE  C31619531   1.819   2.162   8.819  0.0069 -0.0190 -0.1632
  172SOPE  H16X19532   1.753   2.131   8.903  1.2846 -2.0444  0.1706
  172SOPE  H16Y19533   1.794   2.263   8.780  1.5604  0.4311 -0.0595
  172SOPE  C31719534   1.963   2.166   8.890 -0.1945 -0.5790  0.0271
  172SOPE  H17X19535   2.037   2.195   8.812 -0.8268  0.4460 -0.2128
  172SOPE  H17Y19536   1.984   2.066   8.933  2.0027 -0.6690 -1.0948
  172SOPE  C31819537   1.966   2.272   8.996 -0.0050  0.2943  0.1104
  172SOPE  H18X19538   1.889   2.260   9.076  1.1814  2.7062  1.7711
  172SOPE  H18Y19539   1.961   2.380   8.970  3.1904  1.0463  2.0258
  172SOPE  H18Z19540   2.061   2.263   9.053 -0.2149  0.3783  0.4762
  173SAPI   C1219541   2.769   0.256  11.462  0.3855  0.4491  0.2658
  173SAPI    H219542   2.813   0.154  11.464 -1.2649 -0.2688  1.3037
  173SAPI    O219543   2.636   0.252  11.512 -0.1933 -0.1347 -0.0763
  173SAPI   HO219544   2.598   0.165  11.503 -1.2800  0.1215  1.5262
  173SAPI   C1319545   2.856   0.334  11.562 -0.5924  0.4210 -0.2402
  173SAPI    H319546   2.954   0.331  11.509 -1.3127  1.4634 -1.7101
  173SAPI    O319547   2.890   0.271  11.684 -0.0838  0.3215  0.6112
  173SAPI   HO319548   2.966   0.318  11.717 -0.8982  0.7924  1.8648
  173SAPI   C1419549   2.819   0.480  11.571  0.0835  0.0207 -0.5938
  173SAPI    H419550   2.713   0.489  11.604  0.1772  0.2027 -0.3422
  173SAPI    O419551   2.895   0.560  11.661 -0.7652  0.2412 -0.2678
  173SAPI   HO419552   2.982   0.567  11.622  0.1818  0.4116  1.7884
  173SAPI   C1519553   2.815   0.544  11.430  0.8393  0.7009 -0.1156
  173SAPI    H519554   2.918   0.541  11.387  1.1973  1.5843  0.6403
  173SAPI    O519555   2.767   0.676  11.441 -0.1469  0.3152 -0.2949
  173SAPI   HO519556   2.785   0.713  11.354 -2.4353  0.6075 -0.7144
  173SAPI   C1619557   2.734   0.464  11.331 -0.1029  0.2715  0.3879
  173SAPI    H619558   2.628   0.466  11.364  0.2360 -0.4065  1.5665
  173SAPI    O619559   2.734   0.533  11.199 -0.1250 -0.6301  0.3234
  173SAPI   HO619560   2.653   0.533  11.147  0.0652 -1.7062  0.0027
  173SAPI   C1119561   2.775   0.321  11.326  0.2782  0.6330 -0.2708
  173SAPI    H119562   2.880   0.310  11.291 -0.1343  1.9284 -2.0689
  173SAPI     P19563   2.750   0.101  11.163 -0.0479  0.0190 -0.0886
  173SAPI   O1319564   2.637   0.006  11.146  0.0244  0.3280 -0.7039
  173SAPI   O1419565   2.866   0.056  11.240  0.1063  0.1639 -0.5111
  173SAPI   O1219566   2.688   0.249  11.229 -0.3351  0.1590 -0.0609
  173SAPI   O1119567   2.804   0.151  11.029  0.1904  0.1609  0.1826
  173SAPI    C119568   2.740   0.235  10.934 -0.4148 -0.7825  0.5965
  173SAPI    HA19569   2.701   0.326  10.984  1.6137  0.6127 -0.2079
  173SAPI    HB19570   2.808   0.277  10.856 -1.7584  1.5835  0.6130
  173SAPI    C219571   2.634   0.163  10.852  0.1979  0.1774 -0.1346
  173SAPI    HS19572   2.561   0.131  10.930 -0.7480  2.2844 -0.0781
  173SAPI   O2119573   2.686   0.057  10.774  0.4359 -0.4492 -0.1434
  173SAPI   C2119574   2.604  -0.030  10.719  0.4647  0.2386  0.5816
  173SAPI   O2219575   2.486  -0.028  10.733  0.7169  0.2378 -0.0282
  173SAPI   C2219576   2.686  -0.143  10.648  0.3182  0.3076 -0.0883
  173SAPI   H2R19577   2.775  -0.102  10.597 -0.3685  1.0552 -0.7092
  173SAPI   H2S19578   2.731  -0.195  10.735  0.6113 -0.1877 -0.5312
  173SAPI    C319579   2.559   0.256  10.753 -0.2534 -0.3265 -0.4013
  173SAPI    HX19580   2.496   0.320  10.818  0.5408 -0.4368  0.4885
  173SAPI    HY19581   2.491   0.205  10.681  1.7380 -0.8382 -2.0256
  173SAPI   O3119582   2.649   0.329  10.673 -0.0362  0.8117  0.4529
  173SAPI   C3119583   2.615   0.448  10.637  0.6773  0.0527 -0.5961
  173SAPI   O3219584   2.511   0.505  10.664 -0.1397 -0.2630  0.4197
  173SAPI   C3219585   2.722   0.505  10.546 -0.1266  0.1481 -0.2040
  173SAPI   H2X19586   2.749   0.417  10.483  1.1188 -0.4085  1.0396
  173SAPI   H2Y19587   2.793   0.544  10.622  0.9286 -1.2019 -0.4437
  173SAPI   C2319588   2.602  -0.241  10.569  0.6251  0.5235  0.6757
  173SAPI   H3R19589   2.504  -0.263  10.618  1.1138  1.7461  2.2898
  173SAPI   H3S19590   2.649  -0.339  10.546 -1.0867  0.1182 -1.3558
  173SAPI   C2419591   2.561  -0.187  10.431 -0.1894 -0.5683 -0.0871
  173SAPI   H4R19592   2.492  -0.101  10.443 -1.0959 -0.7604 -3.1220
  173SAPI   H4S19593   2.501  -0.256  10.368 -1.6528 -0.4410  1.1250
  173SAPI   C2519594   2.689  -0.141  10.366 -0.0733 -0.2684  0.9786
  173SAPI   H5R19595   2.778  -0.201  10.389  1.3932  1.5421  0.3265
  173SAPI   C2619596   2.714  -0.032  10.285  0.6649 -0.1789 -0.4298
  173SAPI   H6R19597   2.819  -0.021  10.252  1.3773 -2.0477  1.0087
  173SAPI   C2719598   2.616   0.072  10.230  0.2263 -0.1215 -0.3303
  173SAPI   H7R19599   2.512   0.045  10.257  0.3996 -0.4196  0.0496
  173SAPI   H7S19600   2.622   0.050  10.122  0.8653  1.3263 -0.6158
  173SAPI   C2819601   2.649   0.218  10.256 -0.3847 -0.3991 -0.5406
  173SAPI   H8R19602   2.651   0.257  10.359 -0.6363  0.1504 -0.7435
  173SAPI   C2919603   2.664   0.312  10.158 -0.1015 -0.4200  0.2319
  173SAPI   H9R19604   2.677   0.417  10.187 -1.3144 -0.4555  0.9548
  173SAPI  C21019605   2.654   0.296  10.013  0.2245 -0.4167  0.1152
  173SAPI  H10R19606   2.754   0.258   9.984 -0.0369 -1.0131 -0.0213
  173SAPI  H10S19607   2.660   0.398   9.969  2.4918  1.6356  4.4949
  173SAPI  C21119608   2.542   0.216   9.956 -0.3516  0.0911  0.2036
  173SAPI  H11R19609   2.465   0.194  10.032 -0.8779  0.5043 -0.2130
  173SAPI  C21219610   2.528   0.176   9.824 -0.5399  0.0973 -0.0436
  173SAPI  H12R19611   2.444   0.114   9.792 -1.4604  1.4809 -0.4149
  173SAPI  C21319612   2.622   0.221   9.713  0.5558  0.1698  0.3332
  173SAPI  H13R19613   2.683   0.304   9.754  0.7148  1.3030 -2.0515
  173SAPI  H13S19614   2.564   0.259   9.627 -0.8721  0.9417  1.5917
  173SAPI  C21419615   2.717   0.106   9.670 -0.3176  0.5671  0.5211
  173SAPI  H14R19616   2.729   0.021   9.739  0.3532 -1.7977 -2.2850
  173SAPI  C21519617   2.779   0.092   9.552 -0.4045  0.3444  0.0735
  173SAPI  H15R19618   2.836  -0.001   9.539 -0.0831  0.6325 -0.6204
  173SAPI  C21619619   2.779   0.193   9.430  0.4959 -0.4678 -0.2688
  173SAPI  H16R19620   2.875   0.236   9.396 -0.1824  0.8079 -0.6565
  173SAPI  H16S19621   2.728   0.287   9.462 -1.8843 -1.8267  0.2088
  173SAPI  C21719622   2.709   0.149   9.304 -0.3771 -0.4702 -0.8168
  173SAPI  H17R19623   2.751   0.053   9.267  1.5437 -0.2270  0.6149
  173SAPI  H17S19624   2.726   0.224   9.224 -0.1497  0.3848  0.0159
  173SAPI  C21819625   2.554   0.119   9.318 -0.5063 -0.7829  0.7877
  173SAPI  H18R19626   2.527   0.213   9.370  2.4854  0.0048  1.1492
  173SAPI  H18S19627   2.533   0.031   9.382 -0.2161 -0.6265  1.1026
  173SAPI  C21919628   2.486   0.095   9.185  0.1401  0.2592 -0.9268
  173SAPI  H19R19629   2.385   0.055   9.203  0.3211 -0.6029 -1.7466
  173SAPI  H19S19630   2.545   0.025   9.121 -1.4454 -0.3705 -1.7417
  173SAPI  C22019631   2.473   0.220   9.092 -0.7685  0.3992  0.8076
  173SAPI  H20R19632   2.414   0.291   9.154  0.5187 -0.0157  2.5845
  173SAPI  H20S19633   2.417   0.196   8.999  0.2751  2.0314 -0.2891
  173SAPI  H20T19634   2.571   0.260   9.058 -1.2654  0.2869 -0.8737
  173SAPI   C3319635   2.686   0.621  10.454  0.0106  0.2196 -0.0551
  173SAPI   H3X19636   2.623   0.695  10.508  0.2294 -1.0230  1.9798
  173SAPI   H3Y19637   2.620   0.578  10.375 -0.3846  0.8637 -0.0835
  173SAPI   C3419638   2.812   0.683  10.395 -0.4502 -0.1838 -0.2090
  173SAPI   H4X19639   2.857   0.601  10.335  1.0071  0.8307 -0.5409
  173SAPI   H4Y19640   2.883   0.712  10.475 -1.2295  0.1421  0.3780
  173SAPI   C3519641   2.792   0.795  10.288  0.5618 -0.3291 -0.3789
  173SAPI   H5X19642   2.896   0.817  10.254  0.1159 -1.2451 -2.4873
  173SAPI   H5Y19643   2.758   0.890  10.334 -0.7590 -1.1220  0.3159
  173SAPI   C3619644   2.700   0.753  10.171 -0.2694 -0.2160 -0.7930
  173SAPI   H6X19645   2.596   0.736  10.207  0.1818 -1.2534  0.1006
  173SAPI   H6Y19646   2.740   0.657  10.132  1.6644 -0.4155  1.4071
  173SAPI   C3719647   2.696   0.854  10.055 -0.2907 -0.0251  0.1781
  173SAPI   H7X19648   2.689   0.961  10.085  0.2928 -0.4992  2.1858
  173SAPI   H7Y19649   2.599   0.833  10.006 -0.9832  1.1983  0.9722
  173SAPI   C3819650   2.808   0.844   9.941  0.5012  0.4851 -1.1082
  173SAPI   H8X19651   2.902   0.830   9.997 -1.3358  0.0108  2.0620
  173SAPI   H8Y19652   2.812   0.953   9.916  1.0426  1.1736  1.6201
  173SAPI   C3919653   2.769   0.750   9.829  0.1560 -0.2911 -0.3442
  173SAPI   H9X19654   2.659   0.757   9.817 -0.2190 -2.0761  1.4806
  173SAPI   H9Y19655   2.801   0.645   9.849  1.9211  0.3394  0.3072
  173SAPI  C31019656   2.830   0.784   9.690 -0.3622 -0.2736 -0.8112
  173SAPI  H10X19657   2.938   0.768   9.669  0.1086  0.7460  0.5968
  173SAPI  H10Y19658   2.799   0.888   9.667 -1.9172 -0.4570  0.2681
  173SAPI  C31119659   2.755   0.690   9.595 -0.2857  0.3410  0.3339
  173SAPI  H11X19660   2.657   0.736   9.569 -0.2876 -0.2802 -0.8265
  173SAPI  H11Y19661   2.735   0.588   9.634 -0.2346  1.0351  2.3072
  173SAPI  C31219662   2.834   0.681   9.462  1.0277  0.5440  0.2367
  173SAPI  H12X19663   2.923   0.616   9.472  2.4426  1.9125 -2.4930
  173SAPI  H12Y19664   2.876   0.779   9.432 -1.3418  1.1302 -1.5094
  173SAPI  C31319665   2.743   0.635   9.343 -0.6509  0.4460 -0.6951
  173SAPI  H13X19666   2.653   0.698   9.330 -2.7007 -1.9646  0.7466
  173SAPI  H13Y19667   2.717   0.527   9.353  2.2926 -0.3183 -0.2617
  173SAPI  C31419668   2.806   0.654   9.203 -0.0735 -0.4150  0.1036
  173SAPI  H14X19669   2.908   0.610   9.196  0.2161  0.4311 -2.1026
  173SAPI  H14Y19670   2.816   0.763   9.186  1.5357 -0.7982 -1.8455
  173SAPI  C31519671   2.722   0.599   9.087 -0.3695  0.2926  0.2647
  173SAPI  H15X19672   2.630   0.659   9.073 -0.3947  0.1264 -0.2825
  173SAPI  H15Y19673   2.680   0.501   9.120 -1.3119  0.5994  0.0163
  173SAPI  C31619674   2.793   0.586   8.955 -0.1567  0.9251 -0.0905
  173SAPI  H16X19675   2.749   0.494   8.910 -1.2983 -0.0290  2.7454
  173SAPI  H16Y19676   2.898   0.559   8.980  0.1051 -0.3151 -2.2662
  173SAPI  C31719677   2.781   0.699   8.854  0.3557  0.0400 -0.3517
  173SAPI  H17X19678   2.813   0.794   8.901 -1.3996  0.3315  0.3296
  173SAPI  H17Y19679   2.674   0.705   8.824  0.2470  0.3564  0.0871
  173SAPI  C31819680   2.863   0.681   8.726 -0.3794  0.7896  0.1438
  173SAPI  H18X19681   2.972   0.700   8.738  0.1364  0.0088 -2.7285
  173SAPI  H18Y19682   2.832   0.754   8.648 -2.2769  0.7651  0.8313
  173SAPI  H18Z19683   2.865   0.575   8.693 -1.0474  0.5263  0.9183
  174SAPI   C1219684   0.673   0.105  11.324  0.2287 -0.7530 -0.9021
  174SAPI    H219685   0.726   0.141  11.234 -0.0970  0.5796 -0.5718
  174SAPI    O219686   0.601  -0.017  11.302 -0.0290  0.8717  0.2172
  174SAPI   HO219687   0.640  -0.079  11.239 -0.2822  1.2296 -0.3038
  174SAPI   C1319688   0.781   0.078  11.424  0.6052  0.2620  1.3986
  174SAPI    H319689   0.832   0.173  11.449  0.2578  0.6863  0.5397
  174SAPI    O319690   0.878  -0.010  11.362  0.0669 -0.5464 -0.4414
  174SAPI   HO319691   0.947  -0.035  11.425 -0.4796  0.3092  0.5256
  174SAPI   C1419692   0.720   0.024  11.547 -0.0458  0.1235 -0.8147
  174SAPI    H419693   0.669  -0.073  11.525  1.3945 -0.9426  0.3261
  174SAPI    O419694   0.819  -0.014  11.647  0.0836 -0.1579 -0.5761
  174SAPI   HO419695   0.807  -0.108  11.664 -0.1428 -0.1444 -0.6470
  174SAPI   C1519696   0.607   0.122  11.596 -0.6085  0.2321  0.0966
  174SAPI    H519697   0.657   0.214  11.632 -1.1501  0.1074  1.2047
  174SAPI    O519698   0.540   0.067  11.712 -0.3508  0.1120 -0.1635
  174SAPI   HO519699   0.486  -0.005  11.678  0.4554 -0.4468 -0.2931
  174SAPI   C1619700   0.499   0.161  11.489 -0.9596 -0.1221 -0.2949
  174SAPI    H619701   0.435   0.078  11.452 -1.1619 -0.3057  0.4468
  174SAPI    O619702   0.418   0.263  11.541 -0.0149 -0.2537  0.3062
  174SAPI   HO619703   0.349   0.297  11.484 -0.8913 -0.6881  1.0670
  174SAPI   C1119704   0.575   0.214  11.366 -0.2418 -0.7116 -0.0543
  174SAPI    H119705   0.640   0.297  11.402 -2.1246  0.3388  1.0869
  174SAPI     P19706   0.537   0.371  11.155  0.0480  0.0343  0.4021
  174SAPI   O1319707   0.633   0.463  11.220  0.4991  0.2893  0.2984
  174SAPI   O1419708   0.405   0.428  11.123  0.2443 -0.6175 -0.1834
  174SAPI   O1219709   0.497   0.253  11.257 -0.2283 -0.1636 -0.1830
  174SAPI   O1119710   0.610   0.289  11.041  0.4095 -0.4676 -0.6607
  174SAPI    C119711   0.735   0.323  10.998  0.1243  0.3545  0.2030
  174SAPI    HA19712   0.806   0.342  11.080 -2.1825 -0.7585  2.6004
  174SAPI    HB19713   0.781   0.234  10.949  0.8191  0.3953  0.7640
  174SAPI    C219714   0.748   0.446  10.908  0.4900  0.3868  0.5410
  174SAPI    HS19715   0.713   0.535  10.965 -1.7860 -0.1020  0.0138
  174SAPI   O2119716   0.654   0.439  10.804 -0.0166 -0.0264 -0.3163
  174SAPI   C2119717   0.643   0.561  10.743 -0.7091  0.2994 -0.1746
  174SAPI   O2219718   0.696   0.665  10.778  0.5456 -0.2720  0.3721
  174SAPI   C2219719   0.548   0.546  10.619  0.6663 -0.6096 -0.2751
  174SAPI   H2R19720   0.503   0.445  10.618 -0.4047 -0.1480 -0.3107
  174SAPI   H2S19721   0.463   0.616  10.637  1.5214  0.7573 -1.3115
  174SAPI    C319722   0.889   0.456  10.839  0.2649 -0.5064  0.6491
  174SAPI    HX19723   0.952   0.486  10.926 -0.3934  0.0161  0.9514
  174SAPI    HY19724   0.889   0.544  10.771 -0.1919 -1.3549 -0.4659
  174SAPI   O3119725   0.924   0.342  10.767 -0.5081 -0.7842 -0.2279
  174SAPI   C3119726   1.040   0.283  10.810 -0.4577 -0.5558 -0.6525
  174SAPI   O3219727   1.110   0.326  10.903 -0.3002  0.7229 -0.1294
  174SAPI   C3219728   1.070   0.152  10.734 -0.0746 -0.1904 -0.7136
  174SAPI   H2X19729   0.977   0.092  10.736  0.3191 -1.2269 -4.5070
  174SAPI   H2Y19730   1.145   0.091  10.789  0.0315  1.3258  0.9072
  174SAPI   C2319731   0.612   0.570  10.484 -0.0866 -0.6661  0.6134
  174SAPI   H3R19732   0.655   0.671  10.498  0.0634 -1.1034  4.4012
  174SAPI   H3S19733   0.526   0.563  10.414  0.2205  2.1258 -0.1466
  174SAPI   C2419734   0.729   0.477  10.442 -0.8684 -0.5111 -0.3048
  174SAPI   H4R19735   0.807   0.473  10.521 -0.5848 -1.4782 -0.6166
  174SAPI   H4S19736   0.790   0.511  10.355  2.0260 -1.4962  1.1831
  174SAPI   C2519737   0.681   0.336  10.411  0.5229  0.2763  0.6833
  174SAPI   H5R19738   0.659   0.270  10.496 -0.9613  0.4232  0.4368
  174SAPI   C2619739   0.648   0.280  10.293 -0.7364  0.3162  0.7660
  174SAPI   H6R19740   0.600   0.181  10.291  0.2918 -0.2010  0.9655
  174SAPI   C2719741   0.664   0.360  10.161  0.5605  0.4434 -0.5623
  174SAPI   H7R19742   0.771   0.353  10.132 -0.3368 -2.7267 -3.8518
  174SAPI   H7S19743   0.646   0.468  10.179  1.5506  0.9278 -2.2866
  174SAPI   C2819744   0.580   0.301  10.045 -0.2164 -0.2038 -0.1104
  174SAPI   H8R19745   0.477   0.285  10.082 -0.2642  2.7371  1.3361
  174SAPI   C2919746   0.616   0.303   9.920 -0.4501 -0.2537  0.1808
  174SAPI   H9R19747   0.541   0.267   9.848  0.2339 -1.1271 -0.1091
  174SAPI  C21019748   0.757   0.327   9.858  0.2868  0.3468  0.2994
  174SAPI  H10R19749   0.766   0.278   9.759  0.0774  1.8708 -0.5104
  174SAPI  H10S19750   0.835   0.281   9.922  0.3812  1.2568  0.8551
  174SAPI  C21119751   0.793   0.470   9.830 -0.3896 -0.2096 -0.5200
  174SAPI  H11R19752   0.809   0.528   9.921 -0.3920  0.3067 -0.8438
  174SAPI  C21219753   0.794   0.531   9.713  0.3501  0.5736  0.6871
  174SAPI  H12R19754   0.837   0.632   9.703 -0.6662  1.0332  0.8563
  174SAPI  C21319755   0.755   0.475   9.578  0.1040 -0.0433 -0.8792
  174SAPI  H13R19756   0.764   0.365   9.588  2.0117  0.0585 -1.0281
  174SAPI  H13S19757   0.834   0.498   9.503  1.7073 -3.6060 -0.4895
  174SAPI  C21419758   0.616   0.513   9.536  0.3732  0.4188 -0.0498
  174SAPI  H14R19759   0.532   0.469   9.592  0.6874  2.1698  1.9236
  174SAPI  C21519760   0.586   0.602   9.441 -0.3954 -0.1798  0.3865
  174SAPI  H15R19761   0.481   0.610   9.407 -0.4763  0.9614  0.8692
  174SAPI  C21619762   0.674   0.684   9.353  0.0285 -0.6448  0.7646
  174SAPI  H16R19763   0.778   0.682   9.392 -1.1623 -1.1804  4.1847
  174SAPI  H16S19764   0.653   0.793   9.351 -0.1759 -0.6806 -0.7865
  174SAPI  C21719765   0.686   0.646   9.202 -0.3146  0.2597  0.4774
  174SAPI  H17R19766   0.710   0.538   9.191  0.6697  0.6131 -1.2572
  174SAPI  H17S19767   0.768   0.700   9.151 -0.3253  0.3146  0.5177
  174SAPI  C21819768   0.549   0.666   9.126  0.0055  0.3802 -0.5766
  174SAPI  H18R19769   0.494   0.750   9.172 -1.7380 -0.4606 -1.0406
  174SAPI  H18S19770   0.492   0.571   9.139  0.0412  0.4733  0.3519
  174SAPI  C21919771   0.572   0.683   8.975  0.8582 -0.1856  0.5243
  174SAPI  H19R19772   0.634   0.598   8.938  0.2418 -0.9824  1.2782
  174SAPI  H19S19773   0.633   0.775   8.961  1.4196 -0.9341 -2.7121
  174SAPI  C22019774   0.439   0.693   8.894 -0.5259 -0.0836  0.1051
  174SAPI  H20R19775   0.381   0.772   8.947  0.8032  2.2701 -1.7775
  174SAPI  H20S19776   0.392   0.595   8.913  0.1890 -1.1232 -2.9808
  174SAPI  H20T19777   0.464   0.710   8.787  0.5545  1.8092  0.6028
  174SAPI   C3319778   1.094   0.179  10.583 -0.3837 -0.1473  0.3848
  174SAPI   H3X19779   1.171   0.257  10.569 -1.1866  0.6547  0.3583
  174SAPI   H3Y19780   0.999   0.219  10.541 -0.0902  0.9741  0.7594
  174SAPI   C3419781   1.143   0.052  10.513  0.2972 -0.7516 -0.3421
  174SAPI   H4X19782   1.051  -0.007  10.494  0.1203 -0.5283 -0.1761
  174SAPI   H4Y19783   1.220  -0.005  10.569  0.1721  0.2065  0.8351
  174SAPI   C3519784   1.225   0.068  10.384  0.3690  0.1812  0.3694
  174SAPI   H5X19785   1.260  -0.032  10.351  0.7903 -0.5387  2.8271
  174SAPI   H5Y19786   1.324   0.114  10.405  0.5859  1.2743 -2.5338
  174SAPI   C3619787   1.160   0.163  10.280  0.4769  0.8988 -0.1081
  174SAPI   H6X19788   1.165   0.268  10.316 -0.9563  0.3143  1.9564
  174SAPI   H6Y19789   1.054   0.136  10.268  0.1683  2.4208 -1.0259
  174SAPI   C3719790   1.227   0.168  10.138  0.6478  0.0313 -0.2121
  174SAPI   H7X19791   1.228   0.066  10.094  1.1472 -0.0336 -0.0514
  174SAPI   H7Y19792   1.333   0.203  10.142  0.9476 -0.8282 -0.4256
  174SAPI   C3819793   1.151   0.258  10.040 -0.3296 -0.2433  0.2700
  174SAPI   H8X19794   1.167   0.365  10.063  2.4959 -0.5026 -0.0831
  174SAPI   H8Y19795   1.043   0.235  10.038  0.0514 -2.4089  1.2604
  174SAPI   C3919796   1.205   0.235   9.898 -0.0731 -0.5893  0.0496
  174SAPI   H9X19797   1.194   0.126   9.880  1.9534 -1.0094  1.0744
  174SAPI   H9Y19798   1.315   0.247   9.890 -0.3353  1.1883 -1.6249
  174SAPI  C31019799   1.123   0.303   9.784  0.8907 -0.0691  0.4223
  174SAPI  H10X19800   1.129   0.414   9.786 -3.2836  0.3623 -1.4820
  174SAPI  H10Y19801   1.017   0.272   9.792  0.7592 -0.3825 -1.8406
  174SAPI  C31119802   1.172   0.258   9.648  0.0708  0.0449 -0.7789
  174SAPI  H11X19803   1.153   0.149   9.647  2.1500 -0.4395  1.3695
  174SAPI  H11Y19804   1.282   0.276   9.654  0.1991 -1.0405  0.4020
  174SAPI  C31219805   1.113   0.326   9.532  0.8921  0.0310 -0.1692
  174SAPI  H12X19806   1.005   0.347   9.548  0.8994  0.5921 -0.8192
  174SAPI  H12Y19807   1.123   0.253   9.449 -1.5464 -1.1844  0.4927
  174SAPI  C31319808   1.173   0.469   9.497 -0.7455  0.7071 -0.2978
  174SAPI  H13X19809   1.284   0.465   9.498 -0.7036  1.7093  0.7886
  174SAPI  H13Y19810   1.149   0.549   9.570  0.0336  0.7843 -0.1150
  174SAPI  C31419811   1.122   0.517   9.364 -0.7243  0.4127  0.3368
  174SAPI  H14X19812   1.124   0.629   9.361  2.1560  0.4611  1.3333
  174SAPI  H14Y19813   1.014   0.491   9.361 -0.0395 -2.7610 -0.1939
  174SAPI  C31519814   1.193   0.457   9.241 -0.2478 -0.8032  0.1516
  174SAPI  H15X19815   1.190   0.347   9.249  3.0895 -0.9971 -0.0046
  174SAPI  H15Y19816   1.299   0.488   9.236 -0.7416  0.8632 -0.8926
  174SAPI  C31619817   1.129   0.509   9.110 -1.0668  0.2684 -0.0374
  174SAPI  H16X19818   1.144   0.619   9.105 -0.2632  0.4855  4.1953
  174SAPI  H16Y19819   1.020   0.489   9.119 -0.9730 -0.5498 -0.6248
  174SAPI  C31719820   1.188   0.436   8.989  0.1751  0.0774  0.9317
  174SAPI  H17X19821   1.178   0.326   8.993 -1.1590 -0.3515 -4.9848
  174SAPI  H17Y19822   1.295   0.463   9.003  0.1772  0.7973 -0.3058
  174SAPI  C31819823   1.155   0.481   8.846  0.6078 -0.2777 -0.3353
  174SAPI  H18X19824   1.059   0.433   8.818 -0.2117  1.0704  0.0739
  174SAPI  H18Y19825   1.228   0.439   8.773 -0.7246  0.0955 -1.9569
  174SAPI  H18Z19826   1.159   0.591   8.836  2.6876 -0.1935  0.8729
  175SAPI   C1219827   4.378   6.517   6.252  0.1591 -0.6798  0.0442
  175SAPI    H219828   4.474   6.462   6.240  1.0099  0.3796  1.5853
  175SAPI    O219829   4.402   6.653   6.278 -0.1799  0.3274 -0.0046
  175SAPI   HO219830   4.403   6.669   6.373 -1.8366 -1.7862  0.4300
  175SAPI   C1319831   4.299   6.517   6.128  0.3468  0.0642  0.4444
  175SAPI    H319832   4.282   6.408   6.116  1.7868 -0.3109  1.5150
  175SAPI    O319833   4.382   6.552   6.007 -0.6541  0.0643  0.1148
  175SAPI   HO319834   4.373   6.470   5.959  0.4796 -0.8092  1.3204
  175SAPI   C1419835   4.166   6.597   6.142 -0.2688 -0.2545  0.1710
  175SAPI    H419836   4.195   6.700   6.171 -0.3973 -0.5311  1.3306
  175SAPI    O419837   4.089   6.599   6.026  0.4103 -0.0176 -0.0013
  175SAPI   HO419838   4.091   6.512   5.986  0.7748 -0.5367  1.1420
  175SAPI   C1519839   4.076   6.546   6.252 -0.2256 -0.1768 -0.0841
  175SAPI    H519840   4.026   6.450   6.227  0.9928 -1.0928  0.8656
  175SAPI    O519841   3.969   6.640   6.275 -0.1870 -0.2084  0.2224
  175SAPI   HO519842   3.890   6.595   6.306 -0.4120  0.6604  0.9477
  175SAPI   C1619843   4.164   6.534   6.377 -0.0599 -0.3094  0.4087
  175SAPI    H619844   4.185   6.635   6.419  0.9298 -0.2051 -0.2996
  175SAPI    O619845   4.073   6.474   6.475 -1.1456  0.2184  0.2549
  175SAPI   HO619846   4.030   6.551   6.513 -0.7434  1.1306 -1.0737
  175SAPI   C1119847   4.298   6.460   6.367 -0.2847 -0.2293 -0.4258
  175SAPI    H119848   4.279   6.354   6.339  1.8660 -0.8390  0.2132
  175SAPI     P19849   4.452   6.332   6.548 -0.0451 -0.0442 -0.3168
  175SAPI   O1319850   4.520   6.374   6.675 -0.4518 -0.0879 -0.4165
  175SAPI   O1419851   4.543   6.284   6.436  0.0654 -0.8868  0.4980
  175SAPI   O1219852   4.365   6.452   6.489  0.8030 -0.9928  0.0979
  175SAPI   O1119853   4.343   6.221   6.579  0.0333 -0.2829 -0.6417
  175SAPI    C119854   4.293   6.209   6.719  0.1964  0.2149  0.4303
  175SAPI    HA19855   4.297   6.305   6.775 -1.8388  0.2697  0.5530
  175SAPI    HB19856   4.185   6.186   6.708  0.1089  0.8915 -0.1427
  175SAPI    C219857   4.352   6.086   6.793  0.0994  0.8262 -0.4692
  175SAPI    HS19858   4.280   6.067   6.875 -2.2900  1.2119 -2.3440
  175SAPI   O2119859   4.490   6.109   6.837 -0.5396  0.1044 -0.5903
  175SAPI   C2119860   4.500   6.182   6.943 -0.2098 -0.6017 -0.1423
  175SAPI   O2219861   4.415   6.234   7.009 -0.7074  0.1879 -0.3441
  175SAPI   C2219862   4.651   6.195   6.976 -0.5494 -0.0251 -0.0502
  175SAPI   H2R19863   4.714   6.143   6.901 -0.9951 -2.5553  1.2169
  175SAPI   H2S19864   4.667   6.304   6.971  2.1646 -0.3745 -0.0597
  175SAPI    C319865   4.369   5.956   6.701 -0.3577 -0.1905  0.0202
  175SAPI    HX19866   4.447   5.981   6.626 -0.2515 -1.1375 -0.1883
  175SAPI    HY19867   4.277   5.948   6.640  0.1686  0.1131 -0.8293
  175SAPI   O3119868   4.396   5.831   6.779 -0.5064  0.3655 -0.2111
  175SAPI   C3119869   4.289   5.789   6.841  0.4389  0.6961 -0.1189
  175SAPI   O3219870   4.170   5.828   6.822 -0.2998 -0.2379 -1.7879
  175SAPI   C3219871   4.322   5.681   6.936  0.3208 -0.3807 -1.0622
  175SAPI   H2X19872   4.428   5.653   6.919  1.8087  2.2044  2.6513
  175SAPI   H2Y19873   4.256   5.593   6.920 -1.3499  1.1092 -3.0115
  175SAPI   C2319874   4.685   6.145   7.117 -0.6389  0.3239  0.0923
  175SAPI   H3R19875   4.635   6.201   7.199  2.0133  2.6847  0.2663
  175SAPI   H3S19876   4.792   6.171   7.133 -0.6847  0.0741  0.8560
  175SAPI   C2419877   4.682   5.988   7.131 -0.3443  0.2477 -0.0667
  175SAPI   H4R19878   4.733   5.951   7.039 -0.7096 -3.3024  0.9969
  175SAPI   H4S19879   4.579   5.947   7.128 -0.0700 -0.3970 -1.6700
  175SAPI   C2519880   4.759   5.936   7.250 -0.4707 -0.0866  0.1258
  175SAPI   H5R19881   4.846   5.875   7.224 -1.4354 -1.4972  0.1232
  175SAPI   C2619882   4.725   5.956   7.376 -0.4669 -0.4072 -0.1398
  175SAPI   H6R19883   4.798   5.914   7.447  0.6450 -2.1945 -2.2040
  175SAPI   C2719884   4.601   6.026   7.433 -0.0344 -0.0336 -0.2137
  175SAPI   H7R19885   4.540   5.942   7.472 -1.9627  1.1981 -0.4458
  175SAPI   H7S19886   4.554   6.080   7.348  3.7115  4.2730  0.0792
  175SAPI   C2819887   4.616   6.126   7.546  0.0357  0.8408 -0.1617
  175SAPI   H8R19888   4.572   6.223   7.520  1.0654  1.8388  1.6712
  175SAPI   C2919889   4.633   6.099   7.672  0.5174  0.1549 -0.1564
  175SAPI   H9R19890   4.638   6.178   7.749 -0.2008 -2.6652  3.0338
  175SAPI  C21019891   4.662   5.961   7.734 -0.6834 -0.4294 -0.4754
  175SAPI  H10R19892   4.677   5.876   7.665 -0.7291  0.3924 -1.5238
  175SAPI  H10S19893   4.568   5.932   7.785 -0.6817  0.3240 -0.0254
  175SAPI  C21119894   4.770   5.968   7.846 -0.8610 -0.3787  0.4211
  175SAPI  H11R19895   4.870   5.938   7.813 -0.3005  0.4530  1.3143
  175SAPI  C21219896   4.752   6.012   7.975  0.0210 -0.0789 -0.7015
  175SAPI  H12R19897   4.835   6.017   8.048 -1.3947  2.1678  0.8511
  175SAPI  C21319898   4.625   6.068   8.028  0.8544 -0.0661  0.5567
  175SAPI  H13R19899   4.585   5.975   8.073  1.6236 -0.2237  0.9191
  175SAPI  H13S19900   4.551   6.108   7.955  1.3835  1.6207  0.9018
  175SAPI  C21419901   4.661   6.179   8.123 -0.9403  0.4417 -0.5993
  175SAPI  H14R19902   4.732   6.256   8.090 -0.4826  0.3072  0.0609
  175SAPI  C21519903   4.627   6.193   8.254  0.0870 -0.1489  0.2905
  175SAPI  H15R19904   4.666   6.283   8.304 -1.5255  1.1125 -0.6363
  175SAPI  C21619905   4.544   6.102   8.334 -0.6209 -0.1772  0.2024
  175SAPI  H16R19906   4.483   6.038   8.267  0.5607  0.7744 -1.8659
  175SAPI  H16S19907   4.467   6.167   8.382 -0.9714  1.7135 -2.6836
  175SAPI  C21719908   4.625   6.014   8.428 -0.1687 -0.0171 -0.6832
  175SAPI  H17R19909   4.659   6.072   8.517 -0.5772  1.2520 -1.3283
  175SAPI  H17S19910   4.711   5.979   8.367  0.9292  0.2464  0.6514
  175SAPI  C21819911   4.533   5.905   8.494  0.7289  0.8491 -0.1323
  175SAPI  H18R19912   4.513   5.827   8.417  1.4570 -0.1498  0.6643
  175SAPI  H18S19913   4.441   5.961   8.519 -1.5795 -1.1549 -3.2497
  175SAPI  C21919914   4.593   5.830   8.612 -0.0525  0.9665  0.5172
  175SAPI  H19R19915   4.514   5.830   8.690 -0.8419 -0.9427 -0.2330
  175SAPI  H19S19916   4.670   5.897   8.655 -0.2495  1.0850  0.6923
  175SAPI  C22019917   4.651   5.686   8.587 -1.0555  0.2986 -0.0283
  175SAPI  H20R19918   4.719   5.666   8.673  0.2152  0.3786 -0.9905
  175SAPI  H20S19919   4.704   5.676   8.490 -3.5883  3.5252 -1.9450
  175SAPI  H20T19920   4.568   5.612   8.592 -1.5771  0.6443 -2.4188
  175SAPI   C3319921   4.323   5.741   7.084 -0.2915 -0.1047  0.0164
  175SAPI   H3X19922   4.217   5.733   7.118  0.2904 -0.6496  1.7955
  175SAPI   H3Y19923   4.357   5.846   7.086  0.4430 -0.2179 -2.5721
  175SAPI   C3419924   4.405   5.661   7.188  0.3357  0.1360 -0.3793
  175SAPI   H4X19925   4.511   5.688   7.168  0.6309 -0.8672 -0.2469
  175SAPI   H4Y19926   4.384   5.555   7.163 -0.9420 -0.1601  1.7298
  175SAPI   C3519927   4.361   5.695   7.326 -0.3649  0.4980 -1.2109
  175SAPI   H5X19928   4.269   5.641   7.357  0.1734 -0.6489 -1.5367
  175SAPI   H5Y19929   4.335   5.802   7.335 -0.1487  0.5744 -1.4935
  175SAPI   C3619930   4.476   5.651   7.434  0.4055  0.3870  0.1979
  175SAPI   H6X19931   4.572   5.701   7.408  1.2185 -1.6306 -0.8584
  175SAPI   H6Y19932   4.507   5.545   7.427  1.1803  0.4659  1.7885
  175SAPI   C3719933   4.444   5.658   7.586  0.2805 -0.5499  0.1445
  175SAPI   H7X19934   4.347   5.606   7.604 -0.6086  1.9151  3.3262
  175SAPI   H7Y19935   4.442   5.766   7.610  4.3833 -0.3541  0.2572
  175SAPI   C3819936   4.551   5.603   7.679 -0.3624 -0.2009  0.3357
  175SAPI   H8X19937   4.646   5.657   7.656  1.0444 -2.9214 -0.7600
  175SAPI   H8Y19938   4.567   5.496   7.653 -0.9453 -0.3083  0.3960
  175SAPI   C3919939   4.534   5.616   7.830  0.2695  0.2612 -0.3603
  175SAPI   H9X19940   4.487   5.714   7.854  2.5248  1.0971  0.9756
  175SAPI   H9Y19941   4.629   5.587   7.879  0.1352 -0.1044 -0.3158
  175SAPI  C31019942   4.431   5.510   7.867  0.8153  0.5999 -0.6180
  175SAPI  H10X19943   4.478   5.409   7.856  2.7532  1.4258 -0.2615
  175SAPI  H10Y19944   4.346   5.508   7.795 -1.5795  1.7895  1.9891
  175SAPI  C31119945   4.371   5.523   8.007 -0.4495 -0.1589 -1.0775
  175SAPI  H11X19946   4.297   5.441   8.015 -0.3784 -0.0686  1.4024
  175SAPI  H11Y19947   4.307   5.613   8.022 -1.2117 -1.0279  1.2713
  175SAPI  C31219948   4.472   5.507   8.123 -0.3427 -0.2655 -0.3597
  175SAPI  H12X19949   4.523   5.602   8.147  0.7360 -0.7153 -0.8299
  175SAPI  H12Y19950   4.561   5.447   8.095 -0.9755 -1.5099  0.2167
  175SAPI  C31319951   4.404   5.459   8.252  0.5178  0.3866  0.1404
  175SAPI  H13X19952   4.464   5.390   8.314  1.7675 -0.7137 -2.1355
  175SAPI  H13Y19953   4.313   5.402   8.224 -0.4568  1.7222  0.4403
  175SAPI  C31419954   4.348   5.568   8.337  0.3234 -0.0535  0.0278
  175SAPI  H14X19955   4.285   5.633   8.273 -0.2557 -1.8707 -1.3263
  175SAPI  H14Y19956   4.434   5.615   8.389  1.7901 -1.6350 -0.8687
  175SAPI  C31519957   4.262   5.509   8.449 -0.1989  0.1490 -0.1608
  175SAPI  H15X19958   4.320   5.433   8.506  0.4535  0.5470 -0.2814
  175SAPI  H15Y19959   4.173   5.452   8.413 -0.8990  1.9897 -1.4607
  175SAPI  C31619960   4.221   5.610   8.552 -0.6118 -0.2584 -0.3236
  175SAPI  H16X19961   4.164   5.685   8.493  0.5453 -0.8025 -2.2108
  175SAPI  H16Y19962   4.306   5.675   8.580 -0.6550  0.3970 -1.6600
  175SAPI  C31719963   4.149   5.552   8.676  0.1607  0.0974  0.6175
  175SAPI  H17X19964   4.211   5.484   8.738 -1.4096 -0.4112  1.7089
  175SAPI  H17Y19965   4.066   5.492   8.632  1.0277  1.3738 -3.1712
  175SAPI  C31819966   4.087   5.665   8.764  0.1516 -0.2683 -0.0148
  175SAPI  H18X19967   4.044   5.624   8.857 -1.9823 -0.2138 -0.9083
  175SAPI  H18Y19968   4.005   5.714   8.706  0.1974 -2.2232 -1.8797
  175SAPI  H18Z19969   4.165   5.740   8.790  1.5803 -2.3975  2.1419
  176SAPI   C1219970   1.810   4.955   6.881 -0.8510 -0.5584 -0.1542
  176SAPI    H219971   1.727   4.909   6.940 -1.4505  0.1456 -0.4354
  176SAPI    O219972   1.757   5.033   6.775 -0.2783 -0.0694  0.2102
  176SAPI   HO219973   1.747   4.964   6.709  0.8749 -0.1915  0.1526
  176SAPI   C1319974   1.905   5.037   6.969  0.1095  0.0874 -0.5815
  176SAPI    H319975   1.936   4.963   7.045  2.8220  0.6808 -1.0135
  176SAPI    O319976   1.838   5.134   7.049  0.6104  0.0711  0.3478
  176SAPI   HO319977   1.893   5.167   7.121 -1.3142  0.4627  1.7399
  176SAPI   C1419978   2.019   5.101   6.888  0.1952  0.0699  0.3646
  176SAPI    H419979   1.975   5.175   6.816 -0.7318 -0.4089  0.4231
  176SAPI    O419980   2.107   5.171   6.975 -0.3962  0.0168  0.6270
  176SAPI   HO419981   2.133   5.121   7.052  2.6154  0.0905 -0.1844
  176SAPI   C1519982   2.097   4.997   6.808  0.3116  0.2749 -0.0353
  176SAPI    H519983   2.149   4.934   6.883  0.6165  0.2506 -0.2672
  176SAPI    O519984   2.198   5.062   6.735 -0.3658 -0.5232 -0.3491
  176SAPI   HO519985   2.279   5.011   6.731  0.2814  0.5565 -1.8700
  176SAPI   C1619986   2.003   4.909   6.726  0.0861  0.0973  0.5366
  176SAPI    H619987   1.957   4.974   6.648  1.2715  0.2517 -0.0551
  176SAPI    O619988   2.071   4.795   6.675  0.3639  0.5990  0.3539
  176SAPI   HO619989   2.102   4.747   6.753  0.2953  0.1323  0.0952
  176SAPI   C1119990   1.880   4.848   6.807 -0.2138  0.6328 -0.0709
  176SAPI    H119991   1.933   4.779   6.876  0.0394  0.2157 -0.6784
  176SAPI     P19992   1.687   4.665   6.756  0.4968  0.3842  0.0966
  176SAPI   O1319993   1.603   4.634   6.634 -0.0868  0.4062 -0.5600
  176SAPI   O1419994   1.612   4.705   6.875  0.1653  0.3014  0.3325
  176SAPI   O1219995   1.796   4.774   6.717 -0.0615  0.0038 -0.3971
  176SAPI   O1119996   1.775   4.535   6.778 -0.0762 -0.0303 -0.2171
  176SAPI    C119997   1.772   4.446   6.888  0.4241  0.4909  0.4709
  176SAPI    HA19998   1.674   4.424   6.936  0.2880 -2.6530 -0.9675
  176SAPI    HB19999   1.801   4.348   6.844  2.1581  0.2636  2.0257
  176SAPI    C220000   1.883   4.472   6.980 -0.5645  0.2489 -1.0151
  176SAPI    HS20001   1.892   4.385   7.048  0.0861  1.0492 -0.0636
  176SAPI   O2120002   1.862   4.603   7.047 -0.5347 -0.1242  0.2991
  176SAPI   C2120003   1.775   4.593   7.148 -0.2350 -0.3173  0.5384
  176SAPI   O2220004   1.721   4.492   7.190 -0.4089  0.0376  0.2160
  176SAPI   C2220005   1.764   4.739   7.204  0.3384  0.3577  0.6338
  176SAPI   H2R20006   1.837   4.811   7.162  0.2023 -0.1465 -0.5065
  176SAPI   H2S20007   1.664   4.775   7.173 -0.2885 -1.7823 -0.0611
  176SAPI    C320008   2.019   4.464   6.907 -0.3116  0.2328  0.2108
  176SAPI    HX20009   2.019   4.542   6.829 -0.2301 -0.1924 -0.2155
  176SAPI    HY20010   2.026   4.368   6.852  0.8681  0.2575  0.2954
  176SAPI   O3120011   2.133   4.469   7.000  0.1647  0.2623  0.9420
  176SAPI   C3120012   2.197   4.583   7.018 -0.1486  0.1333 -0.5476
  176SAPI   O3220013   2.185   4.679   6.946 -0.3088 -0.1318 -0.1101
  176SAPI   C3220014   2.271   4.586   7.150  0.3344  0.4224  0.1694
  176SAPI   H2X20015   2.373   4.626   7.129  0.2952  1.7462  2.2439
  176SAPI   H2Y20016   2.277   4.482   7.189 -1.4471  0.0896 -0.3657
  176SAPI   C2320017   1.762   4.736   7.356 -0.0055 -0.8422 -0.4639
  176SAPI   H3R20018   1.863   4.711   7.394 -1.1809 -0.8324  3.0128
  176SAPI   H3S20019   1.696   4.659   7.402 -1.0334  0.9582  1.2178
  176SAPI   C2420020   1.699   4.868   7.411 -0.0274 -0.1587  0.6242
  176SAPI   H4R20021   1.665   4.855   7.516  0.9679  0.4676  1.0475
  176SAPI   H4S20022   1.606   4.901   7.361 -0.1089 -1.4847 -0.1187
  176SAPI   C2520023   1.788   4.996   7.389  0.8543  0.0830  0.2373
  176SAPI   H5R20024   1.813   5.019   7.284 -0.9821 -0.8075 -0.4345
  176SAPI   C2620025   1.840   5.077   7.490 -0.5344  0.0779  0.7376
  176SAPI   H6R20026   1.908   5.158   7.458 -0.0710 -0.1097  1.2254
  176SAPI   C2720027   1.823   5.067   7.638  0.2413  0.4374 -0.4047
  176SAPI   H7R20028   1.879   5.152   7.681  1.7048 -0.4290 -0.5550
  176SAPI   H7S20029   1.893   4.989   7.674  1.6428  2.3884  1.3090
  176SAPI   C2820030   1.680   5.054   7.691  0.6304 -0.8515  0.1063
  176SAPI   H8R20031   1.593   5.063   7.624 -0.2187  1.3348  1.3896
  176SAPI   C2920032   1.658   5.044   7.821 -0.2232 -0.5221  0.2818
  176SAPI   H9R20033   1.553   5.048   7.853  0.2039  0.2692  1.6690
  176SAPI  C21020034   1.765   5.028   7.930  0.6631  0.4625 -0.8855
  176SAPI  H10R20035   1.856   4.976   7.895  0.4396  1.1607 -2.6123
  176SAPI  H10S20036   1.728   4.969   8.016 -2.0466  0.2741 -2.0814
  176SAPI  C21120037   1.791   5.166   7.991  0.3977 -0.4455  0.0397
  176SAPI  H11R20038   1.724   5.250   7.964  2.2879  0.6175 -1.5755
  176SAPI  C21220039   1.887   5.191   8.088 -0.5923  0.8425  0.2666
  176SAPI  H12R20040   1.897   5.291   8.132 -2.8219  1.5064 -0.5920
  176SAPI  C21320041   1.983   5.084   8.134  0.0008  0.2643 -0.8216
  176SAPI  H13R20042   1.983   5.001   8.061 -0.5057 -1.1588  0.7236
  176SAPI  H13S20043   1.956   5.043   8.234  2.3979  1.2991  0.3300
  176SAPI  C21420044   2.118   5.151   8.165  0.2262 -0.2533  0.8823
  176SAPI  H14R20045   2.105   5.239   8.229 -1.2307 -0.0307  0.3234
  176SAPI  C21520046   2.240   5.107   8.132 -0.6227  0.6935 -0.0641
  176SAPI  H15R20047   2.326   5.169   8.160 -0.6950  2.5610 -3.3582
  176SAPI  C21620048   2.278   4.986   8.049 -0.1053 -0.7130 -0.7242
  176SAPI  H16R20049   2.193   4.914   8.049 -1.0138  0.2946  0.9078
  176SAPI  H16S20050   2.365   4.939   8.100  1.0476  1.1227 -0.9491
  176SAPI  C21720051   2.327   5.006   7.905  0.5890 -0.1807  0.8378
  176SAPI  H17R20052   2.365   4.905   7.880 -4.2296 -1.7048 -1.8254
  176SAPI  H17S20053   2.408   5.081   7.906 -0.5864  1.1526  3.0033
  176SAPI  C21820054   2.212   5.017   7.798 -0.1945  0.1112 -0.0435
  176SAPI  H18R20055   2.130   5.082   7.835 -0.6040 -0.2451 -0.3209
  176SAPI  H18S20056   2.172   4.913   7.804 -0.5538  0.2276 -0.3932
  176SAPI  C21920057   2.276   5.045   7.664 -0.7497 -0.5051  0.0715
  176SAPI  H19R20058   2.367   4.983   7.651  1.1067  1.5654  2.2363
  176SAPI  H19S20059   2.299   5.153   7.676 -1.1801 -0.2558 -1.2099
  176SAPI  C22020060   2.180   5.026   7.551 -0.5642  0.0936 -0.1138
  176SAPI  H20R20061   2.219   5.031   7.447  0.9331 -2.3095  0.2608
  176SAPI  H20S20062   2.097   5.098   7.566  1.9402  3.2944 -0.4303
  176SAPI  H20T20063   2.143   4.922   7.562  0.2049 -0.1011  0.7301
  176SAPI   C3320064   2.203   4.674   7.258 -0.1076 -0.2316  0.8426
  176SAPI   H3X20065   2.095   4.649   7.257 -1.0101  3.1334  0.9969
  176SAPI   H3Y20066   2.197   4.779   7.222  3.6204 -0.3614 -0.6038
  176SAPI   C3420067   2.280   4.671   7.388 -0.0505 -0.0829 -0.2573
  176SAPI   H4X20068   2.271   4.566   7.424  0.3586 -0.4108 -1.0847
  176SAPI   H4Y20069   2.226   4.742   7.455  1.0233 -0.0712  0.6235
  176SAPI   C3520070   2.425   4.717   7.385  0.2748  0.0116  0.3566
  176SAPI   H5X20071   2.427   4.820   7.342  0.1454 -0.0434  0.2172
  176SAPI   H5Y20072   2.488   4.659   7.315  1.0704  2.1233 -0.7790
  176SAPI   C3620073   2.495   4.746   7.517  0.5514  0.2729  0.6441
  176SAPI   H6X20074   2.523   4.648   7.562  1.5189 -0.6434 -1.8181
  176SAPI   H6Y20075   2.432   4.792   7.596 -0.1026 -0.9871  0.8945
  176SAPI   C3720076   2.618   4.839   7.502  0.1349  0.6038  0.6781
  176SAPI   H7X20077   2.599   4.945   7.475  1.0195  0.2740 -1.4042
  176SAPI   H7Y20078   2.682   4.809   7.416  1.3266  3.1959  0.5626
  176SAPI   C3820079   2.717   4.828   7.618 -0.6946 -0.1703 -0.1195
  176SAPI   H8X20080   2.809   4.859   7.564 -1.1659  1.8318  0.1338
  176SAPI   H8Y20081   2.720   4.723   7.653 -0.3209  0.0172  0.4165
  176SAPI   C3920082   2.665   4.914   7.740 -0.5763  0.3392 -0.3102
  176SAPI   H9X20083   2.559   4.890   7.761 -0.1127 -2.1784 -0.6154
  176SAPI   H9Y20084   2.664   5.021   7.710 -0.3935  0.4542  0.0740
  176SAPI  C31020085   2.760   4.902   7.862 -0.7091  0.4938  0.2697
  176SAPI  H10X20086   2.855   4.953   7.837 -1.8652  1.8907 -1.5768
  176SAPI  H10Y20087   2.770   4.794   7.886 -3.3373  0.2850  0.7548
  176SAPI  C31120088   2.699   4.970   7.980 -0.2883  0.0771  0.2925
  176SAPI  H11X20089   2.597   4.925   7.989  0.0431 -0.3274  2.5211
  176SAPI  H11Y20090   2.687   5.076   7.950 -1.5318  0.3657  1.6778
  176SAPI  C31220091   2.779   4.959   8.104  0.0578  0.2865 -0.1602
  176SAPI  H12X20092   2.887   4.974   8.082  0.1514 -0.6821 -0.4214
  176SAPI  H12Y20093   2.770   4.853   8.136 -0.6861  0.4286  0.1328
  176SAPI  C31320094   2.749   5.051   8.223  0.3834 -0.2150 -0.2536
  176SAPI  H13X20095   2.647   5.032   8.264  0.5671 -1.1510 -0.2022
  176SAPI  H13Y20096   2.770   5.157   8.197 -2.0885  0.7301  1.2517
  176SAPI  C31420097   2.835   5.019   8.343 -0.3653 -0.3141  0.2171
  176SAPI  H14X20098   2.936   5.034   8.301 -0.2132 -1.5483  0.0991
  176SAPI  H14Y20099   2.819   4.911   8.365  0.8602 -0.1608  2.1404
  176SAPI  C31520100   2.818   5.121   8.461 -0.0978 -0.8277  0.1776
  176SAPI  H15X20101   2.711   5.119   8.491 -0.3695 -1.9228 -0.7944
  176SAPI  H15Y20102   2.831   5.223   8.419 -3.6716 -0.3897 -0.1805
  176SAPI  C31620103   2.902   5.079   8.581 -0.5612 -0.4719  0.0866
  176SAPI  H16X20104   3.002   5.036   8.557  1.2909  2.0257  2.5720
  176SAPI  H16Y20105   2.850   4.999   8.637 -0.9689  0.7145  1.4887
  176SAPI  C31720106   2.930   5.200   8.671 -0.3278  0.4485 -0.8245
  176SAPI  H17X20107   3.005   5.270   8.629  0.4336  0.4284  0.4671
  176SAPI  H17Y20108   2.980   5.167   8.765  0.2147  1.7892 -0.6236
  176SAPI  C31820109   2.813   5.302   8.697  0.4745  0.5877  0.1932
  176SAPI  H18X20110   2.764   5.349   8.610  0.1331  1.4611  0.8397
  176SAPI  H18Y20111   2.835   5.389   8.762  0.3170 -0.5951  1.8994
  176SAPI  H18Z20112   2.730   5.244   8.743 -1.0002  1.7835 -0.8541
  177SLPC     N20113   2.132   1.805  11.374  0.4584  0.1692 -0.0330
  177SLPC   C1320114   2.169   1.674  11.432 -0.8972  0.3257 -0.5218
  177SLPC  H13A20115   2.112   1.588  11.400 -0.6800 -1.1959  2.7368
  177SLPC  H13B20116   2.271   1.652  11.404 -0.3796  0.0887  1.3802
  177SLPC  H13C20117   2.160   1.672  11.540  1.5961 -4.1924 -0.1312
  177SLPC   C1420118   2.212   1.905  11.442  0.1809 -0.1326 -0.3320
  177SLPC  H14A20119   2.188   2.004  11.407  2.1889  0.0466 -1.2827
  177SLPC  H14B20120   2.188   1.903  11.548 -1.2029  1.6018 -0.5519
  177SLPC  H14C20121   2.318   1.886  11.433  0.2784 -0.3746  1.0486
  177SLPC   C1520122   1.983   1.814  11.397 -0.5923 -0.0638  0.1904
  177SLPC  H15A20123   1.961   1.864  11.490  0.0619  0.7112 -0.0640
  177SLPC  H15B20124   1.941   1.879  11.322  1.9231  1.8449  0.3077
  177SLPC  H15C20125   1.933   1.718  11.389 -0.6758 -0.0027 -0.0257
  177SLPC   C1220126   2.168   1.800  11.226  0.2743 -0.2816  0.2246
  177SLPC  H12A20127   2.134   1.708  11.181 -1.0318  0.3708 -0.2000
  177SLPC  H12B20128   2.272   1.775  11.216  0.4590  0.5046  0.1015
  177SLPC   C1120129   2.139   1.916  11.130  0.0003  0.4733  0.5162
  177SLPC  H11A20130   2.030   1.916  11.108  0.3029 -1.9654 -1.3746
  177SLPC  H11B20131   2.163   1.898  11.023 -0.1398  2.2889  0.1330
  177SLPC     P20132   2.349   2.069  11.149 -0.3168 -0.0280  0.1428
  177SLPC   O1320133   2.407   2.136  11.262  0.5750 -0.3229  0.2827
  177SLPC   O1420134   2.414   1.940  11.114  0.3357 -0.5978 -0.6335
  177SLPC   O1220135   2.194   2.042  11.171  0.2323 -0.0908 -0.7137
  177SLPC   O1120136   2.347   2.170  11.026  0.4064  0.1012  0.2954
  177SLPC    C120137   2.302   2.134  10.895  0.0011  0.7119  0.6059
  177SLPC    HA20138   2.370   2.168  10.813 -0.1274 -0.2817  0.0792
  177SLPC    HB20139   2.285   2.027  10.874 -0.7660  0.8621  0.4427
  177SLPC    C220140   2.153   2.190  10.887 -0.5725 -0.1142  0.3634
  177SLPC    HS20141   2.097   2.151  10.975 -1.7888  1.0196  0.1182
  177SLPC   O2120142   2.098   2.132  10.767  0.5249  0.0209  0.2003
  177SLPC   C2120143   1.969   2.132  10.755 -0.6609 -0.0748 -0.7126
  177SLPC   O2220144   1.889   2.192  10.830 -0.8768  0.6064 -0.2121
  177SLPC   C2220145   1.931   2.064  10.627  0.4411  0.1874 -0.4218
  177SLPC   H2R20146   2.019   2.055  10.560  2.9434 -1.1432  2.7796
  177SLPC   H2S20147   1.915   1.959  10.660  1.0277  0.6948  1.6157
  177SLPC    C320148   2.156   2.351  10.892 -0.2029  0.3440 -0.0954
  177SLPC    HX20149   2.205   2.366  10.990  0.1308  0.5420 -0.2911
  177SLPC    HY20150   2.052   2.390  10.901  0.4735  2.0401  0.7176
  177SLPC   O3120151   2.229   2.393  10.778 -0.3166  0.8329  0.1878
  177SLPC   C3120152   2.158   2.440  10.680  0.0142  0.0888  0.0374
  177SLPC   O3220153   2.037   2.427  10.669 -0.3149  0.3569 -0.0899
  177SLPC   C3220154   2.253   2.514  10.588  0.0806  0.3868 -0.3775
  177SLPC   H2X20155   2.340   2.556  10.643  0.4716  3.8699 -3.2639
  177SLPC   H2Y20156   2.210   2.609  10.549  0.8880  0.5158 -0.9873
  177SLPC   C2320157   1.804   2.123  10.569  0.1826  0.4140 -0.4834
  177SLPC   H3R20158   1.819   2.230  10.543  2.9180  0.0803 -0.5451
  177SLPC   H3S20159   1.724   2.127  10.646 -0.4660 -1.0308 -1.0593
  177SLPC   C2420160   1.757   2.057  10.437  0.0237 -0.4940 -0.0692
  177SLPC   H4R20161   1.822   2.082  10.350 -1.7712  0.4452 -1.2049
  177SLPC   H4S20162   1.656   2.094  10.409 -0.6281 -1.9374  0.3008
  177SLPC   C2520163   1.742   1.906  10.442  0.0377 -0.0233  0.0666
  177SLPC   H5R20164   1.711   1.871  10.543  0.1192  0.1204  0.1410
  177SLPC   H5S20165   1.841   1.861  10.420 -0.0416  1.3502 -3.8095
  177SLPC   C2620166   1.649   1.848  10.332 -0.5071  0.1663  0.4259
  177SLPC   H6R20167   1.550   1.898  10.326 -0.3927  0.5649  1.5704
  177SLPC   H6S20168   1.627   1.746  10.371  3.2688  0.0855  2.9123
  177SLPC   C2720169   1.711   1.841  10.191 -0.1114 -0.3383  0.2720
  177SLPC   H7R20170   1.808   1.787  10.200  1.4400  1.9849 -1.2345
  177SLPC   H7S20171   1.745   1.940  10.153  2.7607 -0.5623  1.9540
  177SLPC   C2820172   1.637   1.780  10.072  0.1962 -0.3228  0.5039
  177SLPC   H8R20173   1.603   1.677  10.094 -0.8904 -0.2683 -0.7820
  177SLPC   H8S20174   1.699   1.771   9.980 -2.7806  2.8277 -2.0931
  177SLPC   C2920175   1.503   1.846  10.048 -0.8710  0.1221  0.0402
  177SLPC   H9R20176   1.431   1.832  10.130  0.5514 -0.4168  1.2426
  177SLPC  C21020177   1.467   1.912   9.938 -0.4316  0.5080  0.0535
  177SLPC  H10R20178   1.368   1.960   9.937 -0.9573 -0.5487  0.2266
  177SLPC  C21120179   1.566   1.940   9.820  1.4597  1.2906 -0.1404
  177SLPC  H11R20180   1.667   1.961   9.862  1.8130 -1.9708  0.8715
  177SLPC  H11S20181   1.569   1.856   9.748  1.5421  2.0759 -1.0785
  177SLPC  C21220182   1.521   2.068   9.753 -0.5403  0.2816  0.5270
  177SLPC  H12R20183   1.530   2.157   9.817  1.2669  2.1289 -2.1018
  177SLPC  C21320184   1.479   2.079   9.627 -0.0442  0.5743  0.0645
  177SLPC  H13R20185   1.443   2.172   9.581 -0.2912 -0.0316 -0.9971
  177SLPC  C21420186   1.477   1.961   9.529 -0.4759  0.1062  0.3785
  177SLPC  H14R20187   1.400   1.954   9.449 -0.7796  1.5374  0.5223
  177SLPC  H14S20188   1.451   1.864   9.578 -1.1880  0.1621  0.1252
  177SLPC  C21520189   1.620   1.932   9.484  0.5147  0.4951 -0.0576
  177SLPC  H15R20190   1.687   1.932   9.573 -0.7588 -1.1156  0.9620
  177SLPC  H15S20191   1.644   2.020   9.421  1.3724 -0.0967 -0.5822
  177SLPC  C21620192   1.631   1.795   9.410  0.3236 -0.1658 -0.0537
  177SLPC  H16R20193   1.580   1.810   9.313  0.2115 -1.5325 -0.2289
  177SLPC  H16S20194   1.569   1.720   9.463  0.4820  0.3028  0.8112
  177SLPC  C21720195   1.771   1.745   9.388 -0.3873 -0.3645 -0.2965
  177SLPC  H17R20196   1.752   1.637   9.370 -2.4944  0.0099 -0.6257
  177SLPC  H17S20197   1.830   1.761   9.480  0.0464 -0.3788 -0.5674
  177SLPC  C21820198   1.843   1.795   9.260 -0.5445 -0.5660  0.2805
  177SLPC  H18R20199   1.942   1.746   9.252  0.0060  0.6530 -0.9328
  177SLPC  H18S20200   1.851   1.906   9.262 -0.2646 -0.5915  0.8045
  177SLPC  H18T20201   1.789   1.763   9.168 -2.5148 -1.7377  1.7742
  177SLPC   C3320202   2.286   2.431  10.462  0.3146 -0.4520 -0.0522
  177SLPC   H3X20203   2.192   2.417  10.404  0.4584  0.7987 -0.6203
  177SLPC   H3Y20204   2.315   2.328  10.492  0.1012 -0.2553  0.8550
  177SLPC   C3420205   2.398   2.491  10.372  0.6099  0.8007 -0.1166
  177SLPC   H4X20206   2.491   2.431  10.377  1.8672  2.7138  0.8828
  177SLPC   H4Y20207   2.420   2.580  10.435  0.5154  0.4194  0.4653
  177SLPC   C3520208   2.368   2.528  10.229 -0.5162  0.3119  0.7373
  177SLPC   H5X20209   2.376   2.441  10.160  1.2186  1.7402 -0.9816
  177SLPC   H5Y20210   2.452   2.596  10.207  1.0622 -1.1346  2.0410
  177SLPC   C3620211   2.232   2.599  10.209 -0.4190 -0.2848  0.8061
  177SLPC   H6X20212   2.217   2.667  10.295  0.8209  1.5361 -0.3446
  177SLPC   H6Y20213   2.151   2.524  10.202  0.2330 -0.8474 -2.5909
  177SLPC   C3720214   2.225   2.676  10.076  0.3341 -0.4799  0.4206
  177SLPC   H7X20215   2.281   2.771  10.065 -2.1165  0.9255 -0.5515
  177SLPC   H7Y20216   2.122   2.715  10.082  0.3283 -0.7005  2.4574
  177SLPC   C3820217   2.252   2.592   9.949  0.5135 -0.2595  0.2031
  177SLPC   H8X20218   2.188   2.501   9.959 -0.5819  0.5449  0.8103
  177SLPC   H8Y20219   2.355   2.554   9.936 -0.9498 -4.8157  0.1024
  177SLPC   C3920220   2.208   2.654   9.819  0.0797 -0.0233  0.8689
  177SLPC   H9X20221   2.267   2.747   9.804  3.4914 -1.8827  1.5705
  177SLPC   H9Y20222   2.104   2.691   9.822  0.1217  0.1465  0.2334
  177SLPC  C31020223   2.209   2.558   9.704  0.1559 -0.0973  1.1487
  177SLPC  H10X20224   2.134   2.480   9.727  0.2355 -0.1763  1.1369
  177SLPC  H10Y20225   2.311   2.514   9.692  0.2876  0.3950  0.3945
  177SLPC  C31120226   2.165   2.624   9.576 -0.4798  0.6504  0.1664
  177SLPC  H11X20227   2.062   2.662   9.591 -1.8701 -3.2292  1.7974
  177SLPC  H11Y20228   2.160   2.537   9.507 -3.3118 -0.1803  1.3029
  177SLPC  C31220229   2.261   2.733   9.518 -0.9521  0.5123 -0.0488
  177SLPC  H12X20230   2.359   2.694   9.484 -0.5145  0.1785  1.4976
  177SLPC  H12Y20231   2.278   2.805   9.602 -0.0111 -1.3097  1.4059
  177SLPC  C31320232   2.215   2.807   9.380 -0.1939  0.7745 -0.3560
  177SLPC  H13X20233   2.119   2.861   9.397  1.6406  3.9858  0.4708
  177SLPC  H13Y20234   2.185   2.737   9.299 -3.2932  1.7843 -0.2348
  177SLPC  C31420235   2.309   2.922   9.344 -0.3320 -0.9886 -0.1868
  177SLPC  H14X20236   2.411   2.879   9.351 -0.3226 -0.9118  0.1290
  177SLPC  H14Y20237   2.285   3.000   9.419 -2.7877 -1.0715 -0.7962
  177SLPC  C31520238   2.280   2.987   9.208 -0.0048 -0.3826  0.5614
  177SLPC  H15X20239   2.225   2.908   9.152 -0.9643  1.3605 -1.0841
  177SLPC  H15Y20240   2.376   2.995   9.152  0.0775 -0.7551  0.6466
  177SLPC  C31620241   2.198   3.114   9.219 -0.3433  0.0725  0.1098
  177SLPC  H16X20242   2.187   3.151   9.115 -1.9392  1.7642  0.8321
  177SLPC  H16Y20243   2.250   3.189   9.283  0.8311  0.2798 -1.0323
  177SLPC  C31720244   2.057   3.098   9.264 -0.1385 -0.8714 -0.1489
  177SLPC  H17X20245   2.063   3.070   9.371 -1.4524  0.5829  0.3458
  177SLPC  H17Y20246   1.998   3.021   9.210 -0.2424 -1.0690  0.2449
  177SLPC  C31820247   1.986   3.237   9.254  0.3351  0.1432  0.3609
  177SLPC  H18X20248   1.894   3.235   9.316  0.3094  1.6946  0.4064
  177SLPC  H18Y20249   1.968   3.255   9.145  0.4966  1.1537  0.4916
  177SLPC  H18Z20250   2.049   3.326   9.276 -1.7486  2.2620 -1.5278
  178SLPC     N20251   2.954   3.770  11.538  0.9296 -0.1122 -0.3525
  178SLPC   C1320252   2.807   3.727  11.524  0.3517 -0.0683  0.8240
  178SLPC  H13A20253   2.760   3.743  11.620 -0.9707 -0.1077  0.2105
  178SLPC  H13B20254   2.745   3.779  11.453  0.0723 -1.6986 -0.1830
  178SLPC  H13C20255   2.803   3.623  11.495  2.8262  0.0736 -0.2874
  178SLPC   C1420256   3.030   3.681  11.630  0.4074 -0.5889  0.1216
  178SLPC  H14A20257   2.987   3.683  11.729  2.2792  1.6224  0.9935
  178SLPC  H14B20258   3.025   3.584  11.584 -4.3812  0.2627 -1.7102
  178SLPC  H14C20259   3.132   3.713  11.649 -0.0292  0.1657  1.3344
  178SLPC   C1520260   2.969   3.908  11.578 -0.8868 -0.0311  0.4312
  178SLPC  H15A20261   3.071   3.942  11.584 -0.1592 -0.6897 -4.4117
  178SLPC  H15B20262   2.924   3.968  11.500 -0.6883 -0.0969  0.2639
  178SLPC  H15C20263   2.917   3.921  11.672 -1.4906 -2.5225  0.5275
  178SLPC   C1220264   3.017   3.765  11.395  0.6351  0.3174 -0.3530
  178SLPC  H12A20265   3.015   3.666  11.351 -0.9062  1.4294 -3.0413
  178SLPC  H12B20266   3.121   3.794  11.403  0.5513  0.7873 -0.8587
  178SLPC   C1120267   2.959   3.856  11.285  0.1270  0.3795  0.2042
  178SLPC  H11A20268   2.848   3.850  11.286  0.1038  0.4933  2.1767
  178SLPC  H11B20269   2.992   3.814  11.188 -0.8343  1.8540 -0.8054
  178SLPC     P20270   2.949   4.099  11.214 -0.1947  0.1877  0.0694
  178SLPC   O1320271   2.799   4.078  11.224  0.3756 -0.5186  0.0883
  178SLPC   O1420272   3.002   4.227  11.262  0.3652 -0.0177 -0.6333
  178SLPC   O1220273   3.008   3.989  11.307  0.5820 -0.0719 -0.0589
  178SLPC   O1120274   3.009   4.063  11.072 -0.5808  0.0095  0.1366
  178SLPC    C120275   3.114   4.124  11.004  0.5206 -0.2685 -0.2060
  178SLPC    HA20276   3.098   4.126  10.893 -2.0208  1.3449  0.0871
  178SLPC    HB20277   3.119   4.234  11.022 -0.2662 -0.1288 -0.7613
  178SLPC    C220278   3.249   4.067  11.034 -0.4730  0.9154 -0.5693
  178SLPC    HS20279   3.275   4.101  11.137  1.6296  0.7927 -1.0095
  178SLPC   O2120280   3.347   4.121  10.943 -0.3234 -0.1291  0.0710
  178SLPC   C2120281   3.473   4.107  10.977  0.1341  0.1915  0.0452
  178SLPC   O2220282   3.509   4.052  11.080  0.3600 -0.0145  0.2729
  178SLPC   C2220283   3.559   4.156  10.861 -0.0593 -0.0424 -0.2388
  178SLPC   H2R20284   3.662   4.173  10.899 -0.3465 -0.5118  0.7793
  178SLPC   H2S20285   3.561   4.071  10.790  2.2428  0.9561 -1.5088
  178SLPC    C320286   3.253   3.908  11.032 -0.1721  0.3193 -0.3539
  178SLPC    HX20287   3.165   3.889  11.097 -0.8500 -0.0153 -1.3302
  178SLPC    HY20288   3.331   3.856  11.092  0.6821  1.5531 -0.3710
  178SLPC   O3120289   3.240   3.856  10.892 -0.1115  0.2784  0.3428
  178SLPC   C3120290   3.189   3.739  10.889 -0.1371  0.9041 -0.4842
  178SLPC   O3220291   3.139   3.682  10.984  0.3611 -0.2832  0.3563
  178SLPC   C3220292   3.219   3.668  10.757 -0.3701 -0.1631  0.4972
  178SLPC   H2X20293   3.329   3.654  10.754 -0.3302 -0.0697  1.2557
  178SLPC   H2Y20294   3.199   3.735  10.671 -0.3956 -2.0104 -1.0132
  178SLPC   C2320295   3.493   4.275  10.790  0.2197  0.6804  0.4990
  178SLPC   H3R20296   3.484   4.355  10.866 -0.0631 -0.4133  1.6487
  178SLPC   H3S20297   3.394   4.248  10.747 -0.2664  2.0056  0.7516
  178SLPC   C2420298   3.576   4.328  10.673 -0.2861  0.7075 -0.5212
  178SLPC   H4R20299   3.633   4.245  10.626 -0.6479 -0.4311  0.9769
  178SLPC   H4S20300   3.660   4.392  10.709  0.0947  0.3083 -0.6901
  178SLPC   C2520301   3.498   4.408  10.569  1.3915 -0.2772 -0.2510
  178SLPC   H5R20302   3.572   4.482  10.532 -0.8467  1.9225 -0.6221
  178SLPC   H5S20303   3.408   4.463  10.605  1.1438 -1.9065  1.8493
  178SLPC   C2620304   3.444   4.324  10.449 -0.7534  0.0201  0.6279
  178SLPC   H6R20305   3.388   4.233  10.480 -3.1447  0.9452 -0.7219
  178SLPC   H6S20306   3.528   4.285  10.387  0.0709 -0.4793  1.9954
  178SLPC   C2720307   3.343   4.406  10.372  0.3210 -0.1041  0.9087
  178SLPC   H7R20308   3.393   4.499  10.338 -1.6708  0.5760 -0.3687
  178SLPC   H7S20309   3.257   4.440  10.435  0.6033  0.3338  1.0623
  178SLPC   C2820310   3.291   4.334  10.251 -0.1756 -0.3559  0.6131
  178SLPC   H8R20311   3.240   4.243  10.287  0.5088 -1.2787 -0.6773
  178SLPC   H8S20312   3.373   4.306  10.182  0.6003 -1.3186  1.8842
  178SLPC   C2920313   3.192   4.419  10.179  0.2178  0.0960  0.1420
  178SLPC   H9R20314   3.113   4.466  10.240  0.9561  1.3881  0.1465
  178SLPC  C21020315   3.192   4.449  10.045  0.0772  0.1837 -0.2973
  178SLPC  H10R20316   3.120   4.521  10.004  1.1062  1.1306 -0.4919
  178SLPC  C21120317   3.286   4.386   9.944 -0.4704  0.4132  0.2884
  178SLPC  H11R20318   3.222   4.374   9.854  0.3159  0.8670 -0.3542
  178SLPC  H11S20319   3.324   4.287   9.979 -1.4246 -0.2364 -0.4464
  178SLPC  C21220320   3.400   4.464   9.889 -0.3117 -0.1865  0.5293
  178SLPC  H12R20321   3.460   4.508   9.970  0.2478 -1.0872  0.6134
  178SLPC  C21320322   3.440   4.484   9.764 -0.5727  0.3285  0.4074
  178SLPC  H13R20323   3.528   4.549   9.755  2.3256 -2.6226  3.8740
  178SLPC  C21420324   3.387   4.418   9.642  0.3207 -0.3051  0.3398
  178SLPC  H14R20325   3.346   4.315   9.650  0.7571 -0.6362 -1.3011
  178SLPC  H14S20326   3.478   4.412   9.577  2.4688  0.7634  3.0528
  178SLPC  C21520327   3.279   4.510   9.587  0.3408  0.0005  0.3251
  178SLPC  H15R20328   3.297   4.619   9.604 -0.4893 -0.0121  1.4182
  178SLPC  H15S20329   3.191   4.495   9.653 -0.0243 -0.9201 -0.3525
  178SLPC  C21620330   3.226   4.470   9.455  0.2257  1.1455 -0.1354
  178SLPC  H16R20331   3.130   4.523   9.436 -0.6520  0.4939  2.0698
  178SLPC  H16S20332   3.201   4.362   9.449  1.2277  0.9489 -0.9711
  178SLPC  C21720333   3.328   4.509   9.352  0.3678 -0.0984 -0.3058
  178SLPC  H17R20334   3.400   4.425   9.341 -0.5461 -0.8904 -0.3394
  178SLPC  H17S20335   3.375   4.605   9.382 -0.7693  0.5424 -0.5289
  178SLPC  C21820336   3.261   4.546   9.222  0.6333 -0.1960 -0.4148
  178SLPC  H18R20337   3.188   4.469   9.189 -0.3247  0.6927 -0.4061
  178SLPC  H18S20338   3.338   4.554   9.142 -0.2523  0.0453 -1.2596
  178SLPC  H18T20339   3.205   4.642   9.229 -0.0360 -0.7356  3.6015
  178SLPC   C3320340   3.135   3.534  10.743  0.1451 -0.7176 -0.7855
  178SLPC   H3X20341   3.038   3.544  10.796 -0.0597  2.6488 -1.5721
  178SLPC   H3Y20342   3.187   3.453  10.798 -1.4220  0.3809  2.5398
  178SLPC   C3420343   3.105   3.499  10.599 -0.0506 -0.0883  0.2778
  178SLPC   H4X20344   3.014   3.557  10.572 -0.2568  0.9471  2.9256
  178SLPC   H4Y20345   3.074   3.393  10.595 -1.9351  0.4149  0.7402
  178SLPC   C3520346   3.211   3.522  10.493  0.5037 -0.6510 -1.0908
  178SLPC   H5X20347   3.302   3.466  10.523 -0.4071 -0.9884  1.2278
  178SLPC   H5Y20348   3.238   3.630  10.499 -0.4937 -0.4514  0.0672
  178SLPC   C3620349   3.168   3.484  10.357 -0.6629 -0.2594 -0.3587
  178SLPC   H6X20350   3.058   3.499  10.347 -0.5928 -0.0555 -0.8895
  178SLPC   H6Y20351   3.190   3.376  10.351  0.4224 -0.1812  1.4136
  178SLPC   C3720352   3.242   3.563  10.246 -0.2182  0.0215  0.0016
  178SLPC   H7X20353   3.350   3.536  10.250 -0.0335  0.7532  3.7608
  178SLPC   H7Y20354   3.245   3.668  10.281  1.5369 -0.3480  1.1291
  178SLPC   C3820355   3.175   3.552  10.111 -0.1680 -0.2239  0.5533
  178SLPC   H8X20356   3.069   3.583  10.121 -0.3477 -0.2871 -0.9440
  178SLPC   H8Y20357   3.176   3.446  10.079 -0.7078 -0.3785  1.0501
  178SLPC   C3920358   3.244   3.626   9.994 -0.7306  0.2435 -0.4123
  178SLPC   H9X20359   3.351   3.598   9.982 -0.9885 -0.5893 -0.8212
  178SLPC   H9Y20360   3.244   3.733  10.025 -1.1538 -0.2192  1.2957
  178SLPC  C31020361   3.163   3.623   9.862  0.1511 -0.2726 -0.8570
  178SLPC  H10X20362   3.092   3.707   9.876  2.0770  1.0154  2.3855
  178SLPC  H10Y20363   3.122   3.520   9.861  0.7937 -0.5318 -1.4697
  178SLPC  C31120364   3.231   3.652   9.727  0.0061 -0.5606  0.8460
  178SLPC  H11X20365   3.262   3.759   9.728  0.6973 -0.7496  0.4707
  178SLPC  H11Y20366   3.166   3.638   9.638  1.9678 -1.1767 -0.5531
  178SLPC  C31220367   3.344   3.559   9.702 -0.0173  0.0529 -0.0181
  178SLPC  H12X20368   3.313   3.456   9.728  0.3497 -0.0668 -0.0491
  178SLPC  H12Y20369   3.415   3.580   9.785 -2.8019  1.2626  2.2466
  178SLPC  C31320370   3.405   3.554   9.557 -0.7405  0.1342 -0.4962
  178SLPC  H13X20371   3.453   3.649   9.527  1.6819 -0.2439  1.8057
  178SLPC  H13Y20372   3.311   3.549   9.497 -2.0519  0.8226  1.4027
  178SLPC  C31420373   3.501   3.434   9.518 -0.0267 -0.9914  0.1755
  178SLPC  H14X20374   3.447   3.338   9.525 -0.7154 -0.5235  1.6467
  178SLPC  H14Y20375   3.594   3.434   9.579 -1.6733 -2.2216  2.8883
  178SLPC  C31520376   3.536   3.447   9.370 -0.0859  0.1022 -0.5690
  178SLPC  H15X20377   3.440   3.441   9.315  0.2492  1.3054 -1.3117
  178SLPC  H15Y20378   3.590   3.541   9.346 -0.4827 -0.2082 -2.8698
  178SLPC  C31620379   3.636   3.336   9.323 -0.6478 -0.7712  0.3657
  178SLPC  H16X20380   3.595   3.241   9.362 -0.6103 -0.6704  0.6605
  178SLPC  H16Y20381   3.732   3.365   9.371 -0.6940  1.7505 -0.8876
  178SLPC  C31720382   3.666   3.330   9.169 -0.2756 -0.2319  0.0939
  178SLPC  H17X20383   3.727   3.420   9.149  0.7391  0.0395  3.7877
  178SLPC  H17Y20384   3.574   3.340   9.107  2.7923  4.1951 -4.6167
  178SLPC  C31820385   3.744   3.210   9.107  0.7198  0.1654 -0.3764
  178SLPC  H18X20386   3.686   3.115   9.103  1.0652 -0.0318 -0.7897
  178SLPC  H18Y20387   3.828   3.175   9.171  0.4003 -1.2077 -0.6771
  178SLPC  H18Z20388   3.782   3.231   9.005  0.9759  0.2265 -0.2714
  179SLPC     N20389   5.061   5.794  10.888  0.1005 -0.5158 -0.3004
  179SLPC   C1320390   5.209   5.831  10.881  0.1950 -0.2282 -0.2096
  179SLPC  H13A20391   5.245   5.811  10.781  1.2205  0.0559  0.0939
  179SLPC  H13B20392   5.232   5.933  10.910 -1.1267 -0.0873  0.4491
  179SLPC  H13C20393   5.270   5.771  10.946  0.1299  0.1714  0.2261
  179SLPC   C1420394   4.983   5.889  10.793 -0.1448  0.1903 -0.3593
  179SLPC  H14A20395   5.016   5.991  10.811 -0.0051  0.5163 -2.1728
  179SLPC  H14B20396   5.011   5.868  10.690 -2.2683 -0.3544 -0.8685
  179SLPC  H14C20397   4.876   5.885  10.806 -0.1824 -1.5378 -1.0389
  179SLPC   C1520398   5.029   5.836  11.031  0.6078  0.0771 -0.3411
  179SLPC  H15A20399   5.062   5.936  11.056 -0.0085 -0.2767  2.2026
  179SLPC  H15B20400   4.923   5.836  11.048  0.9683 -0.2413  2.3676
  179SLPC  H15C20401   5.078   5.773  11.103  0.1159  0.1051  0.0216
  179SLPC   C1220402   5.020   5.656  10.865 -0.1033 -0.7077  0.1586
  179SLPC  H12A20403   4.930   5.627  10.917 -0.0250 -0.2110  0.5783
  179SLPC  H12B20404   5.097   5.590  10.901  0.9117 -0.8960 -2.1785
  179SLPC   C1120405   4.995   5.602  10.723  0.2307 -0.2920 -0.0224
  179SLPC  H11A20406   4.913   5.668  10.687  1.8297  2.2874  0.7711
  179SLPC  H11B20407   4.954   5.499  10.725 -1.2220  0.2652  2.1175
  179SLPC     P20408   5.232   5.564  10.625 -0.5735  0.0194 -0.1856
  179SLPC   O1320409   5.329   5.657  10.581 -0.0988  0.7089 -0.8880
  179SLPC   O1420410   5.257   5.500  10.755  0.3515 -0.1305  0.3069
  179SLPC   O1220411   5.095   5.636  10.630 -0.4245  0.2667 -0.1200
  179SLPC   O1120412   5.218   5.451  10.513  0.2139 -0.5919  0.1048
  179SLPC    C120413   5.165   5.490  10.379 -0.3472  0.4478 -0.3412
  179SLPC    HA20414   5.056   5.508  10.384 -0.3895 -0.0587  0.7855
  179SLPC    HB20415   5.204   5.586  10.339 -0.3787  1.5319  2.0423
  179SLPC    C220416   5.207   5.383  10.269 -0.9847  0.5924  0.3134
  179SLPC    HS20417   5.157   5.404  10.172 -0.9111 -1.0431 -0.0988
  179SLPC   O2120418   5.181   5.245  10.306  0.1945 -0.1441 -0.0108
  179SLPC   C2120419   5.055   5.201  10.309 -0.2506 -0.1570  0.0187
  179SLPC   O2220420   4.958   5.269  10.285  0.5059  0.0842 -0.1029
  179SLPC   C2220421   5.047   5.050  10.342 -0.0837 -0.1825 -0.1411
  179SLPC   H2R20422   5.107   5.046  10.435  3.2544  0.8062 -2.1062
  179SLPC   H2S20423   4.941   5.020  10.354  0.0364 -1.1053 -1.2944
  179SLPC    C320424   5.359   5.402  10.242 -0.0750  0.1023 -0.6300
  179SLPC    HX20425   5.428   5.355  10.315  0.5219 -0.1504 -1.3424
  179SLPC    HY20426   5.375   5.512  10.235 -1.2281  0.2316 -1.6018
  179SLPC   O3120427   5.386   5.343  10.109 -0.5308 -0.6588 -0.3585
  179SLPC   C3120428   5.412   5.214  10.108 -0.1388  0.6037  0.0140
  179SLPC   O3220429   5.421   5.135  10.198  0.0017  0.9329  0.4596
  179SLPC   C3220430   5.439   5.167   9.965  0.0007 -0.0620  0.4613
  179SLPC   H2X20431   5.409   5.060   9.962 -3.8156  0.9021 -2.1201
  179SLPC   H2Y20432   5.548   5.175   9.943 -0.5625  0.9559 -2.3511
  179SLPC   C2320433   5.117   4.973  10.232 -0.7515 -0.1634 -0.1522
  179SLPC   H3R20434   5.138   4.865  10.251  1.9209  0.5814  1.7245
  179SLPC   H3S20435   5.218   5.017  10.217 -1.3252  1.2917  0.1155
  179SLPC   C2420436   5.054   4.995  10.091  0.0610  0.0175 -0.0603
  179SLPC   H4R20437   5.050   5.100  10.054  2.6654 -0.0673 -0.8240
  179SLPC   H4S20438   4.953   4.949  10.091 -0.2347  0.6235 -0.9960
  179SLPC   C2520439   5.124   4.918   9.976  0.2098  0.0979  1.1264
  179SLPC   H5R20440   5.090   4.813   9.985 -2.9812  0.8451 -0.7494
  179SLPC   H5S20441   5.233   4.929   9.994  0.1359  0.7996  1.1747
  179SLPC   C2620442   5.082   4.969   9.831 -0.2435 -0.3930 -0.1035
  179SLPC   H6R20443   5.157   4.923   9.763  0.6283 -0.1054  0.6491
  179SLPC   H6S20444   5.084   5.078   9.809 -1.7443 -0.1643  0.7725
  179SLPC   C2720445   4.946   4.905   9.792 -0.4744 -0.4934  0.5856
  179SLPC   H7R20446   4.879   4.955   9.866 -0.4865 -0.2928  0.4390
  179SLPC   H7S20447   4.924   4.797   9.799 -1.4871 -0.3027  0.4623
  179SLPC   C2820448   4.904   4.932   9.647 -0.2352  0.1069 -0.2484
  179SLPC   H8R20449   4.822   4.860   9.629 -1.1605  1.2267 -0.5955
  179SLPC   H8S20450   4.985   4.897   9.579  0.7234  0.3984  0.7108
  179SLPC   C2920451   4.855   5.070   9.619 -0.0433 -0.4276  0.8403
  179SLPC   H9R20452   4.921   5.148   9.659  1.4000 -1.8523  1.3558
  179SLPC  C21020453   4.745   5.117   9.552 -0.0152  0.6341  0.0407
  179SLPC  H10R20454   4.727   5.224   9.535 -0.3709  0.6271  0.3503
  179SLPC  C21120455   4.643   5.038   9.476 -0.0424 -0.3734 -0.1449
  179SLPC  H11R20456   4.564   5.027   9.554  0.7812 -1.0255  0.6267
  179SLPC  H11S20457   4.689   4.940   9.452  1.3493  0.1389  0.3140
  179SLPC  C21220458   4.577   5.116   9.362  0.5085  0.2803 -0.1507
  179SLPC  H12R20459   4.541   5.215   9.393  1.5383  0.5027  0.3702
  179SLPC  C21320460   4.530   5.072   9.245 -0.0684  0.3843  0.0058
  179SLPC  H13R20461   4.477   5.136   9.173  4.0664  0.9444 -2.9106
  179SLPC  C21420462   4.542   4.934   9.190  0.0647 -0.0566  1.0428
  179SLPC  H14R20463   4.546   4.861   9.273  0.5085 -0.0225  1.0531
  179SLPC  H14S20464   4.625   4.945   9.117 -1.4242  0.9881 -0.5967
  179SLPC  C21520465   4.427   4.872   9.105 -0.1086  0.1607  0.5622
  179SLPC  H15R20466   4.460   4.784   9.047 -2.2666 -1.6198  1.8880
  179SLPC  H15S20467   4.380   4.948   9.038  1.6004  0.6404 -0.1393
  179SLPC  C21620468   4.313   4.828   9.197  0.3044  0.6010 -0.2881
  179SLPC  H16R20469   4.292   4.912   9.267 -1.1127  0.8610 -1.0109
  179SLPC  H16S20470   4.357   4.749   9.262 -1.5902 -0.5782 -0.3661
  179SLPC  C21720471   4.182   4.787   9.128 -0.2068 -0.0808 -0.4155
  179SLPC  H17R20472   4.163   4.839   9.032  0.3979 -1.3391 -1.2507
  179SLPC  H17S20473   4.106   4.823   9.201  2.4235  1.8323  1.5676
  179SLPC  C21820474   4.164   4.634   9.108  0.4569 -0.6330  0.8257
  179SLPC  H18R20475   4.055   4.609   9.108  0.0631  0.9406  1.6759
  179SLPC  H18S20476   4.222   4.577   9.184  3.0577  2.2972  1.2478
  179SLPC  H18T20477   4.196   4.608   9.005 -0.8175  1.5800 -0.2056
  179SLPC   C3320478   5.365   5.248   9.857 -0.3671 -0.4334  0.3547
  179SLPC   H3X20479   5.377   5.358   9.849 -1.1402 -0.2427  1.4415
  179SLPC   H3Y20480   5.262   5.244   9.900 -0.3612 -2.2045  0.2725
  179SLPC   C3420481   5.370   5.177   9.719 -0.2837  0.6916 -0.8701
  179SLPC   H4X20482   5.348   5.069   9.733 -0.8113  0.9979  0.9619
  179SLPC   H4Y20483   5.476   5.186   9.685  0.7773 -2.0110  1.3236
  179SLPC   C3520484   5.278   5.250   9.615  0.2220 -0.1445 -0.2230
  179SLPC   H5X20485   5.289   5.359   9.636  3.6664 -0.4076 -0.2019
  179SLPC   H5Y20486   5.171   5.228   9.637  0.3157  0.4246  0.8714
  179SLPC   C3620487   5.323   5.213   9.472  0.7323 -0.2409 -0.1397
  179SLPC   H6X20488   5.327   5.102   9.469 -5.0452 -0.7412 -0.3551
  179SLPC   H6Y20489   5.423   5.251   9.442 -0.8075  2.0000 -3.0003
  179SLPC   C3720490   5.230   5.266   9.355  0.2144  0.3719  0.0587
  179SLPC   H7X20491   5.258   5.241   9.251 -3.0722  0.3428 -0.9205
  179SLPC   H7Y20492   5.246   5.376   9.353 -0.8700  0.5281 -1.4686
  179SLPC   C3820493   5.080   5.234   9.369  0.1796 -0.3295  0.2966
  179SLPC   H8X20494   5.042   5.315   9.434  0.7347  0.5722 -0.4654
  179SLPC   H8Y20495   5.058   5.141   9.426  1.1202 -0.4657  0.4503
  179SLPC   C3920496   4.999   5.237   9.240 -0.4305  0.0820 -0.4690
  179SLPC   H9X20497   4.893   5.235   9.274 -0.3148  0.6122 -0.0746
  179SLPC   H9Y20498   5.021   5.149   9.176 -0.4400 -1.3208  1.3796
  179SLPC  C31020499   5.008   5.379   9.168  0.1415  0.3155 -0.4126
  179SLPC  H10X20500   5.103   5.382   9.109 -0.4094  0.6213 -1.3019
  179SLPC  H10Y20501   5.005   5.460   9.245 -1.8593  0.4750 -0.5996
  179SLPC  C31120502   4.893   5.408   9.069  0.0839 -0.2842 -0.7434
  179SLPC  H11X20503   4.797   5.423   9.124  0.7863  0.6681  0.2691
  179SLPC  H11Y20504   4.882   5.317   9.008  0.7794  1.1604 -3.1347
  179SLPC  C31220505   4.917   5.544   8.998  0.2500  0.0118  0.5604
  179SLPC  H12X20506   4.931   5.619   9.079 -0.5787  0.1353  0.5971
  179SLPC  H12Y20507   4.832   5.586   8.942 -0.4155  0.3697  1.7968
  179SLPC  C31320508   5.030   5.538   8.896  0.0240 -0.0618  0.2649
  179SLPC  H13X20509   5.003   5.454   8.829 -1.5540  0.6445 -0.0366
  179SLPC  H13Y20510   5.133   5.515   8.932  0.0386  0.3281  0.4859
  179SLPC  C31420511   5.050   5.671   8.818 -0.0534  0.2018 -0.5078
  179SLPC  H14X20512   4.956   5.702   8.769  0.0904  1.0599 -0.2451
  179SLPC  H14Y20513   5.116   5.634   8.736 -0.7643 -1.3527 -0.4142
  179SLPC  C31520514   5.116   5.782   8.897 -0.2662 -0.2049  0.1067
  179SLPC  H15X20515   5.222   5.753   8.911 -0.3523 -0.5371  0.0801
  179SLPC  H15Y20516   5.076   5.785   9.001 -0.9421 -2.2758 -0.0489
  179SLPC  C31620517   5.112   5.915   8.828 -0.2472  0.1319  0.5411
  179SLPC  H16X20518   5.128   5.905   8.719  2.0002  1.5712  0.6674
  179SLPC  H16Y20519   5.192   5.975   8.876 -0.1123 -0.7860  1.4950
  179SLPC  C31720520   4.976   5.971   8.868 -0.1725 -0.6193 -0.4961
  179SLPC  H17X20521   4.983   5.979   8.979  1.6118 -1.6075 -0.5139
  179SLPC  H17Y20522   4.900   5.892   8.849 -1.1822  0.3836 -0.7490
  179SLPC  C31820523   4.931   6.091   8.783 -0.3612  0.4953 -0.2744
  179SLPC  H18X20524   4.899   6.057   8.682  0.4818  3.1459 -1.5256
  179SLPC  H18Y20525   5.017   6.158   8.764  0.1261 -0.2407 -0.7053
  179SLPC  H18Z20526   4.853   6.148   8.838 -0.0100  1.5054 -0.7940
  180SLPC     N20527   0.746   4.235  11.246 -0.1380 -0.3606  0.6697
  180SLPC   C1320528   0.772   4.379  11.231 -0.2201  0.5107  0.3701
  180SLPC  H13A20529   0.757   4.438  11.320  1.7729 -0.2621  1.2664
  180SLPC  H13B20530   0.868   4.405  11.191 -0.4274  1.2721  0.3534
  180SLPC  H13C20531   0.685   4.418  11.180 -0.3504  0.4090  0.5117
  180SLPC   C1420532   0.623   4.215  11.322  0.6141  0.4084 -0.1384
  180SLPC  H14A20533   0.618   4.262  11.418  0.3026 -1.1122  0.6321
  180SLPC  H14B20534   0.538   4.256  11.270  0.3807  0.6357  0.4211
  180SLPC  H14C20535   0.594   4.112  11.340 -1.3045  1.0349  0.6168
  180SLPC   C1520536   0.863   4.180  11.322  0.2865  0.7864  0.4643
  180SLPC  H15A20537   0.859   4.074  11.342  0.0922  0.3648 -1.5913
  180SLPC  H15B20538   0.959   4.209  11.282  2.0545 -1.1921  2.9454
  180SLPC  H15C20539   0.864   4.221  11.423  1.2127  0.4862  0.5809
  180SLPC   C1220540   0.740   4.162  11.113 -0.3526  0.5407  0.5610
  180SLPC  H12A20541   0.716   4.059  11.136  2.7579 -0.0602  1.5279
  180SLPC  H12B20542   0.842   4.166  11.079 -0.8520  1.0445 -0.9615
  180SLPC   C1120543   0.647   4.220  11.006 -0.3726  0.1837  0.8742
  180SLPC  H11A20544   0.638   4.157  10.915  0.4275 -0.3171  1.1258
  180SLPC  H11B20545   0.696   4.313  10.969 -1.6942 -0.1432 -2.0309
  180SLPC     P20546   0.441   4.374  11.000 -0.0179  0.0604  0.2500
  180SLPC   O1320547   0.314   4.376  11.071 -0.3535  0.2236  0.9892
  180SLPC   O1420548   0.533   4.489  11.025 -0.3880  0.5104 -0.1413
  180SLPC   O1220549   0.515   4.249  11.052 -0.3076  0.3339  0.1377
  180SLPC   O1120550   0.414   4.339  10.840 -0.0686 -0.0905 -0.0171
  180SLPC    C120551   0.302   4.251  10.805  0.1329 -0.1081 -0.5602
  180SLPC    HA20552   0.301   4.159  10.867 -0.8653 -1.2705 -2.2000
  180SLPC    HB20553   0.207   4.306  10.814  1.3667  2.3387 -1.4694
  180SLPC    C220554   0.320   4.187  10.663  0.2385  0.0982  0.0469
  180SLPC    HS20555   0.234   4.117  10.656  0.5943 -0.6148  2.1721
  180SLPC   O2120556   0.457   4.130  10.651 -0.2796 -0.7053 -0.8376
  180SLPC   C2120557   0.480   4.012  10.724  0.1000 -0.3014  0.0846
  180SLPC   O2220558   0.406   3.974  10.810  0.2150  0.5930 -0.4688
  180SLPC   C2220559   0.614   3.938  10.678  0.1057  0.0533  0.0113
  180SLPC   H2R20560   0.690   4.012  10.644  0.8851  0.3764  2.2938
  180SLPC   H2S20561   0.655   3.895  10.771  0.8669  2.8398  1.0524
  180SLPC    C320562   0.299   4.287  10.547 -0.5653  0.0751  0.5159
  180SLPC    HX20563   0.364   4.375  10.566  1.9176 -1.2191 -1.3005
  180SLPC    HY20564   0.198   4.334  10.550 -0.1334  1.4673 -2.5589
  180SLPC   O3120565   0.315   4.229  10.415  0.0576 -0.2961  0.0457
  180SLPC   C3120566   0.193   4.186  10.372  0.1291  0.7340 -0.1659
  180SLPC   O3220567   0.092   4.167  10.432  0.7745  0.1859 -0.1375
  180SLPC   C3220568   0.206   4.174  10.222  0.3910 -0.2459  0.0433
  180SLPC   H2X20569   0.279   4.099  10.185  0.3063 -0.1367 -0.3539
  180SLPC   H2Y20570   0.237   4.273  10.181 -2.6134  0.6838 -0.2446
  180SLPC   C2320571   0.613   3.838  10.559  0.2251 -0.1188  0.5444
  180SLPC   H3R20572   0.524   3.771  10.561  2.1501 -2.8668  0.9298
  180SLPC   H3S20573   0.709   3.783  10.559 -1.0466 -2.4998  1.4773
  180SLPC   C2420574   0.618   3.909  10.423 -0.1808  0.7902  0.0928
  180SLPC   H4R20575   0.724   3.935  10.401 -0.1962  1.1434  0.4357
  180SLPC   H4S20576   0.563   4.005  10.429 -0.2388  0.7648 -0.0372
  180SLPC   C2520577   0.553   3.821  10.322  0.5883 -0.3812  0.3637
  180SLPC   H5R20578   0.490   3.898  10.274  2.4440  1.2718  0.4366
  180SLPC   H5S20579   0.473   3.751  10.353 -1.7545  0.8627 -2.4194
  180SLPC   C2620580   0.641   3.767  10.210 -0.6267  0.0432 -1.0576
  180SLPC   H6R20581   0.675   3.664  10.232  1.6009  1.1392  1.2098
  180SLPC   H6S20582   0.724   3.840  10.197 -0.3033  0.1974  1.3597
  180SLPC   C2720583   0.565   3.753  10.075 -0.0023 -0.6217 -0.3091
  180SLPC   H7R20584   0.489   3.833  10.062 -1.1461 -1.5403  0.5540
  180SLPC   H7S20585   0.515   3.654  10.077 -0.8813 -0.1840  1.4822
  180SLPC   C2820586   0.672   3.767   9.966  0.5416 -0.6202 -0.5476
  180SLPC   H8R20587   0.711   3.871   9.964 -1.1219  0.0414 -0.3787
  180SLPC   H8S20588   0.618   3.776   9.869 -0.9543 -0.9939  0.2140
  180SLPC   C2920589   0.784   3.667   9.963 -0.4120 -0.4297  0.1022
  180SLPC   H9R20590   0.817   3.624  10.059  1.0591  0.6814  0.1173
  180SLPC  C21020591   0.819   3.603   9.848  0.2058  0.3689 -0.4003
  180SLPC  H10R20592   0.908   3.538   9.852  0.5576  0.8948  1.8562
  180SLPC  C21120593   0.758   3.593   9.706 -0.3814 -0.6371 -0.3219
  180SLPC  H11R20594   0.711   3.689   9.678  1.9417  0.8265  0.5163
  180SLPC  H11S20595   0.678   3.516   9.710  0.1267 -1.1322  0.6608
  180SLPC  C21220596   0.852   3.556   9.599 -0.3396  0.0769 -0.1392
  180SLPC  H12R20597   0.932   3.484   9.619 -0.8645 -0.5809 -0.3429
  180SLPC  C21320598   0.836   3.593   9.474  0.5992 -0.6085 -0.0076
  180SLPC  H13R20599   0.909   3.556   9.401  0.1691 -0.8303 -0.3308
  180SLPC  C21420600   0.722   3.682   9.413 -0.6608  0.5102 -0.0657
  180SLPC  H14R20601   0.644   3.713   9.486  1.1256  2.7196  1.0162
  180SLPC  H14S20602   0.680   3.616   9.334 -0.8244  0.5766 -0.0323
  180SLPC  C21520603   0.771   3.802   9.333  0.8243 -0.2807 -0.1925
  180SLPC  H15R20604   0.826   3.869   9.401 -0.8517  1.7534 -0.7373
  180SLPC  H15S20605   0.680   3.852   9.292  0.9231  0.9507  1.0555
  180SLPC  C21620606   0.867   3.768   9.219  0.2235  0.2927  0.5012
  180SLPC  H16R20607   0.936   3.688   9.253  0.8050  0.1694 -0.9250
  180SLPC  H16S20608   0.935   3.847   9.181  0.2491  0.8755  1.7019
  180SLPC  C21720609   0.800   3.706   9.097 -0.4465  1.3112 -0.2772
  180SLPC  H17R20610   0.729   3.783   9.060 -1.8689 -0.8767 -2.3392
  180SLPC  H17S20611   0.734   3.620   9.117  1.0053  0.1445 -0.3263
  180SLPC  C21820612   0.897   3.675   8.983  0.6792 -0.2319  0.1270
  180SLPC  H18R20613   0.864   3.605   8.903  3.3829 -1.2261 -0.2333
  180SLPC  H18S20614   0.986   3.633   9.034  1.9308  2.3761  0.2575
  180SLPC  H18T20615   0.924   3.769   8.931 -0.6366 -0.8919 -1.8623
  180SLPC   C3320616   0.072   4.132  10.156  0.0451  0.2607 -0.6161
  180SLPC   H3X20617  -0.004   4.212  10.168 -0.7578 -0.6562  0.6809
  180SLPC   H3Y20618   0.037   4.033  10.192  0.9131 -0.0237 -0.5267
  180SLPC   C3420619   0.080   4.115  10.000 -0.2975 -0.5726 -0.3381
  180SLPC   H4X20620   0.095   4.217   9.959  0.4918 -0.6188 -0.1801
  180SLPC   H4Y20621  -0.024   4.082   9.976 -0.7637 -1.0464  2.0953
  180SLPC   C3520622   0.176   3.997   9.956  0.4126 -0.0098  0.4306
  180SLPC   H5X20623   0.187   3.921  10.037  0.8733  0.2101  0.5773
  180SLPC   H5Y20624   0.278   4.029   9.927  0.1881 -0.2602 -0.7019
  180SLPC   C3620625   0.112   3.937   9.830  0.1004  0.2244 -0.4977
  180SLPC   H6X20626   0.043   4.009   9.781 -0.9005 -0.0289  0.4942
  180SLPC   H6Y20627   0.056   3.846   9.861 -1.6052  0.6362 -2.1549
  180SLPC   C3720628   0.221   3.893   9.739  0.0943  0.1563  0.5031
  180SLPC   H7X20629   0.280   3.808   9.779  0.2653 -0.1005 -0.2810
  180SLPC   H7Y20630   0.286   3.982   9.726  1.3765 -0.8470 -0.3777
  180SLPC   C3820631   0.163   3.863   9.596  0.4191 -0.1561  0.6846
  180SLPC   H8X20632   0.106   3.953   9.565 -0.0400 -0.6277  0.1390
  180SLPC   H8Y20633   0.104   3.770   9.589  1.7084 -1.0224  1.0198
  180SLPC   C3920634   0.276   3.840   9.490  0.1470  0.4542 -0.7668
  180SLPC   H9X20635   0.325   3.743   9.513 -0.3003  0.7529  1.6778
  180SLPC   H9Y20636   0.356   3.915   9.508  0.3920 -0.3329  1.8365
  180SLPC  C31020637   0.237   3.854   9.349  0.3686  0.1317 -0.2695
  180SLPC  H10X20638   0.192   3.954   9.329 -0.1441 -0.0021  0.1866
  180SLPC  H10Y20639   0.163   3.777   9.318 -1.2266  1.5613 -0.1775
  180SLPC  C31120640   0.357   3.817   9.262 -0.3398 -0.9730 -0.6194
  180SLPC  H11X20641   0.396   3.723   9.306 -3.5851 -1.0942  2.4290
  180SLPC  H11Y20642   0.430   3.901   9.273  3.4912 -4.1764  0.7190
  180SLPC  C31220643   0.328   3.807   9.109 -0.2184 -0.2599  0.0103
  180SLPC  H12X20644   0.299   3.910   9.077  0.7500  0.0796  0.1806
  180SLPC  H12Y20645   0.245   3.735   9.094 -0.3556 -0.2541  0.7254
  180SLPC  C31320646   0.456   3.756   9.043  0.2432 -0.1152  0.1174
  180SLPC  H13X20647   0.478   3.655   9.084  2.1601  1.5063  3.4001
  180SLPC  H13Y20648   0.537   3.825   9.072 -0.8552  0.1259  2.8522
  180SLPC  C31420649   0.444   3.750   8.887 -0.4121 -0.2302  0.9739
  180SLPC  H14X20650   0.391   3.841   8.853  1.6731  0.5509 -0.4246
  180SLPC  H14Y20651   0.383   3.659   8.866 -1.3321  0.6592 -0.4093
  180SLPC  C31520652   0.585   3.747   8.830  0.3049 -0.6221  0.7540
  180SLPC  H15X20653   0.626   3.660   8.886  2.9706 -0.2773 -0.5016
  180SLPC  H15Y20654   0.638   3.843   8.849 -0.4497 -0.1916  0.6900
  180SLPC  C31620655   0.581   3.715   8.678 -0.4196 -0.5349 -0.3587
  180SLPC  H16X20656   0.577   3.811   8.624  2.0886  0.2782  0.7374
  180SLPC  H16Y20657   0.497   3.649   8.648 -0.9899 -0.1192  0.2958
  180SLPC  C31720658   0.705   3.632   8.642 -0.6617  0.5771  0.6336
  180SLPC  H17X20659   0.687   3.578   8.546 -0.3957 -1.4368  1.6629
  180SLPC  H17Y20660   0.718   3.551   8.718  0.7263 -1.0490 -1.2128
  180SLPC  C31820661   0.841   3.701   8.640 -0.1943 -0.0596  0.8172
  180SLPC  H18X20662   0.859   3.756   8.546 -0.9475  1.3229  1.4498
  180SLPC  H18Y20663   0.927   3.634   8.660 -0.7256 -0.6717  1.0652
  180SLPC  H18Z20664   0.826   3.766   8.729  0.2870  0.0926  0.7878
  181SLPC     N20665   2.938   1.815  11.321 -0.4057  0.1724 -0.2385
  181SLPC   C1320666   3.089   1.798  11.298  0.1674 -0.0665 -0.1994
  181SLPC  H13A20667   3.125   1.721  11.365 -0.4201  0.4625  0.7578
  181SLPC  H13B20668   3.106   1.764  11.197  0.8563  2.4322 -1.0043
  181SLPC  H13C20669   3.152   1.884  11.312  0.8930 -0.7410  0.8041
  181SLPC   C1420670   2.909   1.865  11.457  0.2039 -0.0431  0.2708
  181SLPC  H14A20671   2.938   1.968  11.477 -0.7404 -0.1097  2.1326
  181SLPC  H14B20672   2.802   1.865  11.470  0.0924  1.6582 -0.3788
  181SLPC  H14C20673   2.964   1.814  11.534 -2.0705 -0.8942  1.3860
  181SLPC   C1520674   2.873   1.673  11.320 -0.5289  0.0366  0.5519
  181SLPC  H15A20675   2.861   1.653  11.425  0.5337  2.4913  1.1946
  181SLPC  H15B20676   2.773   1.671  11.279  0.1114 -0.2728 -1.1049
  181SLPC  H15C20677   2.936   1.600  11.271 -0.4210 -0.2648  1.1330
  181SLPC   C1220678   2.882   1.915  11.217  0.0226  0.4561 -0.1716
  181SLPC  H12A20679   2.794   1.949  11.270  1.6262  1.9699  1.6761
  181SLPC  H12B20680   2.857   1.858  11.129  0.5510  1.3951 -0.9490
  181SLPC   C1120681   2.960   2.044  11.180 -0.6812  0.5434  0.7680
  181SLPC  H11A20682   2.888   2.096  11.113  1.8345  1.9638 -0.9645
  181SLPC  H11B20683   3.050   2.023  11.119 -1.9237  0.5936 -1.1436
  181SLPC     P20684   2.908   2.227  11.366  0.1120  0.0264  0.3187
  181SLPC   O1320685   2.775   2.231  11.311 -0.2402  0.4985  0.4473
  181SLPC   O1420686   2.902   2.208  11.515  0.2423 -0.0528  0.4649
  181SLPC   O1220687   2.992   2.123  11.288 -0.4202 -0.4342 -0.0971
  181SLPC   O1120688   2.971   2.367  11.342  0.3513  0.4895 -0.0370
  181SLPC    C120689   3.057   2.391  11.232  0.7647  0.5697 -0.0785
  181SLPC    HA20690   3.144   2.450  11.267  1.3001 -0.8354  1.0731
  181SLPC    HB20691   3.101   2.296  11.194  1.0226  1.1447 -1.2554
  181SLPC    C220692   2.981   2.469  11.123 -0.2164 -0.1647 -0.3153
  181SLPC    HS20693   2.941   2.558  11.177 -2.1908 -1.7195  0.9613
  181SLPC   O2120694   2.886   2.384  11.061  0.1894 -0.3111  0.1627
  181SLPC   C2120695   2.770   2.448  11.049  0.5670 -0.1258  0.0356
  181SLPC   O2220696   2.739   2.555  11.094  0.2676  0.0122 -0.8854
  181SLPC   C2220697   2.676   2.367  10.958 -0.2272  0.2950  0.9010
  181SLPC   H2R20698   2.728   2.280  10.913 -1.7064 -1.4833  2.4453
  181SLPC   H2S20699   2.588   2.345  11.022  0.1455 -0.4346  1.1759
  181SLPC    C320700   3.082   2.516  11.018 -0.4763  0.3338  0.1657
  181SLPC    HX20701   3.126   2.425  10.970  0.5739  0.5642  0.6552
  181SLPC    HY20702   3.171   2.566  11.063  1.5137 -0.7971 -2.2403
  181SLPC   O3120703   3.018   2.584  10.907 -0.0391  0.2108  0.7138
  181SLPC   C3120704   2.988   2.712  10.921  0.0873 -0.1586 -0.4332
  181SLPC   O3220705   3.024   2.779  11.023 -0.1909  0.6757  0.4171
  181SLPC   C3220706   2.940   2.767  10.789 -0.1455  0.6156  0.1825
  181SLPC   H2X20707   2.832   2.792  10.803 -1.1111 -3.3247  1.1754
  181SLPC   H2Y20708   2.950   2.693  10.707  2.2400  2.6777 -1.5340
  181SLPC   C2320709   2.625   2.455  10.837  0.5889  0.4018 -0.3386
  181SLPC   H3R20710   2.602   2.558  10.872 -1.1150 -0.2475  0.6011
  181SLPC   H3S20711   2.528   2.417  10.797  1.0257 -0.7049 -0.3984
  181SLPC   C2420712   2.729   2.460  10.724 -1.0161 -0.2712 -0.2594
  181SLPC   H4R20713   2.764   2.368  10.674 -1.8475  0.0353 -1.4437
  181SLPC   H4S20714   2.809   2.509  10.783 -0.7412 -1.6531  0.5617
  181SLPC   C2520715   2.681   2.547  10.614 -0.2530 -0.2589 -0.5381
  181SLPC   H5R20716   2.671   2.652  10.648 -1.8530 -0.3681 -0.6183
  181SLPC   H5S20717   2.576   2.517  10.593 -0.0714 -0.2505 -1.5108
  181SLPC   C2620718   2.763   2.541  10.480  0.1123  0.1844  0.4313
  181SLPC   H6R20719   2.742   2.444  10.430  0.6422  0.8012 -1.0376
  181SLPC   H6S20720   2.872   2.539  10.497  0.1766 -0.6856 -0.0069
  181SLPC   C2720721   2.734   2.654  10.382 -0.5159 -0.7857  0.6749
  181SLPC   H7R20722   2.737   2.749  10.440 -1.6261 -1.0016  1.1073
  181SLPC   H7S20723   2.634   2.635  10.338  0.2956 -1.2749 -1.0295
  181SLPC   C2820724   2.830   2.675  10.261  0.1557 -0.3750 -0.0746
  181SLPC   H8R20725   2.933   2.667  10.303 -0.4325 -1.3725  1.2770
  181SLPC   H8S20726   2.828   2.770  10.204  1.0466 -0.4265 -0.2094
  181SLPC   C2920727   2.803   2.564  10.159 -0.4471 -0.1658 -0.9268
  181SLPC   H9R20728   2.812   2.466  10.206  1.9362  0.7319  0.6446
  181SLPC  C21020729   2.745   2.583  10.043  0.1949 -0.3249 -0.3659
  181SLPC  H10R20730   2.727   2.492   9.983 -0.0001  0.4009 -1.4357
  181SLPC  C21120731   2.702   2.717   9.980  0.4170 -0.3500 -0.5990
  181SLPC  H11R20732   2.790   2.775   9.945  1.6122 -1.3111  0.6775
  181SLPC  H11S20733   2.658   2.791  10.050  1.7136 -0.2355  0.1438
  181SLPC  C21220734   2.619   2.693   9.861 -0.2657 -0.2692 -0.9906
  181SLPC  H12R20735   2.515   2.683   9.893 -0.1902  0.4376 -0.5116
  181SLPC  C21320736   2.645   2.683   9.730 -0.2124  0.3422  0.2176
  181SLPC  H13R20737   2.567   2.655   9.658  1.4197 -1.7806 -0.8381
  181SLPC  C21420738   2.780   2.711   9.666 -0.0864  0.8839  0.1221
  181SLPC  H14R20739   2.829   2.612   9.653  1.4753  1.5360  0.7600
  181SLPC  H14S20740   2.847   2.764   9.737  1.8702 -2.1857  0.8003
  181SLPC  C21520741   2.778   2.777   9.532 -0.2229  0.0469 -0.7668
  181SLPC  H15R20742   2.879   2.809   9.502  0.3363  1.8226  2.5381
  181SLPC  H15S20743   2.727   2.875   9.546  0.7225  0.4331  0.0840
  181SLPC  C21620744   2.703   2.702   9.426 -0.4484  0.3108  0.0598
  181SLPC  H16R20745   2.596   2.687   9.451 -0.3045 -3.6374 -1.1205
  181SLPC  H16S20746   2.757   2.606   9.412  0.6902  0.9347  0.0006
  181SLPC  C21720747   2.717   2.768   9.288 -0.3958  0.1679  0.3126
  181SLPC  H17R20748   2.827   2.755   9.272 -0.4772  0.4544 -0.4934
  181SLPC  H17S20749   2.694   2.876   9.304 -1.3235 -0.1343  1.1228
  181SLPC  C21820750   2.631   2.706   9.179  0.1887 -0.1253 -0.3898
  181SLPC  H18R20751   2.621   2.768   9.088  0.6182 -1.6256 -1.4933
  181SLPC  H18S20752   2.537   2.657   9.214  0.1543 -0.2143 -0.6059
  181SLPC  H18T20753   2.701   2.625   9.149  0.9140 -0.0480  0.9968
  181SLPC   C3320754   3.025   2.888  10.743 -0.0119 -0.1321 -0.5112
  181SLPC   H3X20755   3.129   2.851  10.737 -0.3428 -0.8543 -2.6043
  181SLPC   H3Y20756   3.012   2.969  10.818 -2.8587 -1.7521  0.9415
  181SLPC   C3420757   2.994   2.926  10.600  0.5221  0.1181 -0.3779
  181SLPC   H4X20758   2.889   2.961  10.590  0.6516  0.0019 -2.7808
  181SLPC   H4Y20759   3.008   2.834  10.539  3.1798  0.5157 -0.4618
  181SLPC   C3520760   3.093   3.035  10.543 -0.0089  0.6966  0.1877
  181SLPC   H5X20761   3.192   2.986  10.548  0.3615  1.4122  0.0589
  181SLPC   H5Y20762   3.104   3.130  10.599  1.6774  1.7323 -1.7682
  181SLPC   C3620763   3.061   3.066  10.400 -0.2185 -0.2408  0.3409
  181SLPC   H6X20764   3.102   2.984  10.338  0.0185  0.5009 -0.5181
  181SLPC   H6Y20765   3.118   3.158  10.373 -0.8288  0.6069  1.8195
  181SLPC   C3720766   2.919   3.087  10.359 -0.0051  0.3434  0.5105
  181SLPC   H7X20767   2.871   3.155  10.433  1.3219  1.5639  0.2883
  181SLPC   H7Y20768   2.863   2.991  10.357  0.2125  0.2175  0.4861
  181SLPC   C3820769   2.901   3.160  10.220  0.1847 -0.0689 -0.9879
  181SLPC   H8X20770   2.996   3.217  10.224  0.6746 -0.9152 -0.2297
  181SLPC   H8Y20771   2.812   3.227  10.225  2.4440  3.2235 -1.7624
  181SLPC   C3920772   2.882   3.059  10.108 -0.2437 -0.7312 -0.0670
  181SLPC   H9X20773   2.788   3.000  10.118 -0.4718 -0.5067 -0.8082
  181SLPC   H9Y20774   2.963   2.989  10.136 -0.3371 -0.0128  2.1630
  181SLPC  C31020775   2.928   3.122   9.975  0.7963  1.0111  0.4675
  181SLPC  H10X20776   3.020   3.184   9.984  0.5341  1.3486  0.8891
  181SLPC  H10Y20777   2.848   3.194   9.945 -0.0184 -0.4213 -0.9515
  181SLPC  C31120778   2.960   3.017   9.866  1.0102 -0.2242  0.6527
  181SLPC  H11X20779   2.871   2.953   9.850 -0.0823  1.6868 -1.4641
  181SLPC  H11Y20780   3.049   2.958   9.898  2.2503  1.9877  1.4544
  181SLPC  C31220781   2.976   3.082   9.727 -0.1947  0.4960  0.0628
  181SLPC  H12X20782   2.902   3.164   9.721 -0.9034 -0.0478  1.1576
  181SLPC  H12Y20783   2.959   3.001   9.653  2.9202 -2.0103  1.8052
  181SLPC  C31320784   3.115   3.146   9.711 -0.7553  0.1784  0.4755
  181SLPC  H13X20785   3.195   3.074   9.739  0.4843  1.5945  0.7023
  181SLPC  H13Y20786   3.126   3.233   9.780  3.1354 -0.0995  0.4254
  181SLPC  C31420787   3.150   3.186   9.566 -0.4232  0.3959 -0.2038
  181SLPC  H14X20788   3.124   3.117   9.482  0.2990  2.9203 -2.6645
  181SLPC  H14Y20789   3.259   3.203   9.567 -0.6355  1.8761 -0.2946
  181SLPC  C31520790   3.101   3.330   9.526 -0.5406  0.2314  0.2244
  181SLPC  H15X20791   3.152   3.403   9.593 -0.7686  0.8185 -0.2323
  181SLPC  H15Y20792   2.994   3.315   9.551 -0.6219 -1.8511 -1.1284
  181SLPC  C31620793   3.129   3.368   9.384 -0.2316  0.3842  0.0416
  181SLPC  H16X20794   3.072   3.296   9.322 -0.1725  1.9180 -1.9190
  181SLPC  H16Y20795   3.240   3.363   9.372  0.0354 -0.9468  2.4823
  181SLPC  C31720796   3.089   3.512   9.346 -0.2064 -0.0758  0.1965
  181SLPC  H17X20797   3.103   3.567   9.442  0.0106 -0.6049  0.4718
  181SLPC  H17Y20798   2.981   3.512   9.321 -0.4534 -0.8379  1.2221
  181SLPC  C31820799   3.156   3.583   9.229  0.7412 -0.4369  0.4807
  181SLPC  H18X20800   3.128   3.533   9.133  1.0770 -1.1640  0.7510
  181SLPC  H18Y20801   3.266   3.581   9.244  0.9661 -0.1332 -0.9468
  181SLPC  H18Z20802   3.122   3.688   9.218 -1.2451 -0.7069  3.1453
  182SLPC     N20803   2.371   4.759  11.410 -0.4284 -0.0230  0.0079
  182SLPC   C1320804   2.346   4.691  11.542  0.2191  0.5750 -0.1310
  182SLPC  H13A20805   2.281   4.605  11.527  1.0591 -0.0932  0.0133
  182SLPC  H13B20806   2.439   4.654  11.581  1.8128  3.4827 -0.8894
  182SLPC  H13C20807   2.286   4.753  11.608  0.0203 -0.6136  0.8384
  182SLPC   C1420808   2.469   4.866  11.438 -0.2634  0.4209  0.3055
  182SLPC  H14A20809   2.442   4.916  11.530 -1.0973 -0.7730  0.7284
  182SLPC  H14B20810   2.569   4.830  11.457 -0.6340  0.0380  1.6191
  182SLPC  H14C20811   2.473   4.930  11.351  0.7283 -0.4888 -0.3508
  182SLPC   C1520812   2.245   4.807  11.360 -0.0601 -0.4611 -0.4444
  182SLPC  H15A20813   2.209   4.886  11.425  0.6807 -1.6133  1.4487
  182SLPC  H15B20814   2.268   4.851  11.264  0.5461 -2.3859 -1.2215
  182SLPC  H15C20815   2.161   4.738  11.356  0.4093 -1.0373 -0.5061
  182SLPC   C1220816   2.429   4.657  11.315  0.2973  0.1994  0.0442
  182SLPC  H12A20817   2.397   4.556  11.338  0.0503  0.3699  0.4584
  182SLPC  H12B20818   2.537   4.660  11.322  0.6167 -2.2847 -2.2913
  182SLPC   C1120819   2.412   4.680  11.162  0.5617 -0.1138 -0.1182
  182SLPC  H11A20820   2.477   4.616  11.099  0.2774 -2.7781  2.0643
  182SLPC  H11B20821   2.446   4.782  11.134 -1.5062  0.3574 -1.0788
  182SLPC     P20822   2.205   4.527  11.083 -0.2998  0.1963  0.6406
  182SLPC   O1320823   2.207   4.440  11.202 -0.2765  0.4180  0.3743
  182SLPC   O1420824   2.075   4.572  11.026 -0.7132  0.0362  0.5690
  182SLPC   O1220825   2.281   4.664  11.114 -0.7036  0.0296  0.2400
  182SLPC   O1120826   2.285   4.459  10.966 -0.6721  0.0760 -0.2691
  182SLPC    C120827   2.303   4.507  10.832  0.0367 -0.3922  0.0909
  182SLPC    HA20828   2.259   4.608  10.816  0.6570 -0.1965 -0.4126
  182SLPC    HB20829   2.412   4.507  10.812  0.0930  2.3705 -0.0385
  182SLPC    C220830   2.238   4.415  10.719  0.2526 -0.2436  0.2616
  182SLPC    HS20831   2.128   4.416  10.734 -0.0140 -1.2859 -1.3901
  182SLPC   O2120832   2.299   4.283  10.723  0.0071 -0.2904 -0.5846
  182SLPC   C2120833   2.222   4.185  10.682 -0.4060 -0.1195  0.4122
  182SLPC   O2220834   2.117   4.199  10.622  0.4414  0.4037 -0.3133
  182SLPC   C2220835   2.287   4.052  10.719  0.2818 -0.9271 -0.7915
  182SLPC   H2R20836   2.396   4.076  10.712 -0.0930  0.5509 -2.3257
  182SLPC   H2S20837   2.245   4.029  10.819 -0.4710  0.7741 -0.6734
  182SLPC    C320838   2.258   4.470  10.578 -0.5985 -0.3033  0.1740
  182SLPC    HX20839   2.220   4.401  10.500  0.9234 -1.8601  0.7471
  182SLPC    HY20840   2.365   4.483  10.553 -0.5762 -2.1466 -0.8138
  182SLPC   O3120841   2.212   4.608  10.571 -0.1334 -0.3026  0.2513
  182SLPC   C3120842   2.097   4.625  10.518  0.2084  0.1119 -0.0446
  182SLPC   O3220843   2.015   4.538  10.486 -0.2454 -0.1770 -0.4102
  182SLPC   C3220844   2.057   4.778  10.505  0.9539 -0.0961  0.4561
  182SLPC   H2X20845   2.127   4.833  10.571 -0.4966 -0.6158  2.5270
  182SLPC   H2Y20846   1.955   4.791  10.547  0.7545  0.8053 -0.2614
  182SLPC   C2320847   2.256   3.941  10.621 -0.1059  0.0422  0.0809
  182SLPC   H3R20848   2.151   3.957  10.588  0.4047  3.4020 -0.2170
  182SLPC   H3S20849   2.270   3.844  10.675  1.8950  0.7280  0.8710
  182SLPC   C2420850   2.358   3.945  10.511 -0.2975  0.2299 -0.2328
  182SLPC   H4R20851   2.462   3.930  10.546 -1.0364 -4.4394  0.6380
  182SLPC   H4S20852   2.343   4.041  10.457 -2.3747 -0.4854 -1.0225
  182SLPC   C2520853   2.338   3.825  10.413  0.2358  0.2645  0.8143
  182SLPC   H5R20854   2.247   3.838  10.350  1.7910  0.6741 -1.4925
  182SLPC   H5S20855   2.344   3.735  10.477 -0.2828 -0.8000 -0.5649
  182SLPC   C2620856   2.466   3.810  10.321 -0.2032  0.4001  0.8400
  182SLPC   H6R20857   2.447   3.725  10.251  2.3756 -0.4748  1.0980
  182SLPC   H6S20858   2.550   3.775  10.384 -0.6864 -0.0628  1.2399
  182SLPC   C2720859   2.508   3.934  10.241 -0.9637 -0.1183  0.0172
  182SLPC   H7R20860   2.596   3.914  10.177 -0.0524 -0.4695  1.3374
  182SLPC   H7S20861   2.555   4.006  10.311 -1.3807  0.4634 -0.2977
  182SLPC   C2820862   2.401   4.012  10.166 -0.1150  0.1281  0.0205
  182SLPC   H8R20863   2.446   4.107  10.130 -0.7188 -0.1379 -1.5048
  182SLPC   H8S20864   2.326   4.034  10.245 -1.4215 -1.6796 -0.6464
  182SLPC   C2920865   2.324   3.933  10.064 -0.2573 -0.3046  0.3165
  182SLPC   H9R20866   2.285   3.842  10.110  3.7189 -2.2626  0.2261
  182SLPC  C21020867   2.307   3.954   9.931  0.5470 -0.1135  0.1003
  182SLPC  H10R20868   2.235   3.892   9.876 -0.5286  0.7838  0.4713
  182SLPC  C21120869   2.368   4.070   9.853  0.1318  0.2074 -0.2509
  182SLPC  H11R20870   2.381   4.155   9.923  0.8180 -0.3400  0.3011
  182SLPC  H11S20871   2.300   4.097   9.769  0.9713  2.8678 -0.1688
  182SLPC  C21220872   2.502   4.042   9.790 -0.0661  0.4415  0.6039
  182SLPC  H12R20873   2.535   3.938   9.806 -0.7370  0.0292 -0.5443
  182SLPC  C21320874   2.575   4.137   9.731  0.6285  0.9016  0.6780
  182SLPC  H13R20875   2.666   4.108   9.677  0.5899  1.4404  0.3210
  182SLPC  C21420876   2.526   4.280   9.721 -0.1157  0.1903  0.2095
  182SLPC  H14R20877   2.443   4.311   9.788 -0.5622 -2.2310  0.8414
  182SLPC  H14S20878   2.493   4.308   9.618 -1.1703  1.5791  0.8829
  182SLPC  C21520879   2.641   4.373   9.766 -0.2475 -0.1698 -0.1978
  182SLPC  H15R20880   2.687   4.356   9.866 -2.2500  3.1982  1.4781
  182SLPC  H15S20881   2.600   4.475   9.781 -0.4208 -0.3890  0.9048
  182SLPC  C21620882   2.757   4.384   9.669  0.3697  0.1039 -0.0167
  182SLPC  H16R20883   2.724   4.418   9.569 -0.3634  1.8279  0.7556
  182SLPC  H16S20884   2.791   4.279   9.658  0.8582 -0.1259  2.7886
  182SLPC  C21720885   2.875   4.467   9.725  0.0467  0.0192  0.2404
  182SLPC  H17R20886   2.958   4.489   9.655 -1.4983  2.1524 -1.0497
  182SLPC  H17S20887   2.932   4.411   9.802 -0.0293  0.2702  0.4860
  182SLPC  C21820888   2.831   4.610   9.768 -1.3851 -0.2331  0.6109
  182SLPC  H18R20889   2.923   4.663   9.802 -1.9806  1.6435 -0.5582
  182SLPC  H18S20890   2.758   4.605   9.851 -0.7638  3.5157  1.5757
  182SLPC  H18T20891   2.779   4.670   9.690  1.4147 -0.3226 -1.4617
  182SLPC   C3320892   2.065   4.828  10.359 -0.2177  0.0736 -0.4057
  182SLPC   H3X20893   1.999   4.761  10.300 -2.1296  1.7086 -0.2424
  182SLPC   H3Y20894   2.169   4.828  10.320  0.0265  0.8970  0.2132
  182SLPC   C3420895   2.026   4.976  10.344  0.1066  0.8592 -0.4337
  182SLPC   H4X20896   2.094   5.041  10.402  0.7436  1.4652 -1.8161
  182SLPC   H4Y20897   1.927   5.004  10.387 -1.6835  0.0204 -3.6384
  182SLPC   C3520898   2.035   5.024  10.198  0.2716  0.5388  0.8847
  182SLPC   H5X20899   2.142   5.026  10.172  0.5455 -0.0442  1.8988
  182SLPC   H5Y20900   1.985   5.123  10.198 -1.4885 -0.2058 -2.2716
  182SLPC   C3620901   1.954   4.945  10.091  0.2272  0.2806  0.0057
  182SLPC   H6X20902   1.848   4.926  10.118 -0.0044  1.1913 -0.2426
  182SLPC   H6Y20903   1.997   4.842  10.082  0.1340  0.4050 -2.4042
  182SLPC   C3720904   1.956   5.019   9.954  0.1024  0.0191 -0.3900
  182SLPC   H7X20905   2.061   5.038   9.925  0.5052 -0.9155  0.3950
  182SLPC   H7Y20906   1.911   5.120   9.964 -0.1597 -0.0507 -0.8546
  182SLPC   C3820907   1.858   4.949   9.848 -0.4031 -0.5049 -0.1572
  182SLPC   H8X20908   1.770   4.942   9.915 -0.1301 -0.2982  0.2287
  182SLPC   H8Y20909   1.892   4.847   9.819 -1.8734 -0.8269 -0.8535
  182SLPC   C3920910   1.834   5.019   9.711 -0.2727  0.3387 -0.7445
  182SLPC   H9X20911   1.803   5.125   9.724  0.4419  0.3184  1.5281
  182SLPC   H9Y20912   1.751   4.965   9.660  1.2507 -1.3522 -1.5532
  182SLPC  C31020913   1.954   5.018   9.614  0.2890  0.2379 -0.1471
  182SLPC  H10X20914   1.981   4.910   9.620 -1.4149 -0.1654  1.2353
  182SLPC  H10Y20915   2.030   5.084   9.660  0.2763  0.3410 -0.2727
  182SLPC  C31120916   1.917   5.052   9.467  0.4081 -0.1190  0.6762
  182SLPC  H11X20917   1.844   4.980   9.424  1.6142 -1.0912  0.2351
  182SLPC  H11Y20918   2.009   5.043   9.407  0.7588  1.0654  1.0087
  182SLPC  C31220919   1.873   5.200   9.454  0.5523  1.3381  0.1325
  182SLPC  H12X20920   1.956   5.261   9.496  2.3254 -1.3276  0.7454
  182SLPC  H12Y20921   1.783   5.221   9.515  0.0281  2.3286 -0.9511
  182SLPC  C31320922   1.842   5.238   9.308 -0.2303 -0.4567 -0.5095
  182SLPC  H13X20923   1.762   5.172   9.269 -1.8690  0.6109  0.8944
  182SLPC  H13Y20924   1.930   5.229   9.241  0.1060 -1.1883  0.0165
  182SLPC  C31420925   1.785   5.382   9.292  0.4998 -0.6323  0.3827
  182SLPC  H14X20926   1.860   5.460   9.315 -0.3839  0.4589 -0.3238
  182SLPC  H14Y20927   1.713   5.398   9.375 -1.2031 -2.6748 -0.5996
  182SLPC  C31520928   1.722   5.407   9.159  0.8787  0.1690  0.2006
  182SLPC  H15X20929   1.789   5.399   9.071 -2.0068 -0.0863 -2.1079
  182SLPC  H15Y20930   1.694   5.514   9.150 -0.2012 -0.1246 -0.0486
  182SLPC  C31620931   1.607   5.322   9.114 -0.2624  1.0459  0.1561
  182SLPC  H16X20932   1.520   5.317   9.182 -0.0349  1.0497  0.4507
  182SLPC  H16Y20933   1.656   5.222   9.110  0.7069  1.5095  0.1128
  182SLPC  C31720934   1.542   5.357   8.981  0.4986 -0.8497  0.3515
  182SLPC  H17X20935   1.613   5.356   8.896  0.0092 -0.3307 -0.0750
  182SLPC  H17Y20936   1.510   5.463   8.995  0.4418 -0.4837 -2.1948
  182SLPC  C31820937   1.423   5.271   8.929  0.3585 -0.9852  0.1453
  182SLPC  H18X20938   1.337   5.282   8.999  0.0020 -0.0314 -0.4229
  182SLPC  H18Y20939   1.453   5.164   8.919 -1.0454 -1.4570  0.6522
  182SLPC  H18Z20940   1.393   5.315   8.832 -2.2087 -2.0714  0.3581
  183SLPC     N20941   2.410   2.462  11.364  1.0314  0.2543  0.2433
  183SLPC   C1320942   2.542   2.413  11.405 -0.7641 -0.7970 -0.2047
  183SLPC  H13A20943   2.616   2.473  11.355 -1.2049  0.2220  0.3425
  183SLPC  H13B20944   2.560   2.419  11.511  1.8523  1.7640 -0.6627
  183SLPC  H13C20945   2.571   2.316  11.367  4.0269  0.9404 -1.7515
  183SLPC   C1420946   2.402   2.461  11.220  0.2168 -0.0344  0.3784
  183SLPC  H14A20947   2.431   2.364  11.180  3.6840  0.2635  1.7849
  183SLPC  H14B20948   2.306   2.482  11.176  1.0660  0.8627 -1.1471
  183SLPC  H14C20949   2.467   2.541  11.188  0.9820 -1.1730 -1.0821
  183SLPC   C1520950   2.396   2.600  11.424 -0.2855  0.7039  0.7270
  183SLPC  H15A20951   2.389   2.604  11.532 -2.2244  1.3861  0.6251
  183SLPC  H15B20952   2.484   2.658  11.400  0.8457 -1.4106 -0.5540
  183SLPC  H15C20953   2.308   2.640  11.375  1.2206  1.8531 -1.1649
  183SLPC   C1220954   2.299   2.368  11.416 -0.0474 -0.4719  0.9768
  183SLPC  H12A20955   2.318   2.350  11.521 -2.1259  1.9021  1.8557
  183SLPC  H12B20956   2.312   2.276  11.362 -1.7422  0.0400 -0.3946
  183SLPC   C1120957   2.158   2.430  11.397  0.2351 -0.2840  0.6051
  183SLPC  H11A20958   2.154   2.529  11.447  1.1716  0.4672 -0.7207
  183SLPC  H11B20959   2.084   2.366  11.449 -2.1107  1.1516 -0.7572
  183SLPC     P20960   1.977   2.512  11.213 -0.0007 -0.1425 -0.1240
  183SLPC   O1320961   1.894   2.398  11.160  0.0893  0.1663  0.4152
  183SLPC   O1420962   1.926   2.599  11.323  0.9433 -0.3285 -1.0981
  183SLPC   O1220963   2.111   2.444  11.265  0.2365  0.2649  0.0720
  183SLPC   O1120964   2.025   2.611  11.097 -0.2684  0.0778 -0.2792
  183SLPC    C120965   2.141   2.696  11.115  0.0123  0.2036  0.0330
  183SLPC    HA20966   2.155   2.719  11.222 -1.4528 -1.3432  0.6051
  183SLPC    HB20967   2.230   2.648  11.069 -0.4397  1.2471 -2.0797
  183SLPC    C220968   2.131   2.834  11.041  0.7274 -0.4134 -0.1611
  183SLPC    HS20969   2.205   2.911  11.072 -0.0152  0.8471 -1.3891
  183SLPC   O2120970   1.997   2.885  11.060 -0.0666  0.2862 -0.2266
  183SLPC   C2120971   1.973   2.958  11.175 -0.9923 -0.7626  0.0760
  183SLPC   O2220972   2.056   2.979  11.262 -0.2382 -0.2471 -0.0637
  183SLPC   C2220973   1.837   3.021  11.168  0.5091 -0.4564 -0.3632
  183SLPC   H2R20974   1.756   2.946  11.158  0.3793 -0.5743  1.2074
  183SLPC   H2S20975   1.821   3.056  11.273 -3.4578  0.6861 -1.1852
  183SLPC    C320976   2.133   2.798  10.889 -0.2132 -0.1926  0.3442
  183SLPC    HX20977   2.092   2.890  10.841  0.1764  1.6334  3.2379
  183SLPC    HY20978   2.060   2.715  10.875 -1.3624  0.8586 -0.1091
  183SLPC   O3120979   2.267   2.762  10.845 -0.2558  0.0809  0.4064
  183SLPC   C3120980   2.352   2.856  10.838 -0.1269 -0.3232  0.0462
  183SLPC   O3220981   2.343   2.974  10.859 -0.4132 -0.7150  0.2353
  183SLPC   C3220982   2.477   2.796  10.786  0.7906  0.0490 -0.4115
  183SLPC   H2X20983   2.456   2.695  10.745 -2.3222 -0.2274  1.5100
  183SLPC   H2Y20984   2.551   2.776  10.865  1.8478  0.9333 -1.1456
  183SLPC   C2320985   1.815   3.131  11.065 -0.5186  0.8722  0.4166
  183SLPC   H3R20986   1.718   3.185  11.078 -1.2458 -0.1678 -0.5266
  183SLPC   H3S20987   1.791   3.078  10.971 -0.5497 -1.9441  1.9046
  183SLPC   C2420988   1.932   3.229  11.043  0.6362 -0.1798 -0.2026
  183SLPC   H4R20989   2.011   3.189  10.975  1.3725 -1.9964  1.6117
  183SLPC   H4S20990   1.979   3.240  11.143  2.1142  2.1276 -1.0657
  183SLPC   C2520991   1.871   3.364  11.002 -0.1715 -0.5364 -0.5140
  183SLPC   H5R20992   1.810   3.405  11.086  1.5355  3.5864 -1.0142
  183SLPC   H5S20993   1.810   3.346  10.911  0.2911  0.2616 -1.0014
  183SLPC   C2620994   1.975   3.475  10.978  0.8176 -0.5931 -0.3538
  183SLPC   H6R20995   2.052   3.427  10.913  0.5535 -1.9274  0.2702
  183SLPC   H6S20996   2.025   3.503  11.074 -2.4072 -0.5872  1.4801
  183SLPC   C2720997   1.912   3.599  10.911  0.5815 -0.4130 -0.3026
  183SLPC   H7R20998   1.849   3.648  10.988 -2.7801 -2.5706 -1.4481
  183SLPC   H7S20999   1.841   3.565  10.832 -0.1466  0.8147 -0.1985
  183SLPC   C2821000   2.015   3.700  10.852  0.3040 -0.2037 -0.6120
  183SLPC   H8R21001   2.068   3.657  10.765  0.5313 -2.6177  0.6294
  183SLPC   H8S21002   2.094   3.708  10.930 -1.2029  1.9267  0.8312
  183SLPC   C2921003   1.953   3.837  10.834 -0.0716 -0.1689 -0.0131
  183SLPC   H9R21004   1.935   3.881  10.933 -1.6909  0.3468 -0.5011
  183SLPC  C21021005   1.892   3.883  10.720 -0.3935 -0.2923  0.1908
  183SLPC  H10R21006   1.855   3.987  10.715  3.1900  1.0884 -0.1618
  183SLPC  C21121007   1.882   3.804  10.588 -0.0201 -0.5416  0.4158
  183SLPC  H11R21008   1.779   3.762  10.584 -1.2636  2.1321  1.8666
  183SLPC  H11S21009   1.950   3.716  10.587  0.6105 -0.1158  2.0493
  183SLPC  C21221010   1.898   3.902  10.472 -0.8183  0.4497 -0.6371
  183SLPC  H12R21011   1.860   4.003  10.490  1.0924  0.9814  0.7567
  183SLPC  C21321012   1.952   3.875  10.349  0.0605 -0.6502  0.4250
  183SLPC  H13R21013   1.956   3.960  10.279 -0.9023  0.5072  1.6957
  183SLPC  C21421014   2.005   3.745  10.296 -0.2376 -0.1549  0.4193
  183SLPC  H14R21015   2.074   3.698  10.369  0.0452 -2.8323 -1.4121
  183SLPC  H14S21016   2.062   3.765  10.203 -1.6720  1.2149 -0.2194
  183SLPC  C21521017   1.892   3.652  10.257  0.4990  0.0179  0.3203
  183SLPC  H15R21018   1.843   3.610  10.348  0.8646  1.4988  1.2403
  183SLPC  H15S21019   1.932   3.553  10.226  2.3976  0.5690  0.8301
  183SLPC  C21621020   1.808   3.700  10.132 -0.3067 -0.3847  0.4234
  183SLPC  H16R21021   1.796   3.810  10.141  3.6121  0.2245 -0.0301
  183SLPC  H16S21022   1.709   3.648  10.129 -1.0997  1.0413  0.8965
  183SLPC  C21721023   1.874   3.671   9.996  0.8196  0.0441 -0.1399
  183SLPC  H17R21024   1.975   3.715  10.000 -0.7959  4.0913  0.6653
  183SLPC  H17S21025   1.828   3.737   9.919  1.4891 -0.1071 -0.6805
  183SLPC  C21821026   1.880   3.532   9.928 -0.2525  0.0363 -0.1593
  183SLPC  H18R21027   1.791   3.517   9.863 -1.3662  1.3149  0.9914
  183SLPC  H18S21028   1.890   3.453  10.005  1.2026  0.6940  0.3508
  183SLPC  H18T21029   1.970   3.524   9.864  0.4951  0.5889  0.7967
  183SLPC   C3321030   2.532   2.895  10.689 -0.6137  0.2783  0.2994
  183SLPC   H3X21031   2.640   2.875  10.678 -0.9049 -0.6497 -0.9794
  183SLPC   H3Y21032   2.526   2.999  10.729 -2.0424  0.1369  0.5206
  183SLPC   C3421033   2.451   2.900  10.554  0.5606  0.4871 -0.1532
  183SLPC   H4X21034   2.358   2.952  10.584 -0.1760 -0.3665 -0.8644
  183SLPC   H4Y21035   2.421   2.799  10.516  2.1090 -0.3057  0.6315
  183SLPC   C3521036   2.524   2.977  10.445 -0.6727 -0.4125  0.0427
  183SLPC   H5X21037   2.597   2.906  10.401 -1.6679 -0.2312 -2.0010
  183SLPC   H5Y21038   2.573   3.069  10.482  1.7758 -1.0516 -1.3996
  183SLPC   C3621039   2.431   3.019  10.330  0.0972 -0.5908  0.3339
  183SLPC   H6X21040   2.355   3.092  10.366 -0.6144  0.2618 -2.5938
  183SLPC   H6Y21041   2.375   2.928  10.302 -1.2125  0.3082 -0.0931
  183SLPC   C3721042   2.501   3.076  10.204  0.2124 -1.0166 -0.3182
  183SLPC   H7X21043   2.589   3.010  10.187  0.8414  0.0072 -1.2375
  183SLPC   H7Y21044   2.553   3.171  10.231  1.2593 -1.7591  0.3655
  183SLPC   C3821045   2.418   3.085  10.077 -0.2903  0.4464  0.5058
  183SLPC   H8X21046   2.332   3.154  10.090 -1.7680 -0.5242 -2.9607
  183SLPC   H8Y21047   2.384   2.981  10.060 -0.5963  0.5804  0.2731
  183SLPC   C3921048   2.511   3.139   9.963  0.0981  0.3829 -0.3186
  183SLPC   H9X21049   2.610   3.090   9.969 -0.3259 -0.4927 -0.1998
  183SLPC   H9Y21050   2.517   3.248   9.983 -1.0055  0.3961  0.0156
  183SLPC  C31021051   2.463   3.098   9.823 -0.0221  0.0407 -0.5520
  183SLPC  H10X21052   2.364   3.145   9.805  0.3450  0.1942 -2.2911
  183SLPC  H10Y21053   2.443   2.989   9.822  0.9664 -0.1732  0.5248
  183SLPC  C31121054   2.561   3.160   9.721  0.6617  0.4209 -0.0755
  183SLPC  H11X21055   2.655   3.102   9.728 -0.6232 -1.7119  0.6237
  183SLPC  H11Y21056   2.572   3.268   9.744 -1.7665  1.1420 -1.7890
  183SLPC  C31221057   2.516   3.151   9.573 -0.5094  0.1907  0.0697
  183SLPC  H12X21058   2.423   3.212   9.572 -0.3042  0.5181  0.3524
  183SLPC  H12Y21059   2.498   3.048   9.536 -0.2611  0.2941 -0.3428
  183SLPC  C31321060   2.624   3.197   9.480  0.1550 -0.2412  0.0290
  183SLPC  H13X21061   2.701   3.117   9.488  0.3915  0.0698  1.1087
  183SLPC  H13Y21062   2.673   3.288   9.521  1.4628 -0.5137 -0.8731
  183SLPC  C31421063   2.577   3.210   9.335 -0.0340 -0.5095  0.2255
  183SLPC  H14X21064   2.489   3.277   9.338 -0.7567 -1.3957 -0.5072
  183SLPC  H14Y21065   2.545   3.110   9.299 -0.4202 -1.6560  3.4252
  183SLPC  C31521066   2.683   3.268   9.238 -0.1477 -0.3957  0.2142
  183SLPC  H15X21067   2.731   3.360   9.279  4.2537 -2.0584 -0.6934
  183SLPC  H15Y21068   2.620   3.286   9.149 -0.2569 -1.1848  0.1332
  183SLPC  C31621069   2.799   3.174   9.212  0.1113 -0.1295 -0.4980
  183SLPC  H16X21070   2.759   3.073   9.185  3.0616 -1.4467 -0.3018
  183SLPC  H16Y21071   2.857   3.157   9.306  0.2479 -0.7229 -0.6807
  183SLPC  C31721072   2.899   3.218   9.113  0.1942 -0.2473 -0.7892
  183SLPC  H17X21073   2.952   3.314   9.129  0.7919  0.1645 -4.3935
  183SLPC  H17Y21074   2.850   3.253   9.020 -2.1638  1.5210  1.0092
  183SLPC  C31821075   3.014   3.118   9.088 -0.6363 -0.7609  0.1000
  183SLPC  H18X21076   3.039   3.108   8.980  1.0869 -4.5303  0.7034
  183SLPC  H18Y21077   2.986   3.016   9.121  1.7898 -0.9420  1.8266
  183SLPC  H18Z21078   3.102   3.153   9.144 -0.9861 -0.0425  0.2189
  184SLPC     N21079   4.291   1.758  11.247 -0.3795 -0.6303  0.3728
  184SLPC   C1321080   4.290   1.609  11.257  0.0889  0.4925  0.3399
  184SLPC  H13A21081   4.312   1.569  11.355  2.9025 -3.4845 -1.6273
  184SLPC  H13B21082   4.194   1.569  11.228 -0.0227 -1.7979  3.3770
  184SLPC  H13C21083   4.359   1.567  11.184 -0.6132 -1.1924  0.5978
  184SLPC   C1421084   4.432   1.808  11.281  0.4490  0.0799  0.0476
  184SLPC  H14A21085   4.458   1.775  11.381 -1.7600 -3.1395 -0.2976
  184SLPC  H14B21086   4.500   1.764  11.209 -1.3088  0.5786 -2.0241
  184SLPC  H14C21087   4.436   1.915  11.271 -0.0856 -0.0328 -1.7046
  184SLPC   C1521088   4.194   1.811  11.335  0.1773 -0.1575 -0.8178
  184SLPC  H15A21089   4.094   1.778  11.312  0.4436 -3.2261  1.7207
  184SLPC  H15B21090   4.211   1.784  11.438 -0.0462  0.0371 -0.7278
  184SLPC  H15C21091   4.202   1.918  11.341  0.3873 -0.1912 -0.4860
  184SLPC   C1221092   4.263   1.804  11.108 -0.1796  0.4271  0.0363
  184SLPC  H12A21093   4.253   1.912  11.107  0.6164  0.4997 -1.2139
  184SLPC  H12B21094   4.167   1.764  11.079  0.1031 -0.0985 -0.1832
  184SLPC   C1121095   4.339   1.768  10.981 -0.3128  0.2240 -0.4096
  184SLPC  H11A21096   4.263   1.776  10.901 -0.8575  2.0380  0.2331
  184SLPC  H11B21097   4.380   1.665  10.989 -0.0530  0.1120 -2.7040
  184SLPC     P21098   4.420   2.018  10.945  0.3235  0.2984 -0.4462
  184SLPC   O1321099   4.334   2.068  11.053 -0.3718 -0.3206  0.4174
  184SLPC   O1421100   4.551   2.087  10.934 -0.4271 -0.5717 -0.1921
  184SLPC   O1221101   4.443   1.863  10.967 -0.4270 -0.0420  0.0335
  184SLPC   O1121102   4.342   2.025  10.812 -0.2552  0.1301  0.1471
  184SLPC    C121103   4.407   1.976  10.690  0.3140 -0.7299 -0.5403
  184SLPC    HA21104   4.507   2.021  10.674 -0.0170  0.1394 -0.1991
  184SLPC    HB21105   4.416   1.865  10.697 -1.2676 -0.9342 -1.2172
  184SLPC    C221106   4.322   2.027  10.566 -0.5237  0.1086 -0.5942
  184SLPC    HS21107   4.229   1.967  10.567 -1.7006  1.8500  1.3234
  184SLPC   O2121108   4.391   2.012  10.436  0.0582 -0.0923  0.2106
  184SLPC   C2121109   4.426   1.893  10.399  1.3373 -0.4692 -0.0018
  184SLPC   O2221110   4.400   1.791  10.459  0.0736  0.1629 -0.3946
  184SLPC   C2221111   4.487   1.895  10.262  0.1575 -0.0745  0.2152
  184SLPC   H2R21112   4.563   1.976  10.259  0.6916 -0.5510  0.6186
  184SLPC   H2S21113   4.537   1.797  10.248 -2.7178 -1.5024 -0.7150
  184SLPC    C321114   4.285   2.178  10.580 -0.7755  0.3692  0.4099
  184SLPC    HX21115   4.378   2.237  10.594 -0.7937  0.1804  1.4155
  184SLPC    HY21116   4.229   2.191  10.675 -2.1718  1.8291 -0.5581
  184SLPC   O3121117   4.212   2.236  10.466  0.5749 -0.0578 -0.1681
  184SLPC   C3121118   4.085   2.190  10.455 -1.1158 -1.0415 -0.2523
  184SLPC   O3221119   4.034   2.114  10.534 -0.3083 -0.0120  0.1751
  184SLPC   C3221120   4.026   2.250  10.329  0.4568  0.3520 -0.0125
  184SLPC   H2X21121   4.016   2.360  10.336  1.6899  0.5969 -1.5613
  184SLPC   H2Y21122   3.925   2.207  10.317  0.3672  0.5111  0.1748
  184SLPC   C2321123   4.378   1.913  10.158  0.5111  0.3417  0.0711
  184SLPC   H3R21124   4.327   2.009  10.183 -1.9646 -1.0195  0.5661
  184SLPC   H3S21125   4.290   1.848  10.176  0.5455  0.3725  0.3573
  184SLPC   C2421126   4.420   1.925  10.019  0.2748 -0.3823  0.1396
  184SLPC   H4R21127   4.509   1.992  10.013  0.4733 -0.2471  3.2810
  184SLPC   H4S21128   4.345   1.982   9.959  1.1372 -2.3879 -3.1215
  184SLPC   C2521129   4.456   1.793   9.953 -0.0381  0.1035  0.2648
  184SLPC   H5R21130   4.367   1.726   9.948 -0.0427  0.0299  1.1102
  184SLPC   H5S21131   4.532   1.735  10.010 -0.7959 -0.8673  0.3182
  184SLPC   C2621132   4.522   1.812   9.807 -0.1808  0.7104 -0.3147
  184SLPC   H6R21133   4.540   1.709   9.769 -2.4962  0.9186 -2.2266
  184SLPC   H6S21134   4.627   1.845   9.823  0.5823 -1.2154 -0.9976
  184SLPC   C2721135   4.442   1.897   9.706  0.2805  0.2426  0.1381
  184SLPC   H7R21136   4.433   1.996   9.756  0.9540 -0.3142  1.4137
  184SLPC   H7S21137   4.342   1.856   9.681 -0.2957  1.6779 -0.0261
  184SLPC   C2821138   4.515   1.908   9.566  0.5588  0.1395  0.0108
  184SLPC   H8R21139   4.619   1.942   9.583  0.6440 -0.4822  0.7944
  184SLPC   H8S21140   4.458   1.982   9.507 -0.1623 -1.1468 -0.9735
  184SLPC   C2921141   4.530   1.772   9.497  0.1713 -0.3931 -0.6721
  184SLPC   H9R21142   4.515   1.681   9.558  2.4980 -0.9842 -0.8807
  184SLPC  C21021143   4.562   1.748   9.374 -0.9303  0.0297  0.2689
  184SLPC  H10R21144   4.570   1.646   9.332 -1.2813 -1.0299  2.6349
  184SLPC  C21121145   4.600   1.856   9.279 -0.4427  0.2752  0.3558
  184SLPC  H11R21146   4.616   1.954   9.330  0.7193  0.1258  0.3114
  184SLPC  H11S21147   4.519   1.869   9.205 -0.5146 -1.0819  0.1760
  184SLPC  C21221148   4.729   1.817   9.210  0.3270  0.4612 -0.0244
  184SLPC  H12R21149   4.810   1.786   9.278  0.1701  1.7127  0.7514
  184SLPC  C21321150   4.756   1.833   9.081 -0.8481  0.1575  0.1824
  184SLPC  H13R21151   4.856   1.818   9.036 -1.2815  0.5368 -0.9465
  184SLPC  C21421152   4.657   1.890   8.985  0.6221 -0.8258  0.9152
  184SLPC  H14R21153   4.559   1.840   9.000 -0.5663  1.8454  2.8735
  184SLPC  H14S21154   4.687   1.864   8.881  0.5669  0.4792  0.5519
  184SLPC  C21521155   4.631   2.039   8.999 -0.0553  0.7444 -0.0007
  184SLPC  H15R21156   4.726   2.097   9.006  0.1006  0.3532  1.6754
  184SLPC  H15S21157   4.565   2.056   9.087 -3.9177 -2.3075 -2.0058
  184SLPC  C21621158   4.554   2.108   8.878  0.0423 -0.4718  0.3070
  184SLPC  H16R21159   4.536   2.029   8.803  0.9728 -0.8033  0.4185
  184SLPC  H16S21160   4.598   2.197   8.828 -0.5216 -0.5502 -0.3464
  184SLPC  C21721161   4.419   2.137   8.928 -0.3800  0.0984 -0.2123
  184SLPC  H17R21162   4.415   2.194   9.024 -0.9103 -0.9354  0.4027
  184SLPC  H17S21163   4.375   2.038   8.954 -0.2177 -0.3043 -1.4376
  184SLPC  C21821164   4.326   2.198   8.822 -0.1052  0.0873  0.0693
  184SLPC  H18R21165   4.335   2.142   8.726 -0.9775  0.5029 -0.2650
  184SLPC  H18S21166   4.364   2.302   8.810  1.5899 -0.5791 -0.5870
  184SLPC  H18T21167   4.220   2.197   8.857 -0.6646 -0.1549 -1.5510
  184SLPC   C3321168   4.113   2.227  10.206 -0.0562 -0.1396 -0.0295
  184SLPC   H3X21169   4.126   2.120  10.179  0.0253  0.1143 -1.0589
  184SLPC   H3Y21170   4.217   2.262  10.223  0.6301 -1.1107 -1.9290
  184SLPC   C3421171   4.059   2.297  10.080  0.2225 -0.5137  0.1515
  184SLPC   H4X21172   4.057   2.403  10.114  2.1410 -0.0455 -0.9976
  184SLPC   H4Y21173   3.955   2.283  10.045  0.5558 -0.1219 -1.0335
  184SLPC   C3521174   4.148   2.302   9.950 -0.4284  0.4564 -0.5507
  184SLPC   H5X21175   4.173   2.195   9.934 -0.4685  0.2591  0.6194
  184SLPC   H5Y21176   4.247   2.352   9.963 -0.4958  0.8182 -1.3355
  184SLPC   C3621177   4.078   2.359   9.828  0.1554 -0.5976 -0.0418
  184SLPC   H6X21178   4.058   2.468   9.840  0.7764 -0.0347 -3.1727
  184SLPC   H6Y21179   3.981   2.309   9.807  0.6138 -1.6447  0.2794
  184SLPC   C3721180   4.172   2.346   9.714 -0.8804  0.1537  0.4008
  184SLPC   H7X21181   4.193   2.239   9.694 -0.3634  0.2385  0.4766
  184SLPC   H7Y21182   4.264   2.408   9.719 -0.7090 -0.0021 -0.6796
  184SLPC   C3821183   4.098   2.389   9.584  0.0702 -0.0417  0.9225
  184SLPC   H8X21184   4.067   2.496   9.584  0.7779  0.1848  0.0810
  184SLPC   H8Y21185   4.003   2.334   9.574  0.1912 -0.6262  2.7807
  184SLPC   C3921186   4.183   2.373   9.452 -0.0184  0.1342  0.5296
  184SLPC   H9X21187   4.223   2.269   9.452 -2.3876 -0.8658  1.8101
  184SLPC   H9Y21188   4.273   2.437   9.459 -0.7170  1.5296 -2.1862
  184SLPC  C31021189   4.099   2.394   9.323  0.4366 -0.0827 -0.0611
  184SLPC  H10X21190   4.048   2.491   9.342 -2.3808 -1.4581 -0.0524
  184SLPC  H10Y21191   4.019   2.318   9.309 -0.4838  0.7891  0.3388
  184SLPC  C31121192   4.189   2.402   9.196 -0.3737  0.8202 -0.1859
  184SLPC  H11X21193   4.231   2.299   9.186  0.3134  1.1293 -0.5961
  184SLPC  H11Y21194   4.272   2.477   9.204  0.1751  0.1350  0.7548
  184SLPC  C31221195   4.119   2.412   9.063  0.2465  0.0529  0.1243
  184SLPC  H12X21196   4.056   2.320   9.057  2.6526 -1.7933  1.3497
  184SLPC  H12Y21197   4.194   2.418   8.981  0.8545 -0.1775  0.6549
  184SLPC  C31321198   4.046   2.540   9.043  0.4800 -0.1705  0.6615
  184SLPC  H13X21199   4.121   2.621   9.055  2.0417 -1.3989 -0.4173
  184SLPC  H13Y21200   3.970   2.554   9.123 -2.9372  1.8574 -2.6166
  184SLPC  C31421201   3.977   2.563   8.908 -0.6026  0.2782  0.1469
  184SLPC  H14X21202   3.872   2.530   8.921 -0.6920  0.1479 -0.8150
  184SLPC  H14Y21203   4.032   2.512   8.826  0.6688  0.6506  0.7429
  184SLPC  C31521204   3.963   2.711   8.872  0.5643  0.4872 -0.0494
  184SLPC  H15X21205   3.996   2.724   8.767  0.4101  0.5096 -0.0943
  184SLPC  H15Y21206   4.032   2.777   8.930  0.2228  2.2449 -1.5603
  184SLPC  C31621207   3.825   2.764   8.885 -0.3841 -0.4175  0.3717
  184SLPC  H16X21208   3.747   2.697   8.843 -0.5232 -0.3019  0.4456
  184SLPC  H16Y21209   3.816   2.863   8.834 -0.6313 -2.1674 -3.3609
  184SLPC  C31721210   3.786   2.790   9.033  0.0462 -0.0602 -0.3589
  184SLPC  H17X21211   3.852   2.873   9.064  1.3409 -0.2195 -2.5046
  184SLPC  H17Y21212   3.791   2.693   9.088 -1.1499  1.1572  2.0657
  184SLPC  C31821213   3.639   2.828   9.042 -0.5405  0.4019  0.3256
  184SLPC  H18X21214   3.613   2.925   8.994 -0.4621  0.7786  1.0227
  184SLPC  H18Y21215   3.614   2.839   9.150  1.6651 -0.2235  0.9491
  184SLPC  H18Z21216   3.565   2.752   9.011 -1.7751  2.1471 -1.2242
  185SLPC     N21217   2.422   3.735   6.858 -0.3946  0.2617 -0.2658
  185SLPC   C1321218   2.355   3.774   6.985  0.4719 -0.1540 -0.1533
  185SLPC  H13A21219   2.394   3.716   7.068 -1.6779 -0.7009  0.5312
  185SLPC  H13B21220   2.374   3.879   7.002  0.1217  0.2014 -1.7929
  185SLPC  H13C21221   2.250   3.756   6.969  0.5778  0.9144 -2.5144
  185SLPC   C1421222   2.408   3.584   6.855  0.1800 -0.1464 -0.0600
  185SLPC  H14A21223   2.446   3.527   6.939 -0.9851  0.4216  0.8814
  185SLPC  H14B21224   2.304   3.554   6.854 -0.7726  2.7767 -2.3707
  185SLPC  H14C21225   2.461   3.555   6.766  1.5890  0.1511  0.6424
  185SLPC   C1521226   2.561   3.782   6.870  0.1345 -0.0255  0.8968
  185SLPC  H15A21227   2.594   3.765   6.972  1.0572  0.7489  0.7464
  185SLPC  H15B21228   2.627   3.733   6.800  1.5517 -1.1584  2.9076
  185SLPC  H15C21229   2.580   3.885   6.844 -0.0562 -1.1813 -5.4757
  185SLPC   C1221230   2.363   3.790   6.725 -0.2089 -0.1872  0.1612
  185SLPC  H12A21231   2.430   3.784   6.641 -1.2014 -0.1356 -0.6402
  185SLPC  H12B21232   2.356   3.897   6.720 -0.1125 -0.1856  0.0551
  185SLPC   C1121233   2.224   3.746   6.684  0.2460  0.5668 -0.3032
  185SLPC  H11A21234   2.226   3.635   6.675 -0.7373  0.3914  1.2342
  185SLPC  H11B21235   2.200   3.781   6.581  1.1560 -0.2834 -0.8272
  185SLPC     P21236   2.086   3.938   6.785  0.2640 -0.1800 -0.1213
  185SLPC   O1321237   2.194   4.016   6.714 -0.0300  0.4908 -0.2211
  185SLPC   O1421238   1.950   3.967   6.750 -0.1794 -0.7742  0.5566
  185SLPC   O1221239   2.118   3.784   6.771  0.1609  0.6759 -0.1210
  185SLPC   O1121240   2.095   3.958   6.943  0.1476  0.1584 -0.0191
  185SLPC    C121241   2.165   4.065   7.003  0.1352 -0.9820  0.9395
  185SLPC    HA21242   2.273   4.043   6.998 -0.2167 -2.6933 -0.2487
  185SLPC    HB21243   2.133   4.160   6.954  1.1841 -0.5647  1.0434
  185SLPC    C221244   2.120   4.071   7.152 -0.7436  0.7365  0.7335
  185SLPC    HS21245   2.133   3.968   7.192 -1.4018 -0.2344 -1.4284
  185SLPC   O2121246   1.984   4.124   7.162 -0.5013 -0.1690  0.2249
  185SLPC   C2121247   1.896   4.056   7.225  0.0652 -0.6062  0.0908
  185SLPC   O2221248   1.923   3.951   7.278 -0.0404  0.0281 -0.2669
  185SLPC   C2221249   1.761   4.122   7.230  0.5017  0.0190  0.9499
  185SLPC   H2R21250   1.749   4.198   7.150 -0.0570 -1.3130 -0.2823
  185SLPC   H2S21251   1.686   4.048   7.195 -0.5261  0.6522  1.7599
  185SLPC    C321252   2.232   4.150   7.232 -0.2029  0.0920 -0.1160
  185SLPC    HX21253   2.243   4.244   7.173  0.1602 -0.0988 -0.3557
  185SLPC    HY21254   2.320   4.084   7.221 -0.4923 -0.3666  0.2597
  185SLPC   O3121255   2.196   4.157   7.373  0.0125  0.2667  0.4759
  185SLPC   C3121256   2.284   4.243   7.432  0.4279 -0.4743  0.1175
  185SLPC   O3221257   2.368   4.304   7.373 -0.4435 -0.0423  0.0658
  185SLPC   C3221258   2.258   4.240   7.582 -0.0550 -0.6645  0.1453
  185SLPC   H2X21259   2.272   4.137   7.619  1.3165 -0.1616  1.1083
  185SLPC   H2Y21260   2.151   4.268   7.597 -0.1319 -1.0531  0.3365
  185SLPC   C2321261   1.734   4.177   7.372 -0.2752 -0.3414  0.3202
  185SLPC   H3R21262   1.733   4.085   7.435  3.8386 -2.5790 -2.4710
  185SLPC   H3S21263   1.632   4.223   7.374  0.8482  2.4873 -1.6481
  185SLPC   C2421264   1.831   4.283   7.417  0.0515  0.0574 -0.3273
  185SLPC   H4R21265   1.832   4.363   7.340 -0.0979  0.1494 -0.2346
  185SLPC   H4S21266   1.936   4.251   7.429 -0.5826 -1.9026  0.2769
  185SLPC   C2521267   1.795   4.330   7.562  0.6219 -0.0629  0.7165
  185SLPC   H5R21268   1.794   4.236   7.620 -0.6414 -1.1387 -0.9657
  185SLPC   H5S21269   1.691   4.367   7.554  0.4304 -0.6820  0.2978
  185SLPC   C2621270   1.884   4.423   7.631  0.3922 -0.4220 -0.0789
  185SLPC   H6R21271   1.882   4.514   7.566 -0.9471  0.4895  1.1673
  185SLPC   H6S21272   1.990   4.391   7.640  0.1581 -1.0295  0.6266
  185SLPC   C2721273   1.842   4.462   7.775  0.1554  0.1217  0.5358
  185SLPC   H7R21274   1.887   4.398   7.854  0.6170 -1.7029 -1.1189
  185SLPC   H7S21275   1.731   4.452   7.777  0.0009 -1.3766 -3.8628
  185SLPC   C2821276   1.867   4.613   7.789  0.4179  0.0284  0.0373
  185SLPC   H8R21277   1.807   4.650   7.875  0.4708  1.7882 -0.6232
  185SLPC   H8S21278   1.831   4.682   7.710 -0.5398 -1.1881 -0.6013
  185SLPC   C2921279   2.016   4.646   7.819  0.0995  0.5303  0.7840
  185SLPC   H9R21280   2.074   4.679   7.731 -1.3566 -0.1731 -0.5030
  185SLPC  C21021281   2.068   4.623   7.942 -0.2287  0.0032  0.7974
  185SLPC  H10R21282   2.172   4.653   7.962  0.4674 -1.6801 -0.0867
  185SLPC  C21121283   1.991   4.563   8.061 -0.1294  0.0637 -0.5929
  185SLPC  H11R21284   1.982   4.454   8.040 -2.1136 -0.0548  0.6553
  185SLPC  H11S21285   1.890   4.609   8.069  1.0279  3.0010 -1.3815
  185SLPC  C21221286   2.058   4.584   8.189 -0.1042 -0.3121 -0.7536
  185SLPC  H12R21287   2.158   4.539   8.198  0.0221  0.2646  1.2454
  185SLPC  C21321288   2.023   4.668   8.287 -0.2544 -0.2386 -0.2424
  185SLPC  H13R21289   2.089   4.676   8.374 -0.2184  0.8280 -0.3536
  185SLPC  C21421290   1.904   4.754   8.287  0.5236 -0.2028  0.4448
  185SLPC  H14R21291   1.873   4.784   8.184 -3.2219 -1.7180  0.9587
  185SLPC  H14S21292   1.924   4.850   8.338  1.5255 -0.7514  1.1231
  185SLPC  C21521293   1.788   4.691   8.353  0.2782  0.4008 -0.8323
  185SLPC  H15R21294   1.774   4.593   8.302  2.2137  0.2635 -1.1536
  185SLPC  H15S21295   1.696   4.754   8.345  0.5186  0.7599 -0.7956
  185SLPC  C21621296   1.795   4.676   8.511 -0.1623  0.5202  0.5508
  185SLPC  H16R21297   1.878   4.611   8.545  0.5843  0.5294 -1.1629
  185SLPC  H16S21298   1.697   4.636   8.545  0.7019 -0.0629  2.5249
  185SLPC  C21721299   1.808   4.810   8.589 -0.0047  0.6519  0.2203
  185SLPC  H17R21300   1.732   4.876   8.542  0.2721  1.0868  0.3715
  185SLPC  H17S21301   1.899   4.860   8.548 -0.2072  0.0077 -1.0781
  185SLPC  C21821302   1.799   4.814   8.733 -0.0005 -0.5507 -0.1549
  185SLPC  H18R21303   1.884   4.767   8.787 -1.4545 -2.4498  0.6211
  185SLPC  H18S21304   1.704   4.771   8.771  0.7512 -0.1780  2.2949
  185SLPC  H18T21305   1.787   4.917   8.773 -0.0812 -0.2989 -0.8144
  185SLPC   C3321306   2.360   4.321   7.673  0.4210 -0.1495 -0.0617
  185SLPC   H3X21307   2.362   4.428   7.646 -0.6111 -0.5097 -1.6990
  185SLPC   H3Y21308   2.454   4.273   7.638 -0.6142 -1.5618 -1.0535
  185SLPC   C3421309   2.322   4.303   7.819  0.5590 -0.0962  0.8404
  185SLPC   H4X21310   2.325   4.197   7.852 -2.2326 -0.2568  0.8042
  185SLPC   H4Y21311   2.215   4.334   7.821  0.7469  0.7678 -1.0213
  185SLPC   C3521312   2.400   4.397   7.914  0.1092 -0.0099 -1.0072
  185SLPC   H5X21313   2.361   4.500   7.896 -0.1861  0.2571  0.9501
  185SLPC   H5Y21314   2.510   4.390   7.899  0.0275  0.0143 -1.6623
  185SLPC   C3621315   2.372   4.372   8.065 -0.1559  0.8808  0.1219
  185SLPC   H6X21316   2.390   4.263   8.079 -0.0350  0.5558 -2.1236
  185SLPC   H6Y21317   2.262   4.374   8.080 -0.4512  3.0699 -1.7566
  185SLPC   C3721318   2.456   4.454   8.165 -0.5946 -0.6002  0.4181
  185SLPC   H7X21319   2.554   4.403   8.154 -0.1470  0.5229 -1.1615
  185SLPC   H7Y21320   2.430   4.446   8.273 -0.3290  2.9576  0.8627
  185SLPC   C3821321   2.460   4.604   8.130 -0.9380  0.3325  0.0548
  185SLPC   H8X21322   2.354   4.638   8.143 -1.1811 -0.6819  0.7624
  185SLPC   H8Y21323   2.499   4.616   8.027 -3.2247 -0.7390 -1.0243
  185SLPC   C3921324   2.539   4.689   8.230 -0.4516 -0.1130  0.1355
  185SLPC   H9X21325   2.533   4.794   8.191  1.4885 -0.2626 -0.7167
  185SLPC   H9Y21326   2.647   4.667   8.215 -0.4936  0.2260 -0.7254
  185SLPC  C31021327   2.518   4.685   8.379 -0.2738 -0.6222  0.3405
  185SLPC  H10X21328   2.581   4.760   8.431  1.3165 -0.0162 -2.2757
  185SLPC  H10Y21329   2.538   4.581   8.413 -2.7738 -0.9875  0.8812
  185SLPC  C31121330   2.376   4.721   8.414 -0.1837 -0.4845  0.8576
  185SLPC  H11X21331   2.294   4.655   8.379 -2.2385  0.8323  2.9170
  185SLPC  H11Y21332   2.353   4.822   8.374  1.6983 -0.5427 -0.5347
  185SLPC  C31221333   2.360   4.727   8.566 -0.1773  0.4099 -0.4303
  185SLPC  H12X21334   2.442   4.789   8.610  0.5304 -0.6737 -0.1854
  185SLPC  H12Y21335   2.357   4.622   8.601 -3.0381  0.7735  0.6988
  185SLPC  C31321336   2.224   4.782   8.615  0.3949 -0.0254 -0.2206
  185SLPC  H13X21337   2.144   4.728   8.560 -0.2835 -0.6534  1.3230
  185SLPC  H13Y21338   2.215   4.888   8.583  1.4413  0.1367 -0.0295
  185SLPC  C31421339   2.195   4.765   8.758  0.3346 -0.0905 -0.0534
  185SLPC  H14X21340   2.217   4.659   8.783 -1.0821 -0.2255  0.7304
  185SLPC  H14Y21341   2.092   4.790   8.790  1.1101  0.8168  1.9252
  185SLPC  C31521342   2.272   4.857   8.853  0.4764 -0.0223  0.8894
  185SLPC  H15X21343   2.380   4.863   8.828  0.3697  0.8770  0.5984
  185SLPC  H15Y21344   2.266   4.801   8.948  0.2904 -1.9665 -0.2210
  185SLPC  C31621345   2.212   4.999   8.852 -0.8268  0.6758  0.0426
  185SLPC  H16X21346   2.146   5.006   8.941 -0.8828  0.3070  0.0310
  185SLPC  H16Y21347   2.161   5.041   8.763 -0.0774  2.0478  0.2255
  185SLPC  C31721348   2.327   5.102   8.881  1.0114 -0.7300 -0.4045
  185SLPC  H17X21349   2.372   5.048   8.967 -1.4383 -1.4504  0.4864
  185SLPC  H17Y21350   2.281   5.199   8.911 -1.6464 -2.6157  2.1413
  185SLPC  C31821351   2.417   5.144   8.759  0.2386 -0.1699  0.1560
  185SLPC  H18X21352   2.427   5.052   8.697 -0.0941  0.0737 -0.2673
  185SLPC  H18Y21353   2.515   5.188   8.785 -0.5083  0.9206  1.2387
  185SLPC  H18Z21354   2.357   5.215   8.698 -0.6314 -0.8928  0.1426
  186SLPC     N21355   5.725   0.887   6.130 -0.0025 -0.4215 -0.0553
  186SLPC   C1321356   5.759   0.748   6.090 -0.6462  0.0447  0.1076
  186SLPC  H13A21357   5.838   0.714   6.155  0.3942  1.9989 -0.0676
  186SLPC  H13B21358   5.680   0.674   6.087 -1.0250  0.3670  1.6099
  186SLPC  H13C21359   5.799   0.758   5.990  1.5171  0.0626  0.9307
  186SLPC   C1421360   5.665   0.968   6.017 -0.3991 -0.0042  0.5862
  186SLPC  H14A21361   5.576   0.923   5.975 -0.6983  0.5465  0.6188
  186SLPC  H14B21362   5.652   1.068   6.056  0.6914  0.2035  0.4426
  186SLPC  H14C21363   5.736   0.976   5.936 -0.4019 -0.2805  0.5570
  186SLPC   C1521364   5.854   0.952   6.181  0.3588  0.7937 -0.4053
  186SLPC  H15A21365   5.936   0.962   6.111  2.5278 -2.3038  1.4032
  186SLPC  H15B21366   5.822   1.044   6.226  0.0386  0.7136 -0.4689
  186SLPC  H15C21367   5.899   0.889   6.256  0.7556  2.1597  0.5321
  186SLPC   C1221368   5.613   0.891   6.241 -0.7827  0.5218  0.6234
  186SLPC  H12A21369   5.603   0.991   6.281  0.3933  0.7209  0.4561
  186SLPC  H12B21370   5.651   0.829   6.321 -0.6046  0.6150  0.6115
  186SLPC   C1121371   5.472   0.846   6.211  0.6300 -0.3470  0.1038
  186SLPC  H11A21372   5.422   0.909   6.135 -2.9251  0.4293  2.8390
  186SLPC  H11B21373   5.418   0.870   6.305  0.9450  0.6894  0.0287
  186SLPC     P21374   5.482   0.592   6.296 -0.1412 -0.1441 -0.2317
  186SLPC   O1321375   5.351   0.527   6.326  0.0588 -0.7578  0.2304
  186SLPC   O1421376   5.586   0.504   6.238 -0.9359 -0.1936 -0.1773
  186SLPC   O1221377   5.455   0.714   6.191  0.0918  0.6935  0.4300
  186SLPC   O1121378   5.540   0.660   6.424  0.0076  0.2510  0.0886
  186SLPC    C121379   5.607   0.580   6.519  0.0109  0.0271 -0.0038
  186SLPC    HA21380   5.682   0.506   6.482  1.2610 -0.0340  2.4186
  186SLPC    HB21381   5.667   0.647   6.584  0.0482  0.9712 -0.9815
  186SLPC    C221382   5.512   0.516   6.627 -0.4728 -0.5532  0.5201
  186SLPC    HS21383   5.443   0.446   6.575 -0.9842 -1.1185  1.9194
  186SLPC   O2121384   5.437   0.617   6.687 -0.3806 -0.2000 -0.8494
  186SLPC   C2121385   5.341   0.577   6.766 -0.0510  0.0236  0.3990
  186SLPC   O2221386   5.289   0.464   6.758  0.6913 -0.1376 -0.4413
  186SLPC   C2221387   5.301   0.691   6.867 -0.3670  0.3036 -0.0742
  186SLPC   H2R21388   5.388   0.738   6.917  0.7235 -0.0076 -1.6018
  186SLPC   H2S21389   5.231   0.758   6.812 -1.1959 -2.0201 -2.0478
  186SLPC    C321390   5.598   0.416   6.725 -0.6243  0.0591  0.1382
  186SLPC    HX21391   5.674   0.483   6.771 -1.5440  0.8971  0.4713
  186SLPC    HY21392   5.637   0.346   6.649 -0.4885 -0.6859  0.8762
  186SLPC   O3121393   5.525   0.358   6.834 -0.5502  0.3809 -0.0722
  186SLPC   C3121394   5.497   0.230   6.804  0.1995 -0.4390 -0.7823
  186SLPC   O3221395   5.539   0.164   6.713  0.3362 -0.5941  0.0354
  186SLPC   C3221396   5.389   0.170   6.888  0.2145  0.2936 -0.0948
  186SLPC   H2X21397   5.374   0.071   6.839 -2.2265  0.6868 -0.2452
  186SLPC   H2Y21398   5.295   0.229   6.885  1.4771  2.4697  0.7353
  186SLPC   C2321399   5.236   0.629   6.994  0.1213 -0.3495  0.9217
  186SLPC   H3R21400   5.140   0.580   6.965 -0.8742  0.2224  3.0379
  186SLPC   H3S21401   5.212   0.719   7.055  0.2976 -1.0467  2.0428
  186SLPC   C2421402   5.329   0.536   7.075 -0.5300  0.0947  0.5102
  186SLPC   H4R21403   5.430   0.577   7.096 -0.1001  0.5700 -2.1311
  186SLPC   H4S21404   5.339   0.452   7.003 -0.6541  0.0143  0.5854
  186SLPC   C2521405   5.268   0.481   7.205 -0.5435 -0.0020  0.0234
  186SLPC   H5R21406   5.289   0.372   7.208  2.0397  0.4365 -0.1558
  186SLPC   H5S21407   5.159   0.500   7.215 -1.0306 -2.4849  0.0598
  186SLPC   C2621408   5.332   0.551   7.330 -0.3349  0.2069 -0.3889
  186SLPC   H6R21409   5.270   0.636   7.364 -1.4067  0.0165 -1.7633
  186SLPC   H6S21410   5.437   0.579   7.306 -0.9279  2.9954 -0.0651
  186SLPC   C2721411   5.345   0.455   7.451 -0.1601 -1.1158  0.6619
  186SLPC   H7R21412   5.414   0.498   7.528  0.2546 -1.6433  0.5961
  186SLPC   H7S21413   5.416   0.374   7.423  0.3744 -0.7466  0.9192
  186SLPC   C2821414   5.211   0.405   7.511  0.3201  0.1634 -0.5549
  186SLPC   H8R21415   5.227   0.330   7.591  0.3859 -0.3915 -1.0742
  186SLPC   H8S21416   5.164   0.350   7.427 -0.8574  0.6109 -0.2104
  186SLPC   C2921417   5.122   0.517   7.569 -0.1812  0.0099  0.2448
  186SLPC   H9R21418   5.039   0.546   7.503 -0.8118 -1.9348  0.1126
  186SLPC  C21021419   5.117   0.544   7.702  0.7037 -1.3214  0.4337
  186SLPC  H10R21420   5.040   0.617   7.733 -0.3161 -1.6322 -1.1986
  186SLPC  C21121421   5.184   0.483   7.821 -0.0937  0.4915 -0.0169
  186SLPC  H11R21422   5.255   0.405   7.785  0.0678  0.2767  0.7489
  186SLPC  H11S21423   5.106   0.437   7.886  1.0853 -2.2092 -0.3484
  186SLPC  C21221424   5.268   0.572   7.906 -0.0658 -0.4120  0.3565
  186SLPC  H12R21425   5.371   0.582   7.868 -0.4486  2.3004 -0.1489
  186SLPC  C21321426   5.235   0.646   8.014 -0.0689 -0.3895  0.4830
  186SLPC  H13R21427   5.309   0.704   8.070  0.3734 -0.7003  0.2292
  186SLPC  C21421428   5.097   0.661   8.079 -0.2544 -0.0177  0.6452
  186SLPC  H14R21429   5.017   0.622   8.012  2.1812 -1.7480 -1.4373
  186SLPC  H14S21430   5.074   0.769   8.092 -1.2604 -0.3727  2.0476
  186SLPC  C21521431   5.067   0.600   8.212 -0.6234 -0.0251  0.1959
  186SLPC  H15R21432   5.145   0.637   8.282  1.0342 -0.8650 -1.1404
  186SLPC  H15S21433   5.077   0.491   8.193 -0.7858  0.2609 -1.6855
  186SLPC  C21621434   4.927   0.628   8.269 -0.2190  0.2429 -0.0906
  186SLPC  H16R21435   4.854   0.583   8.198 -1.1893 -0.5612  1.3695
  186SLPC  H16S21436   4.892   0.733   8.281 -0.5882  0.0872  0.2133
  186SLPC  C21721437   4.912   0.554   8.402 -0.8470 -0.3046  0.3362
  186SLPC  H17R21438   4.996   0.598   8.462 -0.0397 -2.0474  0.5557
  186SLPC  H17S21439   4.936   0.447   8.385 -0.8563 -1.0125  3.9732
  186SLPC  C21821440   4.780   0.590   8.469 -0.0662  0.4310  0.1476
  186SLPC  H18R21441   4.787   0.545   8.571  2.2679 -1.6019 -0.8117
  186SLPC  H18S21442   4.692   0.558   8.409  1.9453 -2.3292 -1.5532
  186SLPC  H18T21443   4.777   0.700   8.483  1.9750  0.3567  1.5964
  186SLPC   C3321444   5.435   0.153   7.041  0.7281 -0.0308  0.7525
  186SLPC   H3X21445   5.458   0.256   7.076 -2.0480  0.6523  0.7752
  186SLPC   H3Y21446   5.524   0.085   7.044  0.3003 -0.7389 -0.9746
  186SLPC   C3421447   5.328   0.090   7.129  1.1307 -0.7307 -0.1691
  186SLPC   H4X21448   5.277   0.003   7.083  0.3397  0.0849 -0.8844
  186SLPC   H4Y21449   5.251   0.170   7.126  1.2913 -0.4270  2.0414
  186SLPC   C3521450   5.380   0.046   7.264  0.6699  0.3680 -0.2416
  186SLPC   H5X21451   5.411   0.136   7.322  1.7801  0.3094 -0.6999
  186SLPC   H5Y21452   5.468  -0.021   7.254 -0.8726 -1.7644 -0.0693
  186SLPC   C3621453   5.283  -0.043   7.347 -0.1149 -0.0860  0.4625
  186SLPC   H6X21454   5.267  -0.133   7.284 -0.8734 -0.0730  0.6262
  186SLPC   H6Y21455   5.194   0.021   7.363  0.2058  0.4576  0.0818
  186SLPC   C3721456   5.336  -0.086   7.487 -0.0019 -0.0982 -0.4378
  186SLPC   H7X21457   5.425  -0.150   7.472  0.2008  0.0488  0.0904
  186SLPC   H7Y21458   5.268  -0.153   7.545  0.3816  0.0555  0.2055
  186SLPC   C3821459   5.377   0.035   7.573 -0.2060 -0.4407 -0.0438
  186SLPC   H8X21460   5.284   0.095   7.566 -0.8857 -1.5837 -1.2767
  186SLPC   H8Y21461   5.465   0.087   7.530  0.1978  0.0931  1.3999
  186SLPC   C3921462   5.397   0.005   7.716  0.0701  0.2053 -0.3470
  186SLPC   H9X21463   5.495  -0.047   7.723  1.4216  2.2267 -2.4531
  186SLPC   H9Y21464   5.314  -0.060   7.749 -0.7377 -0.5319 -3.4419
  186SLPC  C31021465   5.396   0.128   7.809 -0.0984  0.5432 -0.6392
  186SLPC  H10X21466   5.315   0.200   7.782 -0.0282  1.7850  2.0687
  186SLPC  H10Y21467   5.481   0.193   7.777 -1.3163  2.3875 -0.2852
  186SLPC  C31121468   5.404   0.108   7.961 -0.2792 -0.4062 -0.7716
  186SLPC  H11X21469   5.494   0.063   8.009 -1.6762 -0.9214  1.5258
  186SLPC  H11Y21470   5.323   0.035   7.986 -1.6215  1.1051 -0.5521
  186SLPC  C31221471   5.368   0.239   8.043 -0.1269  0.0258  0.6565
  186SLPC  H12X21472   5.277   0.287   8.003  0.5054 -0.0809 -0.9899
  186SLPC  H12Y21473   5.455   0.308   8.037  0.9002 -1.3374 -1.2966
  186SLPC  C31321474   5.342   0.207   8.190  0.5573  0.0279 -0.8902
  186SLPC  H13X21475   5.434   0.151   8.218  0.2382 -0.8692 -1.6002
  186SLPC  H13Y21476   5.246   0.153   8.203 -0.1273  1.3900 -0.0657
  186SLPC  C31421477   5.347   0.330   8.278 -0.5767  0.2432 -0.3571
  186SLPC  H14X21478   5.266   0.399   8.245 -0.0378  0.1868 -1.8524
  186SLPC  H14Y21479   5.438   0.390   8.258 -0.3350 -0.3445 -1.0750
  186SLPC  C31521480   5.335   0.287   8.425 -0.6260  0.3638 -0.9234
  186SLPC  H15X21481   5.392   0.192   8.435 -0.9205  0.1969 -0.8084
  186SLPC  H15Y21482   5.229   0.258   8.442 -0.9413 -0.7129 -4.0366
  186SLPC  C31621483   5.372   0.415   8.503 -1.1810 -0.2423 -0.0858
  186SLPC  H16X21484   5.363   0.501   8.433 -0.2127 -1.0307 -1.2170
  186SLPC  H16Y21485   5.478   0.396   8.531 -0.4542  0.8251 -1.9135
  186SLPC  C31721486   5.298   0.447   8.632  0.5856  0.1552 -0.3487
  186SLPC  H17X21487   5.332   0.383   8.716  0.2952  1.7254  1.0120
  186SLPC  H17Y21488   5.189   0.433   8.612 -0.0639  3.4646  0.2780
  186SLPC  C31821489   5.305   0.592   8.680 -0.3632 -0.0382  0.2687
  186SLPC  H18X21490   5.225   0.609   8.754 -1.8351  1.3543 -1.5184
  186SLPC  H18Y21491   5.282   0.663   8.597 -1.6280 -0.6551  0.0835
  186SLPC  H18Z21492   5.407   0.615   8.719  0.2368 -2.4543  0.2617
  187SLPC     N21493   4.441   3.235   6.347 -0.8040  0.3361 -0.5769
  187SLPC   C1321494   4.435   3.304   6.219 -0.0093 -0.2813  0.1635
  187SLPC  H13A21495   4.373   3.392   6.225  3.0295  1.9609  0.8554
  187SLPC  H13B21496   4.533   3.334   6.185 -0.5159  0.9113 -0.3056
  187SLPC  H13C21497   4.390   3.236   6.147  0.7198 -0.4437 -0.1460
  187SLPC   C1421498   4.522   3.109   6.322  0.5624  0.2574 -0.6113
  187SLPC  H14A21499   4.565   3.077   6.415  0.3261  1.0065 -0.2417
  187SLPC  H14B21500   4.450   3.034   6.291 -1.7260  0.7826  2.8530
  187SLPC  H14C21501   4.600   3.117   6.248 -1.2374  1.9762 -2.4646
  187SLPC   C1521502   4.302   3.201   6.402 -0.1063 -0.4546 -0.6038
  187SLPC  H15A21503   4.264   3.121   6.340 -1.8827  0.7668 -1.1850
  187SLPC  H15B21504   4.306   3.149   6.496  2.3337  0.1867 -0.2898
  187SLPC  H15C21505   4.233   3.284   6.391 -1.6890 -1.8876 -2.0707
  187SLPC   C1221506   4.520   3.320   6.453  0.0043  0.1617  0.2059
  187SLPC  H12A21507   4.482   3.421   6.454  2.1877  1.0417  0.1229
  187SLPC  H12B21508   4.618   3.343   6.413 -0.5711  1.4115 -0.5739
  187SLPC   C1121509   4.545   3.251   6.594  0.2093 -0.2914  0.3894
  187SLPC  H11A21510   4.608   3.318   6.656 -0.0199  0.6300 -0.3555
  187SLPC  H11B21511   4.605   3.158   6.599  1.9628  0.7270 -0.7498
  187SLPC     P21512   4.345   3.334   6.734 -0.5048  0.1240  0.0167
  187SLPC   O1321513   4.331   3.454   6.645 -0.1365  0.3388  0.7506
  187SLPC   O1421514   4.225   3.275   6.801  0.2772  0.2692  0.1695
  187SLPC   O1221515   4.423   3.220   6.660 -0.0124 -0.0449  0.5407
  187SLPC   O1121516   4.449   3.369   6.853  0.1261  0.3482 -0.1980
  187SLPC    C121517   4.458   3.306   6.976 -0.3577  0.0436  0.2010
  187SLPC    HA21518   4.356   3.292   7.019  0.5829 -1.8238  1.9563
  187SLPC    HB21519   4.506   3.207   6.961  1.4237  1.0367 -1.0102
  187SLPC    C221520   4.536   3.388   7.088  0.4476 -0.2436 -0.0442
  187SLPC    HS21521   4.638   3.408   7.050  0.2842  1.0509  0.1627
  187SLPC   O2121522   4.524   3.311   7.208  0.0664 -0.0436  0.4250
  187SLPC   C2121523   4.607   3.337   7.307 -1.0104  0.7901  0.2949
  187SLPC   O2221524   4.719   3.376   7.296 -0.3745 -0.3237 -0.0915
  187SLPC   C2221525   4.541   3.306   7.443  0.1016  0.3822  0.4160
  187SLPC   H2R21526   4.433   3.331   7.428  0.2764  0.5666 -0.6136
  187SLPC   H2S21527   4.553   3.199   7.468 -0.3476 -0.0103 -0.9490
  187SLPC    C321528   4.477   3.529   7.113  0.2946 -0.3330  0.2430
  187SLPC    HX21529   4.375   3.508   7.152 -1.3217 -0.4265 -3.5485
  187SLPC    HY21530   4.465   3.582   7.016 -0.1133 -3.2612 -1.4362
  187SLPC   O3121531   4.551   3.603   7.215  0.1940  0.2267 -0.1137
  187SLPC   C3121532   4.642   3.696   7.168  0.5576  0.5676  0.0356
  187SLPC   O3221533   4.647   3.740   7.055  0.0438  0.1433 -0.1554
  187SLPC   C3221534   4.740   3.723   7.277 -0.7052  0.5208  0.0045
  187SLPC   H2X21535   4.836   3.766   7.243 -0.3887  0.8668  1.2833
  187SLPC   H2Y21536   4.765   3.622   7.317  0.4183  0.9495  0.4292
  187SLPC   C2321537   4.602   3.382   7.554 -0.3977 -0.2479  0.1429
  187SLPC   H3R21538   4.635   3.484   7.526 -1.0358  0.3504  1.4592
  187SLPC   H3S21539   4.698   3.333   7.578  0.0172  0.9882  1.1240
  187SLPC   C2421540   4.514   3.413   7.674 -0.7120 -0.2817  0.4624
  187SLPC   H4R21541   4.580   3.403   7.762  3.1134 -3.0457 -2.3659
  187SLPC   H4S21542   4.434   3.337   7.685 -1.4411  0.2333 -0.9741
  187SLPC   C2521543   4.467   3.555   7.676  0.6811 -0.6276  0.1175
  187SLPC   H5R21544   4.413   3.595   7.588  1.3717 -1.9453 -0.9439
  187SLPC   H5S21545   4.554   3.626   7.680 -0.2116  0.6681 -1.9058
  187SLPC   C2621546   4.398   3.591   7.809 -0.1856  0.1019 -0.4850
  187SLPC   H6R21547   4.478   3.579   7.885  1.7719  0.6492 -2.3529
  187SLPC   H6S21548   4.316   3.516   7.813  0.9574 -1.1389  0.6875
  187SLPC   C2721549   4.345   3.736   7.822  0.5954  0.1620  0.7076
  187SLPC   H7R21550   4.268   3.765   7.748 -0.0004 -2.0632  0.3992
  187SLPC   H7S21551   4.423   3.815   7.829  0.9266 -0.0261 -0.7187
  187SLPC   C2821552   4.252   3.753   7.945  0.3991 -0.5439 -0.4690
  187SLPC   H8R21553   4.311   3.701   8.024  0.5986 -1.0859 -0.9665
  187SLPC   H8S21554   4.155   3.699   7.943  0.1419 -0.0695 -1.0003
  187SLPC   C2921555   4.226   3.895   7.982  0.1170 -0.1042  0.0500
  187SLPC   H9R21556   4.255   3.962   7.899  0.8602 -3.2561 -2.4762
  187SLPC  C21021557   4.197   3.948   8.108  0.9826 -0.5313  0.2620
  187SLPC  H10R21558   4.183   4.056   8.122  1.5094 -0.6090  1.4576
  187SLPC  C21121559   4.172   3.863   8.231 -0.0394  0.4591  0.2956
  187SLPC  H11R21560   4.201   3.759   8.204 -1.5203  0.2678 -0.6877
  187SLPC  H11S21561   4.067   3.849   8.264 -0.6930  1.7568 -1.1549
  187SLPC  C21221562   4.239   3.905   8.358  0.6721 -0.2737  0.0605
  187SLPC  H12R21563   4.298   3.997   8.351 -1.1631  1.0394  0.9203
  187SLPC  C21321564   4.228   3.861   8.482  0.4096  0.1199  0.2704
  187SLPC  H13R21565   4.272   3.910   8.570 -0.5754  0.8026  0.4004
  187SLPC  C21421566   4.138   3.740   8.518 -0.2861 -0.8419  0.0739
  187SLPC  H14R21567   4.194   3.687   8.598  1.0328  1.4163  0.7360
  187SLPC  H14S21568   4.104   3.678   8.433 -2.8533 -0.6755  0.8727
  187SLPC  C21521569   4.006   3.798   8.590  0.0892 -0.8025  0.4385
  187SLPC  H15R21570   3.943   3.827   8.504 -0.5684 -1.3930  0.7123
  187SLPC  H15S21571   4.018   3.888   8.654  1.4240 -0.7783  0.1835
  187SLPC  C21621572   3.939   3.690   8.680 -0.0299  0.2172  0.3517
  187SLPC  H16R21573   3.970   3.692   8.786  0.0492 -0.2782  0.3399
  187SLPC  H16S21574   3.976   3.593   8.640 -0.1838  0.2598  0.0987
  187SLPC  C21721575   3.792   3.689   8.658  0.5184  0.3439  0.0383
  187SLPC  H17R21576   3.785   3.660   8.551 -0.4659 -1.7066  0.6120
  187SLPC  H17S21577   3.738   3.786   8.667 -1.1162 -0.4883 -0.3257
  187SLPC  C21821578   3.715   3.582   8.737 -0.7678 -0.1852  0.3854
  187SLPC  H18R21579   3.613   3.553   8.706 -1.5435  0.8387  1.8562
  187SLPC  H18S21580   3.708   3.627   8.838 -0.1379 -0.6832  0.6592
  187SLPC  H18T21581   3.784   3.494   8.741 -0.9972 -0.3774  0.1146
  187SLPC   C3321582   4.697   3.808   7.390  0.3087 -0.0631  0.0986
  187SLPC   H3X21583   4.603   3.766   7.431  1.5680 -1.9317  1.2451
  187SLPC   H3Y21584   4.663   3.911   7.363 -0.7379 -0.7229 -1.1599
  187SLPC   C3421585   4.809   3.814   7.491  0.5331 -0.4817 -0.8090
  187SLPC   H4X21586   4.893   3.874   7.448  0.5631  1.6008  1.8810
  187SLPC   H4Y21587   4.840   3.707   7.496 -2.3422 -1.3646 -0.1585
  187SLPC   C3521588   4.766   3.876   7.628  0.3246 -0.0818 -0.1665
  187SLPC   H5X21589   4.674   3.824   7.663 -0.9278  0.5700 -2.3347
  187SLPC   H5Y21590   4.726   3.979   7.617 -1.0675 -0.2001  2.7345
  187SLPC   C3621591   4.879   3.864   7.723  0.1515 -0.2802 -0.4027
  187SLPC   H6X21592   4.968   3.914   7.679 -0.2799  0.7451 -0.1326
  187SLPC   H6Y21593   4.897   3.756   7.740 -0.4220 -0.6960 -2.2229
  187SLPC   C3721594   4.850   3.924   7.867  0.1450 -0.3668 -0.3451
  187SLPC   H7X21595   4.852   4.035   7.865  0.5681 -0.3477  0.6971
  187SLPC   H7Y21596   4.745   3.906   7.900 -0.8325  0.9659 -2.5329
  187SLPC   C3821597   4.954   3.880   7.963 -0.2646  0.5616 -0.1311
  187SLPC   H8X21598   5.056   3.904   7.928  0.5961 -1.1093  1.0958
  187SLPC   H8Y21599   4.948   3.769   7.970  0.3628  0.2658 -3.0542
  187SLPC   C3921600   4.924   3.934   8.101  0.0610  0.0270  0.5417
  187SLPC   H9X21601   4.815   3.937   8.119  0.0554  1.1044  0.4055
  187SLPC   H9Y21602   4.959   4.039   8.112 -0.3405 -0.0152  2.5258
  187SLPC  C31021603   4.991   3.849   8.209  0.5304 -0.6048  0.2870
  187SLPC  H10X21604   5.090   3.823   8.165  0.1860  0.5693 -1.2581
  187SLPC  H10Y21605   4.934   3.754   8.221  1.8655 -1.6538 -1.0972
  187SLPC  C31121606   5.013   3.921   8.344  0.0312 -0.0169  0.2210
  187SLPC  H11X21607   4.926   3.964   8.397 -0.7022 -0.5870 -0.4906
  187SLPC  H11Y21608   5.068   4.011   8.307 -1.9113  0.9618 -0.4463
  187SLPC  C31221609   5.092   3.835   8.439 -0.0780  0.4723 -0.3136
  187SLPC  H12X21610   5.172   3.778   8.387  0.5410  0.0256  1.0668
  187SLPC  H12Y21611   5.035   3.749   8.480  0.1665 -0.1919 -1.3258
  187SLPC  C31321612   5.146   3.919   8.552  0.2292 -0.3352 -0.6152
  187SLPC  H13X21613   5.123   3.874   8.650 -2.9487  1.0649 -0.5852
  187SLPC  H13Y21614   5.084   4.011   8.562 -0.8448 -1.1001 -0.0195
  187SLPC  C31421615   5.297   3.949   8.541  0.0012 -0.2273 -0.0433
  187SLPC  H14X21616   5.316   3.986   8.438 -0.4261  0.0648 -0.0197
  187SLPC  H14Y21617   5.355   3.855   8.557  1.7771  1.0495  1.4444
  187SLPC  C31521618   5.352   4.060   8.640  0.6123 -0.2322  0.4683
  187SLPC  H15X21619   5.270   4.132   8.622 -0.0235 -1.3116 -1.1653
  187SLPC  H15Y21620   5.446   4.104   8.602  0.3746 -0.6034 -0.5730
  187SLPC  C31621621   5.351   4.015   8.789 -0.0294  0.2424 -0.0340
  187SLPC  H16X21622   5.260   3.954   8.805 -0.2409  0.7706  0.8061
  187SLPC  H16Y21623   5.347   4.112   8.843  1.7599  0.0001  0.5905
  187SLPC  C31721624   5.473   3.927   8.817  0.2868  0.7557 -0.6950
  187SLPC  H17X21625   5.571   3.978   8.830 -0.8091  2.8310 -0.0951
  187SLPC  H17Y21626   5.480   3.853   8.735  1.0878 -0.2473  0.2505
  187SLPC  C31821627   5.435   3.846   8.944 -0.4470 -0.3626 -0.1828
  187SLPC  H18X21628   5.431   3.921   9.025  2.2528 -1.1090  0.7516
  187SLPC  H18Y21629   5.516   3.778   8.977  0.5658  1.0554  0.3390
  187SLPC  H18Z21630   5.336   3.797   8.927 -0.2975 -0.2511 -1.4760
  188SLPC     N21631   5.326   5.208   6.458 -0.5404 -0.8583  0.3852
  188SLPC   C1321632   5.209   5.292   6.427  0.1023 -0.1948 -0.6427
  188SLPC  H13A21633   5.239   5.395   6.428  0.8797 -0.4105 -0.9641
  188SLPC  H13B21634   5.180   5.252   6.330  0.3892 -0.7782 -0.4946
  188SLPC  H13C21635   5.124   5.279   6.491  0.1716 -1.8400 -0.8372
  188SLPC   C1421636   5.430   5.245   6.351 -0.1860  0.0113 -0.2428
  188SLPC  H14A21637   5.385   5.233   6.254 -0.5254 -3.6269  0.2217
  188SLPC  H14B21638   5.463   5.346   6.370  0.1112 -0.2880  0.9498
  188SLPC  H14C21639   5.520   5.186   6.364 -0.4518 -0.2330  0.5670
  188SLPC   C1521640   5.302   5.059   6.435  0.7067 -0.4877 -0.0066
  188SLPC  H15A21641   5.216   5.011   6.480 -0.7685 -0.9663 -3.0632
  188SLPC  H15B21642   5.292   5.052   6.327 -2.4822  1.2458  0.0394
  188SLPC  H15C21643   5.383   5.002   6.476  1.3001 -1.6848 -2.5947
  188SLPC   C1221644   5.384   5.233   6.597  0.1165  0.5302 -0.0417
  188SLPC  H12A21645   5.308   5.224   6.673  0.2714 -0.6730 -0.0038
  188SLPC  H12B21646   5.422   5.333   6.609 -4.0808  2.1043  2.2302
  188SLPC   C1121647   5.499   5.145   6.646 -0.6494  0.6315 -0.8697
  188SLPC  H11A21648   5.481   5.037   6.626  2.4504  0.1083 -1.2529
  188SLPC  H11B21649   5.506   5.140   6.756  1.0492 -1.9226 -1.0229
  188SLPC     P21650   5.706   5.302   6.632 -0.2165  0.1089  0.3329
  188SLPC   O1321651   5.833   5.312   6.554 -0.1800  0.3449 -0.1205
  188SLPC   O1421652   5.618   5.422   6.636  0.2451 -0.6195  0.8050
  188SLPC   O1221653   5.618   5.172   6.577  0.3819 -0.2377 -0.2523
  188SLPC   O1121654   5.732   5.270   6.786 -0.4470  0.6370  0.4032
  188SLPC    C121655   5.847   5.185   6.818 -0.3583 -0.1543 -0.6839
  188SLPC    HA21656   5.945   5.219   6.778  0.2370 -0.7364  0.2358
  188SLPC    HB21657   5.866   5.177   6.928  0.1752  0.5752 -0.7114
  188SLPC    C221658   5.823   5.036   6.792  0.9911  0.4244 -0.1124
  188SLPC    HS21659   5.808   5.023   6.682 -1.1531  1.4422 -0.0058
  188SLPC   O2121660   5.694   5.000   6.854 -0.5040 -0.2157  0.5565
  188SLPC   C2121661   5.657   4.871   6.845  0.7460  0.0638  0.4730
  188SLPC   O2221662   5.723   4.789   6.784 -0.4097  0.2197 -0.2579
  188SLPC   C2221663   5.525   4.841   6.915  0.3481  0.9130  0.1871
  188SLPC   H2R21664   5.488   4.942   6.944 -0.4021  0.5950  0.3639
  188SLPC   H2S21665   5.456   4.782   6.850 -1.3082  0.5858  2.1265
  188SLPC    C321666   5.947   4.960   6.843  0.0907 -0.3023  0.0855
  188SLPC    HX21667   6.039   5.015   6.815  0.7406 -0.7178  1.3115
  188SLPC    HY21668   5.940   4.860   6.796 -0.9869  0.4568 -1.4554
  188SLPC   O3121669   5.940   4.942   6.987 -0.5671 -0.0810  0.2151
  188SLPC   C3121670   6.039   4.855   7.036  0.2225  0.3165 -0.3429
  188SLPC   O3221671   6.112   4.803   6.958 -0.2244 -0.1556  0.0722
  188SLPC   C3221672   6.033   4.839   7.187 -0.4869  0.1704  0.5384
  188SLPC   H2X21673   5.966   4.753   7.205 -1.6564  0.5963 -1.3992
  188SLPC   H2Y21674   5.994   4.936   7.226 -0.5701  0.6205 -0.6003
  188SLPC   C2321675   5.543   4.765   7.051  0.3307  0.1998 -0.0564
  188SLPC   H3R21676   5.599   4.672   7.028 -0.2797 -0.0304 -0.6219
  188SLPC   H3S21677   5.442   4.741   7.089 -0.3709  1.2508 -1.1971
  188SLPC   C2421678   5.624   4.843   7.158 -0.2219 -0.3003 -0.5016
  188SLPC   H4R21679   5.563   4.933   7.175 -1.4888 -1.3810  0.9319
  188SLPC   H4S21680   5.723   4.871   7.115  0.7552  2.1324  2.9805
  188SLPC   C2521681   5.630   4.770   7.296  0.0810  0.0783 -0.7170
  188SLPC   H5R21682   5.702   4.685   7.294 -0.9743 -0.9194  1.2231
  188SLPC   H5S21683   5.526   4.734   7.311  0.6252 -1.3206 -0.0995
  188SLPC   C2621684   5.679   4.869   7.401  0.2946  1.2691  0.0545
  188SLPC   H6R21685   5.607   4.953   7.388 -3.6490 -1.9135 -0.6846
  188SLPC   H6S21686   5.783   4.889   7.366  0.9867  0.2178  1.4180
  188SLPC   C2721687   5.683   4.812   7.543 -0.9166 -0.5203  0.2920
  188SLPC   H7R21688   5.579   4.786   7.574 -2.4118  3.0138 -1.2164
  188SLPC   H7S21689   5.706   4.891   7.617  0.4201 -1.0282  0.4397
  188SLPC   C2821690   5.778   4.691   7.561  0.6978 -0.2182  0.2069
  188SLPC   H8R21691   5.880   4.719   7.528 -0.3046  3.7486 -0.0369
  188SLPC   H8S21692   5.756   4.615   7.483 -0.1510 -0.1844  0.3998
  188SLPC   C2921693   5.782   4.612   7.685  0.0165  0.1079 -0.8224
  188SLPC   H9R21694   5.789   4.503   7.667 -0.6312  0.5102 -4.0630
  188SLPC  C21021695   5.777   4.650   7.815  0.6499  0.4679  0.9731
  188SLPC  H10R21696   5.763   4.566   7.886 -0.8300 -0.8934 -0.8363
  188SLPC  C21121697   5.783   4.790   7.874  0.4437 -1.4789 -0.3643
  188SLPC  H11R21698   5.717   4.783   7.963  1.2349 -0.1090  0.3606
  188SLPC  H11S21699   5.732   4.866   7.812  2.5502 -0.5303 -1.0382
  188SLPC  C21221700   5.927   4.830   7.899  0.2494 -0.2340  0.0319
  188SLPC  H12R21701   5.974   4.885   7.817 -0.4104  1.6786  0.8719
  188SLPC  C21321702   6.005   4.817   8.004 -0.2558  0.4263 -0.6620
  188SLPC  H13R21703   6.105   4.861   7.999 -0.5450  0.9588 -2.5272
  188SLPC  C21421704   5.968   4.751   8.135 -0.5257 -0.3110  0.1326
  188SLPC  H14R21705   5.858   4.754   8.147 -0.6091  0.7255 -0.7516
  188SLPC  H14S21706   6.020   4.810   8.214  0.1640  0.3994 -0.8260
  188SLPC  C21521707   6.021   4.607   8.142 -0.2353  0.0970  0.5865
  188SLPC  H15R21708   6.129   4.601   8.116 -0.5820  1.8191 -1.4832
  188SLPC  H15S21709   5.964   4.552   8.065  0.5166 -0.4411  0.3990
  188SLPC  C21621710   6.003   4.543   8.285  0.3043 -0.0191  0.1046
  188SLPC  H16R21711   5.903   4.576   8.322  1.6065  2.5837  1.5706
  188SLPC  H16S21712   6.082   4.584   8.351  1.0423 -0.7489 -0.3103
  188SLPC  C21721713   6.017   4.390   8.299  0.9145 -0.3806  0.7603
  188SLPC  H17R21714   5.986   4.361   8.402  1.1839 -2.3857  0.3238
  188SLPC  H17S21715   6.124   4.367   8.283  1.3532  0.9537  1.5940
  188SLPC  C21821716   5.939   4.320   8.200 -0.2049 -0.8506  0.3137
  188SLPC  H18R21717   5.832   4.347   8.193 -0.2619 -1.3216 -0.6807
  188SLPC  H18S21718   5.946   4.212   8.227  0.8380 -0.4257  1.9108
  188SLPC  H18T21719   5.980   4.348   8.101 -1.7199  3.3227  0.6819
  188SLPC   C3321720   6.177   4.827   7.249  0.4464  0.4116 -0.3188
  188SLPC   H3X21721   6.233   4.921   7.227 -0.9070  1.0762 -1.0206
  188SLPC   H3Y21722   6.242   4.746   7.208  1.8197 -0.0879  2.5929
  188SLPC   C3421723   6.165   4.813   7.404 -0.1800 -0.2270  0.9126
  188SLPC   H4X21724   6.108   4.722   7.431  0.1653 -1.4661 -2.0773
  188SLPC   H4Y21725   6.103   4.901   7.431 -0.6106 -0.4678  0.7099
  188SLPC   C3521726   6.299   4.793   7.467 -0.2585 -0.0207 -0.7871
  188SLPC   H5X21727   6.358   4.888   7.466 -2.1605  1.3315  1.8748
  188SLPC   H5Y21728   6.344   4.697   7.434 -2.1222 -0.6670 -1.5214
  188SLPC   C3621729   6.290   4.772   7.621  0.0502  0.4425  0.6811
  188SLPC   H6X21730   6.212   4.697   7.645  3.1839 -3.0544  0.7613
  188SLPC   H6Y21731   6.271   4.868   7.674  2.1935  0.7636  0.9737
  188SLPC   C3721732   6.421   4.730   7.691  0.5619 -0.2710  0.0001
  188SLPC   H7X21733   6.501   4.807   7.684  1.8383 -1.3740  1.6995
  188SLPC   H7Y21734   6.468   4.637   7.651  3.5394  0.8403  0.6447
  188SLPC   C3821735   6.404   4.698   7.839 -0.6351  0.3761 -0.5398
  188SLPC   H8X21736   6.326   4.620   7.853  1.2904 -1.3272  1.3361
  188SLPC   H8Y21737   6.372   4.796   7.881 -0.5305 -0.4058  1.4554
  188SLPC   C3921738   6.528   4.676   7.929  0.2728 -1.0001  0.1967
  188SLPC   H9X21739   6.610   4.744   7.898  0.9243 -1.4387  0.9232
  188SLPC   H9Y21740   6.570   4.574   7.917 -0.4628 -1.1683 -1.1088
  188SLPC  C31021741   6.492   4.677   8.080  0.0386  0.0734 -0.7451
  188SLPC  H10X21742   6.430   4.768   8.096  2.4226  1.5401  0.8018
  188SLPC  H10Y21743   6.597   4.691   8.113 -0.3509 -0.0022  0.5660
  188SLPC  C31121744   6.422   4.546   8.130  0.2039 -0.2977 -0.4091
  188SLPC  H11X21745   6.480   4.454   8.111  0.3304 -0.1376 -0.8197
  188SLPC  H11Y21746   6.329   4.536   8.070  0.1487  0.2042 -0.4135
  188SLPC  C31221747   6.390   4.547   8.281  0.4347  0.5635  0.4261
  188SLPC  H12X21748   6.358   4.442   8.302 -1.5864  1.0414 -0.0760
  188SLPC  H12Y21749   6.314   4.619   8.316  1.4803  2.3651 -0.8515
  188SLPC  C31321750   6.517   4.565   8.361 -0.6338 -0.4912 -0.7746
  188SLPC  H13X21751   6.539   4.674   8.364 -2.4635 -0.1169  0.8934
  188SLPC  H13Y21752   6.608   4.517   8.320 -0.8469  0.7335 -2.8367
  188SLPC  C31421753   6.500   4.524   8.510  0.3819  0.0177  0.4344
  188SLPC  H14X21754   6.409   4.573   8.551 -0.5595 -1.5469  0.3379
  188SLPC  H14Y21755   6.582   4.566   8.571 -0.7947  1.8255  0.8406
  188SLPC  C31521756   6.483   4.379   8.531 -0.7178  0.0424 -0.2568
  188SLPC  H15X21757   6.391   4.344   8.481 -0.1363  0.4002 -1.6376
  188SLPC  H15Y21758   6.480   4.373   8.642  0.1851  0.7833 -0.1807
  188SLPC  C31621759   6.615   4.296   8.496  0.5053  0.2090  0.2702
  188SLPC  H16X21760   6.706   4.322   8.554  0.7944  0.2297 -0.1895
  188SLPC  H16Y21761   6.633   4.309   8.387 -0.7105 -0.3419 -0.0159
  188SLPC  C31721762   6.596   4.148   8.520 -0.1308 -0.1026 -0.5109
  188SLPC  H17X21763   6.505   4.109   8.470 -1.8005 -1.2058  3.0431
  188SLPC  H17Y21764   6.576   4.135   8.629  0.4944 -2.1238 -0.6137
  188SLPC  C31821765   6.710   4.058   8.470 -0.4470 -0.6661 -0.4694
  188SLPC  H18X21766   6.804   4.091   8.520 -0.1708 -0.8039 -0.9003
  188SLPC  H18Y21767   6.714   4.085   8.363 -1.7570 -1.7851 -0.8321
  188SLPC  H18Z21768   6.696   3.948   8.465 -0.4535 -0.7142  0.4392
  189SLPC     N21769   3.709   0.226   6.361  0.4098 -0.7630  0.3402
  189SLPC   C1321770   3.745   0.272   6.224  0.4395 -0.1957 -0.4945
  189SLPC  H13A21771   3.824   0.211   6.184 -0.3897 -1.0955 -0.8039
  189SLPC  H13B21772   3.666   0.266   6.150 -0.6707 -0.0592  0.6360
  189SLPC  H13C21773   3.772   0.377   6.226  2.5658 -0.7136  0.7467
  189SLPC   C1421774   3.642   0.337   6.445 -0.1692  0.3276  0.1366
  189SLPC  H14A21775   3.630   0.314   6.550  1.9309  1.3679  0.6563
  189SLPC  H14B21776   3.698   0.430   6.443  1.6123 -0.6968 -1.9069
  189SLPC  H14C21777   3.543   0.355   6.406  0.6417  1.4303 -1.5431
  189SLPC   C1521778   3.838   0.198   6.434 -0.2785  0.7085  0.2130
  189SLPC  H15A21779   3.905   0.282   6.435  0.6208  0.0119 -0.0631
  189SLPC  H15B21780   3.818   0.161   6.534 -1.9157 -2.9565 -1.2790
  189SLPC  H15C21781   3.893   0.114   6.395  0.9233 -0.1625  3.4385
  189SLPC   C1221782   3.614   0.108   6.353 -0.2663  0.5708  0.3565
  189SLPC  H12A21783   3.678   0.041   6.297 -1.6755  0.2836 -0.9662
  189SLPC  H12B21784   3.529   0.146   6.298 -0.2634  0.3718  0.2135
  189SLPC   C1121785   3.577   0.040   6.491  0.6974  0.0779 -0.2611
  189SLPC  H11A21786   3.505  -0.042   6.472  0.1822  0.0844  1.4459
  189SLPC  H11B21787   3.518   0.117   6.545 -0.8002 -2.0194  1.3024
  189SLPC     P21788   3.748  -0.138   6.554 -0.1152  0.1155 -0.0524
  189SLPC   O1321789   3.726  -0.193   6.416 -0.4422  0.1389  0.2160
  189SLPC   O1421790   3.890  -0.121   6.599 -0.1713 -0.1178  0.5248
  189SLPC   O1221791   3.691   0.002   6.569 -0.0273  0.5409  0.6814
  189SLPC   O1121792   3.674  -0.229   6.664  0.4156  0.6536  1.0297
  189SLPC    C121793   3.532  -0.240   6.675 -0.2919  0.1346 -0.0178
  189SLPC    HA21794   3.486  -0.229   6.574  1.3912 -1.5063 -1.0376
  189SLPC    HB21795   3.506  -0.344   6.706  1.0144 -0.4764 -0.8627
  189SLPC    C221796   3.481  -0.139   6.775 -0.0314  0.4292 -0.2373
  189SLPC    HS21797   3.507  -0.033   6.755 -1.7711  0.6882 -1.3076
  189SLPC   O2121798   3.527  -0.190   6.907  0.2755  0.1978 -0.0907
  189SLPC   C2121799   3.637  -0.134   6.947  0.4214 -0.0079  0.1841
  189SLPC   O2221800   3.695  -0.041   6.889 -0.2880  0.3318 -0.3912
  189SLPC   C2221801   3.690  -0.194   7.069 -0.2704  0.6589 -1.3998
  189SLPC   H2R21802   3.756  -0.282   7.052  0.9722  0.6959  2.4605
  189SLPC   H2S21803   3.751  -0.123   7.128  1.0641 -2.6412  1.5657
  189SLPC    C321804   3.325  -0.140   6.782 -1.2117 -0.3073  0.6145
  189SLPC    HX21805   3.289  -0.244   6.771  2.2003 -1.5895  0.2016
  189SLPC    HY21806   3.300  -0.096   6.683 -0.6859 -2.6906 -0.6516
  189SLPC   O3121807   3.274  -0.069   6.895  0.4274  0.0570 -0.3152
  189SLPC   C3121808   3.232  -0.150   6.994  0.1753  0.6591  0.5327
  189SLPC   O3221809   3.219  -0.272   6.989  0.3709 -0.0433  0.2514
  189SLPC   C3221810   3.205  -0.067   7.116  0.5629 -0.2930 -0.7217
  189SLPC   H2X21811   3.107  -0.016   7.109  0.2244 -1.0544 -1.7808
  189SLPC   H2Y21812   3.285   0.010   7.123  0.1744  0.5243 -3.9993
  189SLPC   C2321813   3.574  -0.253   7.159  0.3787 -0.5706  0.0905
  189SLPC   H3R21814   3.523  -0.335   7.104  0.6895 -1.5981  1.2953
  189SLPC   H3S21815   3.498  -0.172   7.169 -2.3321 -2.8217 -0.9187
  189SLPC   C2421816   3.626  -0.291   7.298 -0.3878  0.0472 -0.9933
  189SLPC   H4R21817   3.727  -0.252   7.322 -0.5333 -0.8232  1.2705
  189SLPC   H4S21818   3.626  -0.402   7.295 -1.9338  0.0093 -0.6654
  189SLPC   C2521819   3.524  -0.243   7.406  0.0899 -0.3648  0.1379
  189SLPC   H5R21820   3.424  -0.283   7.381  0.4377  1.2138 -4.9325
  189SLPC   H5S21821   3.514  -0.132   7.401 -1.6545 -0.3437  2.4934
  189SLPC   C2621822   3.557  -0.288   7.549 -0.0622 -0.0296 -0.4932
  189SLPC   H6R21823   3.504  -0.221   7.619  0.6626  1.3724 -1.2339
  189SLPC   H6S21824   3.667  -0.278   7.563  0.0728 -3.8110  3.0072
  189SLPC   C2721825   3.520  -0.439   7.574 -0.2082 -0.5077 -0.8394
  189SLPC   H7R21826   3.574  -0.497   7.496  1.7107 -0.0263  0.0829
  189SLPC   H7S21827   3.411  -0.454   7.557 -0.2387  0.7121 -1.8857
  189SLPC   C2821828   3.552  -0.488   7.715  0.3658  0.3061 -0.4074
  189SLPC   H8R21829   3.661  -0.494   7.733 -0.0128 -2.8690  1.5728
  189SLPC   H8S21830   3.516  -0.593   7.719  0.6068  0.2543  0.6718
  189SLPC   C2921831   3.463  -0.412   7.817  0.4734  0.0694 -0.0518
  189SLPC   H9R21832   3.354  -0.425   7.807 -0.0213  2.4290  1.3693
  189SLPC  C21021833   3.520  -0.335   7.913 -0.0274  0.1606  0.3458
  189SLPC  H10R21834   3.456  -0.276   7.980  1.8930  0.9744  1.5557
  189SLPC  C21121835   3.668  -0.312   7.938 -0.0817 -0.8028 -0.0549
  189SLPC  H11R21836   3.686  -0.216   7.992 -2.2807 -0.4878  0.2199
  189SLPC  H11S21837   3.714  -0.288   7.840 -0.8323 -0.6502 -0.3751
  189SLPC  C21221838   3.743  -0.427   7.999 -0.8682  0.1774  0.8374
  189SLPC  H12R21839   3.783  -0.502   7.929  2.0412 -0.0533  2.5550
  189SLPC  C21321840   3.763  -0.444   8.129 -0.5409 -0.9879  0.2077
  189SLPC  H13R21841   3.836  -0.521   8.157  1.1321  0.0901 -0.9762
  189SLPC  C21421842   3.720  -0.351   8.229 -0.2790 -1.7369 -0.9769
  189SLPC  H14R21843   3.617  -0.386   8.254 -0.1732 -1.4112 -0.0370
  189SLPC  H14S21844   3.712  -0.248   8.188  1.5393 -0.6465  1.1387
  189SLPC  C21521845   3.808  -0.340   8.357 -0.3214 -0.0821 -0.7294
  189SLPC  H15R21846   3.907  -0.292   8.349 -0.1462 -0.2169  0.4289
  189SLPC  H15S21847   3.823  -0.441   8.401  0.7783  1.4509  2.7530
  189SLPC  C21621848   3.734  -0.255   8.461 -0.1169  0.3236 -0.2726
  189SLPC  H16R21849   3.631  -0.294   8.478 -0.2390  1.6380  2.4298
  189SLPC  H16S21850   3.716  -0.149   8.431 -1.8743  0.2038  0.2148
  189SLPC  C21721851   3.804  -0.262   8.596  0.2525  0.1126  0.0429
  189SLPC  H17R21852   3.832  -0.366   8.622  0.8949  0.5095  1.0031
  189SLPC  H17S21853   3.743  -0.220   8.679  0.6026 -0.8209  0.7929
  189SLPC  C21821854   3.932  -0.181   8.597 -0.5070 -0.5747 -0.2106
  189SLPC  H18R21855   3.908  -0.072   8.598  2.7048  0.2506  0.9524
  189SLPC  H18S21856   3.992  -0.210   8.509  0.1274 -0.6966  0.2517
  189SLPC  H18T21857   3.996  -0.200   8.687 -0.3343  1.6110  0.1946
  189SLPC   C3321858   3.188  -0.136   7.254 -0.2549  0.1777  0.4441
  189SLPC   H3X21859   3.268  -0.212   7.264  1.4835  1.4194 -2.6280
  189SLPC   H3Y21860   3.094  -0.192   7.274  0.1710 -0.4863  0.6133
  189SLPC   C3421861   3.186  -0.035   7.374 -0.7277 -0.5636  0.3443
  189SLPC   H4X21862   3.123   0.050   7.340  0.5147 -0.1311 -0.9847
  189SLPC   H4Y21863   3.287   0.010   7.367 -1.6123  1.2160 -3.6359
  189SLPC   C3521864   3.162  -0.102   7.509 -0.0322 -0.3370 -0.3659
  189SLPC   H5X21865   3.258  -0.145   7.546  2.1899  2.6122 -2.3073
  189SLPC   H5Y21866   3.089  -0.185   7.492  0.2885 -0.5128 -0.9150
  189SLPC   C3621867   3.131   0.003   7.621 -0.0648 -0.2065 -0.2092
  189SLPC   H6X21868   3.043   0.070   7.605  1.7929  2.8633  1.4894
  189SLPC   H6Y21869   3.222   0.066   7.632 -1.3908  1.4937  1.8914
  189SLPC   C3721870   3.087  -0.040   7.759 -0.5669 -0.0145  0.6715
  189SLPC   H7X21871   2.985  -0.083   7.747 -0.0453 -2.1767  3.1862
  189SLPC   H7Y21872   3.086   0.050   7.824  2.5253  0.8056 -0.2321
  189SLPC   C3821873   3.175  -0.143   7.829  0.4407  0.6103  0.1668
  189SLPC   H8X21874   3.278  -0.101   7.833  0.8781 -0.4963  1.5360
  189SLPC   H8Y21875   3.172  -0.231   7.760 -0.0166  0.2334  0.6687
  189SLPC   C3921876   3.124  -0.183   7.969  0.0153 -0.4404 -0.0450
  189SLPC   H9X21877   3.161  -0.286   7.988  0.0080 -0.1515  1.6682
  189SLPC   H9Y21878   3.013  -0.178   7.972  0.0481  3.0216 -0.9101
  189SLPC  C31021879   3.178  -0.088   8.071 -0.9156  0.3208 -0.0074
  189SLPC  H10X21880   3.117   0.005   8.062  0.3676  1.2594  0.5688
  189SLPC  H10Y21881   3.286  -0.062   8.062 -1.0759  0.8129 -0.5842
  189SLPC  C31121882   3.161  -0.142   8.215  0.3461 -0.0373  0.7339
  189SLPC  H11X21883   3.055  -0.148   8.245  0.4211 -0.3145  0.9561
  189SLPC  H11Y21884   3.207  -0.074   8.290 -0.4843 -1.0197  2.2030
  189SLPC  C31221885   3.209  -0.285   8.249 -0.4358  0.4604  0.4427
  189SLPC  H12X21886   3.318  -0.276   8.227 -0.6882 -0.1384 -1.1360
  189SLPC  H12Y21887   3.166  -0.356   8.175 -0.6196  0.1021  0.8832
  189SLPC  C31321888   3.190  -0.344   8.392 -0.0688 -0.0972  0.0249
  189SLPC  H13X21889   3.227  -0.448   8.383 -1.0583 -0.3879 -0.9952
  189SLPC  H13Y21890   3.080  -0.344   8.408 -0.4668  1.4279 -2.2159
  189SLPC  C31421891   3.277  -0.277   8.503  0.4504 -0.0669 -0.0365
  189SLPC  H14X21892   3.374  -0.258   8.452  1.7347  0.2532  2.3982
  189SLPC  H14Y21893   3.305  -0.350   8.582  1.1494  0.3086  0.0713
  189SLPC  C31521894   3.210  -0.150   8.572  0.2413  0.7597  0.3506
  189SLPC  H15X21895   3.114  -0.174   8.622  1.7624 -0.7981  2.7431
  189SLPC  H15Y21896   3.189  -0.067   8.502 -1.2186  1.5260  1.6474
  189SLPC  C31621897   3.305  -0.097   8.688 -0.1717 -0.5877 -0.2006
  189SLPC  H16X21898   3.309  -0.174   8.768  0.2501  0.6432  1.0016
  189SLPC  H16Y21899   3.248  -0.017   8.739 -0.0601 -0.2034 -0.6755
  189SLPC  C31721900   3.444  -0.052   8.654 -0.5476 -0.4696  0.3899
  189SLPC  H17X21901   3.448   0.039   8.592 -2.2721 -0.6469 -0.0529
  189SLPC  H17Y21902   3.476  -0.133   8.585  0.8855 -1.0768  1.6994
  189SLPC  C31821903   3.543  -0.051   8.777  0.2038 -0.3521 -0.3569
  189SLPC  H18X21904   3.515   0.032   8.846  0.8343 -0.4072 -0.0339
  189SLPC  H18Y21905   3.649  -0.030   8.750  0.4409 -0.2661  0.6053
  189SLPC  H18Z21906   3.538  -0.146   8.834  0.5341  0.8515  1.7538
  190SLPC     N21907   1.523   5.246   6.464  0.2412  0.6806 -0.0243
  190SLPC   C1321908   1.587   5.272   6.332  0.2752  0.2418 -0.0544
  190SLPC  H13A21909   1.686   5.314   6.341  0.7052 -1.0135  1.4957
  190SLPC  H13B21910   1.610   5.175   6.291  0.8447  0.7051 -0.8379
  190SLPC  H13C21911   1.527   5.332   6.265  0.8813 -0.9931 -1.7491
  190SLPC   C1421912   1.608   5.157   6.548 -0.1932 -0.2552  0.2155
  190SLPC  H14A21913   1.582   5.148   6.652 -0.3620 -0.0350  0.1932
  190SLPC  H14B21914   1.623   5.059   6.504 -0.6033 -1.0743  1.8173
  190SLPC  H14C21915   1.711   5.188   6.541 -0.5701  0.8135 -1.0563
  190SLPC   C1521916   1.399   5.170   6.443 -0.2502  0.1316 -0.2320
  190SLPC  H15A21917   1.418   5.065   6.425  1.7943  0.7582 -2.2181
  190SLPC  H15B21918   1.341   5.180   6.533 -1.0853 -0.1564 -0.7256
  190SLPC  H15C21919   1.340   5.202   6.359 -1.7566  2.6297  1.6545
  190SLPC   C1221920   1.490   5.375   6.527  0.4417  0.2658 -0.6240
  190SLPC  H12A21921   1.434   5.432   6.455  0.2510  3.0568  1.5432
  190SLPC  H12B21922   1.579   5.437   6.529  0.2957  0.5522  2.4815
  190SLPC   C1121923   1.407   5.370   6.664 -0.5746  0.5675 -0.1640
  190SLPC  H11A21924   1.412   5.469   6.715  0.8671  0.5024 -0.1539
  190SLPC  H11B21925   1.466   5.311   6.737  2.0952  2.9108 -0.2472
  190SLPC     P21926   1.167   5.417   6.595  0.1012 -0.7648  0.0863
  190SLPC   O1321927   1.222   5.512   6.492 -0.2833  0.2811 -0.0643
  190SLPC   O1421928   1.053   5.336   6.548 -0.5520 -0.0894  0.2100
  190SLPC   O1221929   1.278   5.313   6.649  0.5200 -0.8019  0.0777
  190SLPC   O1121930   1.128   5.493   6.724  0.0359  0.6847 -0.1333
  190SLPC    C121931   1.114   5.427   6.850 -0.4770  0.1145  0.2186
  190SLPC    HA21932   1.018   5.372   6.857  0.1658 -0.7717  3.1014
  190SLPC    HB21933   1.193   5.352   6.871  0.1530  1.2417  2.0873
  190SLPC    C221934   1.141   5.532   6.968  0.5018 -0.2635  0.2179
  190SLPC    HS21935   1.080   5.622   6.948  0.1316 -0.6717 -0.5519
  190SLPC   O2121936   1.280   5.565   6.965  0.5987 -0.0475  0.1777
  190SLPC   C2121937   1.308   5.680   7.014 -0.3254 -0.0496 -0.8382
  190SLPC   O2221938   1.230   5.757   7.069  0.0708 -0.1901 -0.8877
  190SLPC   C2221939   1.459   5.712   7.010  0.3792  0.1876 -0.9183
  190SLPC   H2R21940   1.510   5.636   6.948  1.2033 -1.2267  1.4016
  190SLPC   H2S21941   1.470   5.815   6.969  0.1129  0.0743 -1.2877
  190SLPC    C321942   1.109   5.453   7.096  0.2667 -0.2531 -0.1539
  190SLPC    HX21943   1.174   5.363   7.101  2.3340  1.2409  1.9927
  190SLPC    HY21944   1.001   5.426   7.098  0.0158  0.4429 -1.9689
  190SLPC   O3121945   1.144   5.517   7.222  0.0455 -0.4198  0.0289
  190SLPC   C3121946   1.062   5.604   7.270  0.0098 -0.5106 -0.7000
  190SLPC   O3221947   0.959   5.644   7.222  0.4826  0.6240  0.4804
  190SLPC   C3221948   1.148   5.666   7.390  0.3515 -0.1426 -0.6678
  190SLPC   H2X21949   1.259   5.665   7.380  0.6813  3.3488  1.0699
  190SLPC   H2Y21950   1.115   5.600   7.473  0.2391 -1.0131 -1.3932
  190SLPC   C2321951   1.510   5.701   7.154 -0.1872  0.3566  0.3204
  190SLPC   H3R21952   1.536   5.594   7.168  1.1976  0.8014  1.3503
  190SLPC   H3S21953   1.433   5.722   7.231  0.1807  0.7718  0.5806
  190SLPC   C2421954   1.638   5.787   7.178 -0.5189  0.3599 -0.2222
  190SLPC   H4R21955   1.609   5.894   7.185 -1.0737  0.2610 -0.8958
  190SLPC   H4S21956   1.713   5.780   7.096 -0.5486  1.2024 -0.3318
  190SLPC   C2521957   1.700   5.758   7.312  0.1050 -0.0849 -0.1608
  190SLPC   H5R21958   1.808   5.785   7.305 -0.5480  2.7573 -0.5902
  190SLPC   H5S21959   1.679   5.654   7.343 -2.6329  0.4217 -0.1282
  190SLPC   C2621960   1.646   5.855   7.427 -0.0459 -0.1955 -0.1066
  190SLPC   H6R21961   1.562   5.903   7.372  0.8143 -0.3404 -1.5998
  190SLPC   H6S21962   1.720   5.937   7.445 -1.2838  1.2631 -1.4176
  190SLPC   C2721963   1.615   5.772   7.550  0.0550  0.1532  0.2017
  190SLPC   H7R21964   1.701   5.709   7.581  0.9253  2.2105  2.2921
  190SLPC   H7S21965   1.531   5.705   7.523  1.7831 -2.3940  0.7960
  190SLPC   C2821966   1.569   5.878   7.661 -0.0511 -0.0321  0.0928
  190SLPC   H8R21967   1.501   5.825   7.732 -1.3916  1.4208 -0.0539
  190SLPC   H8S21968   1.507   5.953   7.607 -0.4196  0.2111  0.8520
  190SLPC   C2921969   1.676   5.951   7.735  0.0579  0.3067  0.0627
  190SLPC   H9R21970   1.764   5.984   7.679 -0.3014 -0.6621 -1.1124
  190SLPC  C21021971   1.668   5.975   7.871  0.7325 -0.6927 -0.2968
  190SLPC  H10R21972   1.756   6.028   7.911 -0.1599  0.6932 -0.1183
  190SLPC  C21121973   1.561   5.941   7.968 -0.1296  0.5927 -0.1921
  190SLPC  H11R21974   1.477   5.902   7.907  0.3318  0.4264 -0.7240
  190SLPC  H11S21975   1.509   6.024   8.021  1.1873  1.5389 -0.3462
  190SLPC  C21221976   1.614   5.827   8.056  0.0164 -0.2197  0.2397
  190SLPC  H12R21977   1.656   5.736   8.011 -0.6495 -1.6963  2.4452
  190SLPC  C21321978   1.609   5.825   8.196  0.3722 -0.1813 -0.0837
  190SLPC  H13R21979   1.666   5.745   8.244 -1.4898 -0.7363  1.3356
  190SLPC  C21421980   1.561   5.937   8.288  0.2450 -0.9954  0.0833
  190SLPC  H14R21981   1.479   5.910   8.358  0.1724 -0.2813  0.2867
  190SLPC  H14S21982   1.524   6.018   8.222  0.6970 -2.7597 -2.4622
  190SLPC  C21521983   1.676   5.999   8.369 -0.2057  0.3829 -0.6592
  190SLPC  H15R21984   1.708   5.914   8.434 -0.7762  0.5404 -0.1547
  190SLPC  H15S21985   1.634   6.076   8.437  0.1124 -1.2141  1.4541
  190SLPC  C21621986   1.791   6.062   8.282  0.3261 -0.4984 -0.0600
  190SLPC  H16R21987   1.743   6.138   8.217  2.8285  1.7206  0.5300
  190SLPC  H16S21988   1.849   5.986   8.226 -1.4182 -1.2479 -0.9172
  190SLPC  C21721989   1.895   6.133   8.377  0.1587 -0.5069  0.1522
  190SLPC  H17R21990   1.976   6.173   8.313 -0.4476  0.2774 -0.1339
  190SLPC  H17S21991   1.927   6.051   8.446 -0.2866 -1.9342 -1.2799
  190SLPC  C21821992   1.847   6.248   8.467 -0.8168  0.9848  1.0628
  190SLPC  H18R21993   1.761   6.217   8.531 -0.3115  0.1117  1.3365
  190SLPC  H18S21994   1.831   6.344   8.413 -0.8200 -0.0263 -0.7926
  190SLPC  H18T21995   1.927   6.271   8.541  1.3752 -0.4765 -0.7371
  190SLPC   C3321996   1.108   5.802   7.428  0.0749  0.3343  0.7809
  190SLPC   H3X21997   1.000   5.793   7.451  0.1364 -2.5451  0.2597
  190SLPC   H3Y21998   1.128   5.868   7.340 -1.7624  2.4398  1.8478
  190SLPC   C3421999   1.165   5.858   7.558  0.8914  0.4934  1.2253
  190SLPC   H4X22000   1.127   5.962   7.572 -0.0402  0.7140 -2.0921
  190SLPC   H4Y22001   1.276   5.869   7.557  0.8525  0.9110  0.9559
  190SLPC   C3522002   1.124   5.759   7.677 -0.5229 -0.6129  0.4398
  190SLPC   H5X22003   1.193   5.673   7.666  1.2681  0.7842  0.1863
  190SLPC   H5Y22004   1.018   5.733   7.660 -0.8650  0.7436  0.4249
  190SLPC   C3622005   1.162   5.812   7.812 -0.4800  0.7973 -0.5028
  190SLPC   H6X22006   1.268   5.847   7.812  0.2789 -1.1242 -3.5359
  190SLPC   H6Y22007   1.153   5.736   7.892 -1.0137 -1.1927 -2.3793
  190SLPC   C3722008   1.071   5.927   7.862  0.3090  0.1983  0.8612
  190SLPC   H7X22009   0.971   5.901   7.822  0.5426 -0.1041  0.4663
  190SLPC   H7Y22010   1.098   6.022   7.812 -3.1160  1.3565  0.9451
  190SLPC   C3822011   1.063   5.932   8.016 -0.1666 -0.0715  0.2164
  190SLPC   H8X22012   1.159   5.899   8.062 -0.4239  2.0959  2.5353
  190SLPC   H8Y22013   0.986   5.856   8.041 -1.0508  0.4458 -0.8584
  190SLPC   C3922014   1.016   6.066   8.074 -0.3435  0.3506 -0.0379
  190SLPC   H9X22015   0.925   6.102   8.022 -0.8806  2.6052  2.2152
  190SLPC   H9Y22016   1.098   6.140   8.065  0.8390 -0.6174  1.9057
  190SLPC  C31022017   0.988   6.042   8.227  0.9790  0.8271 -0.2139
  190SLPC  H10X22018   0.935   5.946   8.244  0.4281  1.5168  2.4195
  190SLPC  H10Y22019   0.924   6.127   8.259  0.7781  0.1942  1.1109
  190SLPC  C31122020   1.120   6.027   8.308  0.0745  0.1998  0.3118
  190SLPC  H11X22021   1.186   6.114   8.290  1.6361 -0.6504  1.6885
  190SLPC  H11Y22022   1.179   5.938   8.275 -1.0484 -0.2369 -0.6129
  190SLPC  C31222023   1.094   6.023   8.457  1.0269  0.0734 -0.4017
  190SLPC  H12X22024   1.008   5.956   8.481  1.6444  0.0651  2.0484
  190SLPC  H12Y22025   1.048   6.119   8.488 -1.6818 -1.3062  0.1858
  190SLPC  C31322026   1.212   6.001   8.549 -0.2430 -0.1656  0.0548
  190SLPC  H13X22027   1.295   6.070   8.521  0.6610 -0.8060  1.0799
  190SLPC  H13Y22028   1.236   5.895   8.530  0.7965  0.1699 -0.6075
  190SLPC  C31422029   1.191   6.018   8.704  0.1558 -0.1205 -0.5999
  190SLPC  H14X22030   1.272   5.958   8.751  0.1692 -0.4571 -1.0489
  190SLPC  H14Y22031   1.085   5.990   8.724 -0.1388  1.1651 -0.3120
  190SLPC  C31522032   1.200   6.169   8.743 -0.4375  0.0665 -0.2509
  190SLPC  H15X22033   1.128   6.214   8.672 -0.9552  2.6801  1.7519
  190SLPC  H15Y22034   1.305   6.203   8.731  0.0276 -1.9625 -2.5074
  190SLPC  C31622035   1.148   6.204   8.882  0.3566 -0.0635  0.2416
  190SLPC  H16X22036   1.044   6.170   8.898  0.4769 -0.5466  0.0357
  190SLPC  H16Y22037   1.157   6.313   8.899 -2.9286  0.2807  0.4192
  190SLPC  C31722038   1.224   6.132   8.999  0.0841  0.0218 -0.2106
  190SLPC  H17X22039   1.335   6.145   8.995  0.2714 -1.0076  1.1319
  190SLPC  H17Y22040   1.207   6.023   8.990  2.0906 -0.2773 -0.8592
  190SLPC  C31822041   1.169   6.168   9.139 -0.2312 -0.4464  0.1725
  190SLPC  H18X22042   1.176   6.279   9.147  0.3008 -0.4178 -0.5701
  190SLPC  H18Y22043   1.217   6.117   9.225  0.6059  1.0646  0.6357
  190SLPC  H18Z22044   1.063   6.137   9.143 -0.2632 -0.1844  2.7923
  191SLPC     N22045   1.689   0.419   6.170  0.0345  0.5795 -0.3486
  191SLPC   C1322046   1.709   0.283   6.107 -0.6754 -0.6918  0.2664
  191SLPC  H13A22047   1.705   0.205   6.182 -3.7707 -0.3244  0.6232
  191SLPC  H13B22048   1.633   0.266   6.032 -0.0107 -0.6792 -0.4214
  191SLPC  H13C22049   1.807   0.272   6.063 -1.5147  0.5572 -2.0970
  191SLPC   C1422050   1.774   0.414   6.295 -0.3591 -0.3454  0.0300
  191SLPC  H14A22051   1.750   0.328   6.356  0.6887 -1.8913 -1.6384
  191SLPC  H14B22052   1.876   0.410   6.260 -0.4326  0.0575 -0.2341
  191SLPC  H14C22053   1.754   0.512   6.336  0.5425  0.3470 -1.1417
  191SLPC   C1522054   1.542   0.435   6.197 -0.2807  0.5120 -0.4754
  191SLPC  H15A22055   1.520   0.527   6.250 -1.3718  0.0266 -0.0452
  191SLPC  H15B22056   1.486   0.427   6.105  0.4673  0.1201 -0.8993
  191SLPC  H15C22057   1.503   0.356   6.259  2.0479  0.7412  1.4324
  191SLPC   C1222058   1.732   0.524   6.072  0.4266  0.0942 -0.9545
  191SLPC  H12A22059   1.675   0.506   5.982  0.2744 -0.6987 -0.7009
  191SLPC  H12B22060   1.836   0.503   6.053  0.7957  1.0787 -0.1176
  191SLPC   C1122061   1.714   0.679   6.102  0.0915 -0.5087 -0.8521
  191SLPC  H11A22062   1.797   0.731   6.050  1.3967 -0.4168  1.2026
  191SLPC  H11B22063   1.740   0.698   6.208  0.5708 -0.4596 -0.9760
  191SLPC     P22064   1.545   0.873   6.075 -0.0812  0.1531  0.1371
  191SLPC   O1322065   1.644   0.944   5.992 -0.3598  0.2183 -0.0713
  191SLPC   O1422066   1.406   0.881   6.025 -0.1291 -0.2457  0.7835
  191SLPC   O1222067   1.577   0.718   6.090 -0.2311  0.1673  0.3498
  191SLPC   O1122068   1.551   0.921   6.221 -0.8116 -0.1902 -0.2752
  191SLPC    C122069   1.479   0.843   6.322  0.7816  0.5922 -0.2569
  191SLPC    HA22070   1.369   0.849   6.309  1.0968  1.9869 -3.0679
  191SLPC    HB22071   1.523   0.741   6.318  3.4964  1.7240 -2.1950
  191SLPC    C222072   1.515   0.904   6.468 -0.0596 -0.0018 -0.2916
  191SLPC    HS22073   1.464   1.001   6.482 -1.0151 -0.7175  1.4399
  191SLPC   O2122074   1.662   0.912   6.475  0.2295 -0.8286  0.3330
  191SLPC   C2122075   1.713   0.990   6.566  1.1983 -0.2543 -0.6443
  191SLPC   O2222076   1.659   1.082   6.624  0.2811 -0.7559  1.0743
  191SLPC   C2222077   1.866   0.956   6.575 -0.4297  0.3350  0.2223
  191SLPC   H2R22078   1.900   0.904   6.483 -0.2950 -0.6262  0.7999
  191SLPC   H2S22079   1.931   1.046   6.568  0.6434 -0.4948 -0.8473
  191SLPC    C322080   1.468   0.802   6.571  0.0869  0.5854  0.1041
  191SLPC    HX22081   1.540   0.718   6.556  0.5107  0.8091  0.8682
  191SLPC    HY22082   1.366   0.762   6.549  0.6722 -1.5444  0.9682
  191SLPC   O3122083   1.484   0.831   6.713 -0.1813 -0.6020  0.4416
  191SLPC   C3122084   1.390   0.914   6.762 -0.2568 -0.2304 -0.2807
  191SLPC   O3222085   1.287   0.951   6.713 -0.1254 -0.0450  0.2609
  191SLPC   C3222086   1.432   0.947   6.900 -0.4813 -0.1114 -0.1989
  191SLPC   H2X22087   1.521   1.012   6.884  0.2861 -0.9643  0.4673
  191SLPC   H2Y22088   1.470   0.862   6.962  1.9011  0.6643 -0.4708
  191SLPC   C2322089   1.913   0.862   6.696 -0.1484 -0.3711  0.1332
  191SLPC   H3R22090   2.024   0.867   6.704 -0.2183 -0.6714  1.8922
  191SLPC   H3S22091   1.885   0.758   6.671 -4.2172  0.1888  1.7142
  191SLPC   C2422092   1.859   0.912   6.831  1.0716  0.2115  0.4102
  191SLPC   H4R22093   1.891   0.847   6.915  1.4987 -1.9094 -1.3076
  191SLPC   H4S22094   1.748   0.908   6.832  1.0283  1.0170 -0.1802
  191SLPC   C2522095   1.893   1.055   6.865  0.0685 -0.1599  0.5549
  191SLPC   H5R22096   1.863   1.119   6.779 -0.9771 -0.8477  0.3866
  191SLPC   H5S22097   2.001   1.072   6.882  0.1467 -0.8315  0.7415
  191SLPC   C2622098   1.816   1.101   6.990  0.4731  0.9072  0.3355
  191SLPC   H6R22099   1.848   1.025   7.064 -2.2185 -0.3315  0.3475
  191SLPC   H6S22100   1.705   1.099   6.994  0.4502  1.1789 -0.0623
  191SLPC   C2722101   1.861   1.231   7.044 -0.4500 -0.2135  0.8597
  191SLPC   H7R22102   1.817   1.311   6.980 -0.2901 -2.0446 -1.7151
  191SLPC   H7S22103   1.972   1.234   7.032 -0.3428 -1.0963  1.5888
  191SLPC   C2822104   1.821   1.258   7.196  0.6108 -0.0002  0.2326
  191SLPC   H8R22105   1.711   1.243   7.198  1.1225 -5.3760  0.9455
  191SLPC   H8S22106   1.837   1.367   7.212  1.5142  0.3563 -2.6347
  191SLPC   C2922107   1.888   1.184   7.304  0.3572  0.0070 -0.1425
  191SLPC   H9R22108   1.990   1.217   7.326  0.0657  0.7848  0.0763
  191SLPC  C21022109   1.833   1.099   7.396  0.3914  0.1118 -0.9297
  191SLPC  H10R22110   1.894   1.047   7.470  0.1762 -1.2461 -1.6692
  191SLPC  C21122111   1.683   1.071   7.400 -0.6484  0.7012  0.3916
  191SLPC  H11R22112   1.668   0.976   7.454 -0.7456  1.0446  0.9779
  191SLPC  H11S22113   1.650   1.065   7.294  3.2628  1.1101 -1.0224
  191SLPC  C21222114   1.608   1.185   7.466  0.0629  0.1404  0.1905
  191SLPC  H12R22115   1.641   1.287   7.442  1.8378 -0.0621  1.5320
  191SLPC  C21322116   1.506   1.162   7.553 -0.6320 -0.8219  0.5643
  191SLPC  H13R22117   1.462   1.250   7.603 -2.2261 -0.8312 -0.7492
  191SLPC  C21422118   1.440   1.033   7.607 -0.0075  0.4844  0.4321
  191SLPC  H14R22119   1.464   0.947   7.541 -0.9328 -1.1623  2.1149
  191SLPC  H14S22120   1.335   1.063   7.588  0.5860  2.1843 -0.3216
  191SLPC  C21522121   1.469   1.003   7.755  0.0155  0.0400  0.6430
  191SLPC  H15R22122   1.579   0.990   7.756 -0.0030 -0.4538 -0.9554
  191SLPC  H15S22123   1.432   0.906   7.795  0.1919 -0.5932 -0.6538
  191SLPC  C21622124   1.449   1.113   7.858 -0.4025  0.1668 -0.0631
  191SLPC  H16R22125   1.342   1.139   7.854 -0.7501 -1.2931 -1.4784
  191SLPC  H16S22126   1.500   1.200   7.813  1.2002 -1.4545 -1.5373
  191SLPC  C21722127   1.502   1.084   8.001 -0.2703  0.4414  0.6666
  191SLPC  H17R22128   1.611   1.075   7.981 -0.5397 -1.5601 -0.1416
  191SLPC  H17S22129   1.463   0.990   8.045  0.7606  0.0521  0.7869
  191SLPC  C21822130   1.461   1.199   8.084 -0.3475 -0.4866 -0.0052
  191SLPC  H18R22131   1.450   1.293   8.026  2.3774  1.5326  2.4544
  191SLPC  H18S22132   1.528   1.216   8.171  1.4962  0.0161 -1.4680
  191SLPC  H18T22133   1.361   1.180   8.130 -0.5955  0.8892  0.0607
  191SLPC   C3322134   1.319   1.026   6.969 -0.4373 -0.3231  0.3358
  191SLPC   H3X22135   1.223   0.971   6.976 -0.6583  0.0979  0.6012
  191SLPC   H3Y22136   1.291   1.111   6.903 -0.4315  0.2425  1.0592
  191SLPC   C3422137   1.363   1.079   7.108  0.0295  0.9289 -0.0121
  191SLPC   H4X22138   1.441   1.157   7.090  3.6665 -2.5398 -0.7182
  191SLPC   H4Y22139   1.408   1.004   7.176 -0.1308  2.6670  2.1116
  191SLPC   C3522140   1.256   1.142   7.196 -0.0918 -0.2067  0.2241
  191SLPC   H5X22141   1.296   1.145   7.300  2.7107  0.5811 -0.7740
  191SLPC   H5Y22142   1.165   1.078   7.203 -1.3995  1.3331 -1.6108
  191SLPC   C3622143   1.196   1.289   7.161 -0.2775  0.3405  0.4151
  191SLPC   H6X22144   1.172   1.286   7.052  0.6331 -1.9582  0.2180
  191SLPC   H6Y22145   1.272   1.370   7.168 -0.2675  0.2945  0.8816
  191SLPC   C3722146   1.079   1.326   7.252  0.1456 -0.0343  0.1019
  191SLPC   H7X22147   1.018   1.234   7.269  1.1111 -1.2103 -2.2631
  191SLPC   H7Y22148   1.011   1.406   7.219 -0.4672 -0.5339  0.1317
  191SLPC   C3822149   1.122   1.367   7.398 -0.6559 -0.4702 -0.1171
  191SLPC   H8X22150   1.203   1.299   7.432 -0.2841  0.3608  0.6962
  191SLPC   H8Y22151   1.034   1.342   7.461 -0.6058 -1.3746 -0.3913
  191SLPC   C3922152   1.167   1.513   7.388 -0.1221 -0.7490 -0.8431
  191SLPC   H9X22153   1.101   1.585   7.335 -0.3089  0.1981  0.6157
  191SLPC   H9Y22154   1.267   1.516   7.339 -0.2697  0.8230 -1.0921
  191SLPC  C31022155   1.207   1.556   7.530 -0.2341 -0.2106 -0.1085
  191SLPC  H10X22156   1.259   1.654   7.526 -1.1792  0.2674 -1.2838
  191SLPC  H10Y22157   1.269   1.473   7.570 -0.1441 -0.2708 -0.3688
  191SLPC  C31122158   1.091   1.582   7.615  0.1324  0.2426 -0.7801
  191SLPC  H11X22159   1.025   1.495   7.635 -0.1806  0.7232  0.3656
  191SLPC  H11Y22160   1.026   1.658   7.566 -0.8785  0.2308  0.4759
  191SLPC  C31222161   1.134   1.658   7.749 -0.4885  0.7149  0.1058
  191SLPC  H12X22162   1.043   1.712   7.784 -1.3906  0.9104 -2.2974
  191SLPC  H12Y22163   1.216   1.730   7.731 -0.3888  1.9414  4.4773
  191SLPC  C31322164   1.198   1.567   7.855  0.2125 -0.1849  0.1681
  191SLPC  H13X22165   1.287   1.524   7.804  0.0541 -0.8976  0.4845
  191SLPC  H13Y22166   1.129   1.487   7.887  0.6926 -0.3167  0.9114
  191SLPC  C31422167   1.237   1.654   7.983 -0.4378  0.2427 -0.8807
  191SLPC  H14X22168   1.300   1.737   7.946  0.1436  0.1582 -0.0838
  191SLPC  H14Y22169   1.292   1.594   8.058 -0.3815  0.9901 -0.3257
  191SLPC  C31522170   1.114   1.698   8.065 -0.8570  0.7199  0.2170
  191SLPC  H15X22171   1.039   1.619   8.087 -1.3090  1.2827  0.7505
  191SLPC  H15Y22172   1.060   1.776   8.007  1.7515  2.5248  0.0304
  191SLPC  C31622173   1.158   1.760   8.194  0.0625  0.3683 -0.4452
  191SLPC  H16X22174   1.251   1.818   8.175  0.2684  0.4689  0.7655
  191SLPC  H16Y22175   1.186   1.671   8.255 -1.7287 -2.2745 -3.2085
  191SLPC  C31722176   1.049   1.840   8.267 -0.4696 -0.4029 -1.4996
  191SLPC  H17X22177   0.973   1.763   8.291 -0.1601  0.0081  1.0670
  191SLPC  H17Y22178   1.013   1.910   8.188 -1.1791  1.3995  0.3246
  191SLPC  C31822179   1.099   1.926   8.387  0.1396 -0.1760  0.3325
  191SLPC  H18X22180   1.029   2.009   8.411 -1.2101 -1.1755 -0.0012
  191SLPC  H18Y22181   1.190   1.979   8.352  0.5819  0.4198  2.2630
  191SLPC  H18Z22182   1.125   1.857   8.470  1.7582 -0.3614 -0.2935
  192SLPC     N22183   0.293   1.136   6.690 -0.2463 -0.5753  0.1258
  192SLPC   C1322184   0.368   1.131   6.555  0.4754 -0.6262 -0.2037
  192SLPC  H13A22185   0.308   1.106   6.469  0.7964 -0.2312 -0.5461
  192SLPC  H13B22186   0.402   1.232   6.540 -0.5158  0.2027  2.5283
  192SLPC  H13C22187   0.448   1.057   6.558  1.0972 -0.0348 -1.3829
  192SLPC   C1422188   0.253   0.993   6.709 -0.1774  0.0960 -0.2478
  192SLPC  H14A22189   0.178   0.966   6.636 -0.0304  0.0614 -0.3862
  192SLPC  H14B22190   0.330   0.919   6.696 -1.8748 -1.3835 -2.8401
  192SLPC  H14C22191   0.208   0.977   6.806  0.1244  1.9330  0.2269
  192SLPC   C1522192   0.177   1.219   6.682 -0.1933  0.5050 -0.3025
  192SLPC  H15A22193   0.135   1.223   6.583  0.3550  1.7949 -0.5033
  192SLPC  H15B22194   0.098   1.202   6.754  0.8122 -2.3274  0.2291
  192SLPC  H15C22195   0.203   1.319   6.715 -0.4326  0.2616  0.6628
  192SLPC   C1222196   0.402   1.163   6.795 -0.0277  0.4421 -0.1422
  192SLPC  H12A22197   0.485   1.096   6.777 -1.0637 -1.4411  1.7260
  192SLPC  H12B22198   0.359   1.135   6.890 -0.1288 -0.7230 -0.5190
  192SLPC   C1122199   0.457   1.307   6.803  0.5762  0.0221 -0.6697
  192SLPC  H11A22200   0.513   1.316   6.898 -0.0980  1.9898 -0.4289
  192SLPC  H11B22201   0.369   1.374   6.808  0.6773  0.0844  0.5242
  192SLPC     P22202   0.680   1.297   6.679 -0.2236  0.2979 -0.7441
  192SLPC   O1322203   0.732   1.305   6.545  0.1488  0.2548  0.3442
  192SLPC   O1422204   0.750   1.383   6.777  1.0706  0.0850 -1.0882
  192SLPC   O1222205   0.530   1.337   6.687 -0.5479 -0.1677 -0.1385
  192SLPC   O1122206   0.685   1.148   6.730 -0.1498 -0.1907  0.2774
  192SLPC    C122207   0.811   1.079   6.742  0.5602 -0.0796 -0.0325
  192SLPC    HA22208   0.802   0.988   6.678  2.1801 -0.9963  0.9923
  192SLPC    HB22209   0.900   1.138   6.713 -0.3002  0.6144 -1.4061
  192SLPC    C222210   0.826   1.012   6.883  0.0707  0.0561 -0.3270
  192SLPC    HS22211   0.740   0.942   6.892  0.3146 -0.0729  1.1911
  192SLPC   O2122212   0.829   1.106   6.995  0.6906 -0.5978  0.3359
  192SLPC   C2122213   0.710   1.134   7.049  0.0423 -0.0033  0.4536
  192SLPC   O2222214   0.608   1.067   7.032 -0.1170 -0.2063  0.6931
  192SLPC   C2222215   0.720   1.259   7.122 -0.2974  0.5806  0.1575
  192SLPC   H2R22216   0.789   1.250   7.208 -1.3744  0.5383  1.0280
  192SLPC   H2S22217   0.770   1.330   7.052 -2.3436  0.2030 -1.8067
  192SLPC    C322218   0.952   0.929   6.885  0.5879 -0.2215 -0.0143
  192SLPC    HX22219   1.045   0.988   6.870  1.0754 -0.9895 -0.1046
  192SLPC    HY22220   0.944   0.850   6.807  2.6562 -0.2390 -0.2724
  192SLPC   O3122221   0.969   0.884   7.024 -0.0044 -0.8528  0.0906
  192SLPC   C3122222   0.893   0.783   7.066  0.5620  0.6812 -0.4884
  192SLPC   O3222223   0.820   0.713   6.997  0.2482  0.0964 -0.7359
  192SLPC   C3222224   0.909   0.776   7.218  0.0999  0.2469 -0.2615
  192SLPC   H2X22225   1.015   0.804   7.235  0.5115 -0.3359 -1.6616
  192SLPC   H2Y22226   0.890   0.671   7.249 -1.4733 -0.0058 -1.9094
  192SLPC   C2322227   0.586   1.315   7.175  0.5273  0.3092  0.3459
  192SLPC   H3R22228   0.502   1.308   7.102 -0.3120  1.8391  1.1152
  192SLPC   H3S22229   0.600   1.424   7.194 -2.9142  0.8992  0.2479
  192SLPC   C2422230   0.540   1.245   7.304 -0.1725  0.7887  0.1886
  192SLPC   H4R22231   0.530   1.136   7.284  3.2230  0.0266  1.9038
  192SLPC   H4S22232   0.445   1.286   7.343 -1.1397 -1.3647  0.2414
  192SLPC   C2522233   0.641   1.271   7.418  0.1533  0.2031 -0.1373
  192SLPC   H5R22234   0.678   1.375   7.404  0.0114  0.1869 -0.6433
  192SLPC   H5S22235   0.732   1.210   7.402  1.4248  2.0645 -0.3713
  192SLPC   C2622236   0.594   1.253   7.564  0.3544  0.0201 -0.0152
  192SLPC   H6R22237   0.514   1.328   7.580  0.2740  0.5357 -2.5425
  192SLPC   H6S22238   0.673   1.279   7.638 -0.9750  0.2753  1.3594
  192SLPC   C2722239   0.528   1.118   7.608 -1.1171 -0.0427  0.0411
  192SLPC   H7R22240   0.609   1.043   7.618  1.3233  2.5240  1.2038
  192SLPC   H7S22241   0.461   1.089   7.525  0.9567 -2.9529 -0.7583
  192SLPC   C2822242   0.464   1.138   7.745 -0.6093 -0.1245 -0.1332
  192SLPC   H8R22243   0.395   1.055   7.771 -0.7513  0.3860  1.2090
  192SLPC   H8S22244   0.400   1.229   7.752 -0.5326 -0.1098  0.4731
  192SLPC   C2922245   0.567   1.143   7.851  0.6590 -0.3166 -0.5139
  192SLPC   H9R22246   0.613   1.241   7.866  1.0136 -0.4042 -1.0182
  192SLPC  C21022247   0.595   1.041   7.939 -0.8905  0.3030  0.0411
  192SLPC  H10R22248   0.679   1.051   8.010 -1.6996 -0.0040  1.0631
  192SLPC  C21122249   0.547   0.899   7.939  0.6345 -0.4621  0.1814
  192SLPC  H11R22250   0.625   0.851   8.002 -0.9422 -1.4529  1.4760
  192SLPC  H11S22251   0.557   0.846   7.842 -1.9695 -0.5905 -0.0799
  192SLPC  C21222252   0.409   0.882   8.000 -0.0985 -0.0476 -0.1197
  192SLPC  H12R22253   0.321   0.905   7.939 -0.9265 -2.0480  0.2193
  192SLPC  C21322254   0.383   0.841   8.126 -0.3297 -0.0121  0.1453
  192SLPC  H13R22255   0.276   0.839   8.152 -1.5689 -0.6869 -4.1724
  192SLPC  C21422256   0.491   0.812   8.228  0.2750 -0.1960 -0.7047
  192SLPC  H14R22257   0.593   0.847   8.200  0.5727 -0.4728  0.0133
  192SLPC  H14S22258   0.505   0.705   8.255  0.8840 -0.1244 -0.7170
  192SLPC  C21522259   0.450   0.887   8.357  0.4400 -0.6184  0.0526
  192SLPC  H15R22260   0.348   0.855   8.388  0.4960 -0.2199  0.6608
  192SLPC  H15S22261   0.429   0.992   8.330 -0.2306 -0.7558  0.0314
  192SLPC  C21622262   0.554   0.892   8.467  0.2513 -0.0639  0.0975
  192SLPC  H16R22263   0.645   0.927   8.414 -1.7194  1.1463 -2.7410
  192SLPC  H16S22264   0.572   0.800   8.526 -0.1232 -1.1739 -1.4846
  192SLPC  C21722265   0.524   0.999   8.566  0.0814 -0.0543  0.7307
  192SLPC  H17R22266   0.494   1.089   8.509  0.5349 -1.3113 -1.6272
  192SLPC  H17S22267   0.428   0.965   8.612 -0.4605  0.0925 -0.2767
  192SLPC  C21822268   0.636   1.038   8.664  0.1979 -0.0311 -0.5145
  192SLPC  H18R22269   0.715   1.094   8.610  0.4517 -0.6378 -0.7801
  192SLPC  H18S22270   0.682   0.954   8.721  0.4675 -0.3970 -1.2636
  192SLPC  H18T22271   0.603   1.102   8.749  1.2867 -2.2013  1.6575
  192SLPC   C3322272   0.823   0.894   7.280  0.6026 -0.4804 -0.0441
  192SLPC   H3X22273   0.715   0.898   7.253  0.4367 -0.8803  0.5369
  192SLPC   H3Y22274   0.862   0.991   7.242 -1.3024 -0.3997 -1.9945
  192SLPC   C3422275   0.839   0.892   7.433  0.6059  0.4552 -0.0628
  192SLPC   H4X22276   0.869   0.788   7.458  0.1031  0.0103 -1.2413
  192SLPC   H4Y22277   0.739   0.908   7.478 -0.1285 -1.7228 -0.7715
  192SLPC   C3522278   0.948   0.980   7.489  0.9451 -0.4295 -0.0046
  192SLPC   H5X22279   0.954   1.073   7.429 -2.4331 -1.3887 -2.1141
  192SLPC   H5Y22280   1.049   0.943   7.461  0.9891  0.7248 -1.4736
  192SLPC   C3622281   0.933   1.011   7.641  0.3653  0.2754  0.2502
  192SLPC   H6X22282   0.916   0.914   7.694  1.0033  0.2707  0.4520
  192SLPC   H6Y22283   0.842   1.072   7.658  0.3639  0.3112  0.1151
  192SLPC   C3722284   1.055   1.076   7.704  0.0400 -0.1123 -0.3004
  192SLPC   H7X22285   1.101   1.156   7.641  0.6530 -0.5795 -0.4593
  192SLPC   H7Y22286   1.134   1.000   7.718 -2.0272 -1.9750  2.1891
  192SLPC   C3822287   1.016   1.143   7.841 -0.5220 -0.4523  0.5398
  192SLPC   H8X22288   0.936   1.219   7.831  0.0074  0.2147  1.2040
  192SLPC   H8Y22289   1.109   1.195   7.874  0.1835 -0.8455 -0.7383
  192SLPC   C3922290   0.967   1.041   7.944  0.0244 -0.1322 -0.2820
  192SLPC   H9X22291   1.046   0.964   7.957  0.9725  0.8220 -0.2501
  192SLPC   H9Y22292   0.873   0.990   7.913 -0.1240  0.4603 -0.8095
  192SLPC  C31022293   0.935   1.110   8.080  0.9475  0.3099  0.3054
  192SLPC  H10X22294   0.873   1.049   8.149  2.3836 -1.2855  0.2656
  192SLPC  H10Y22295   0.878   1.204   8.062 -1.4188 -0.9275  0.9998
  192SLPC  C31122296   1.059   1.157   8.148 -0.4720 -0.0662 -0.5494
  192SLPC  H11X22297   1.129   1.219   8.089 -1.3297  1.5154  0.0254
  192SLPC  H11Y22298   1.120   1.070   8.183  1.2596  1.2693 -0.1337
  192SLPC  C31222299   1.022   1.224   8.282 -0.3029  0.7101 -0.0927
  192SLPC  H12X22300   1.101   1.205   8.358 -0.2300  0.1965 -0.2896
  192SLPC  H12Y22301   0.931   1.176   8.325 -0.9349  0.6993 -1.3957
  192SLPC  C31322302   0.995   1.376   8.266 -0.6414  0.1325  0.2767
  192SLPC  H13X22303   0.942   1.398   8.171 -0.1258  2.4789  0.4693
  192SLPC  H13Y22304   1.089   1.431   8.247 -0.3375 -0.7377 -0.8005
  192SLPC  C31422305   0.911   1.452   8.371  0.1030  0.8336 -0.5996
  192SLPC  H14X22306   0.805   1.463   8.337 -0.7919  1.3135  2.0847
  192SLPC  H14Y22307   0.962   1.550   8.375  1.5418  0.2180 -2.3573
  192SLPC  C31522308   0.905   1.398   8.516  0.1704  0.0257  0.7292
  192SLPC  H15X22309   1.004   1.357   8.547  1.3986  1.4240 -1.1581
  192SLPC  H15Y22310   0.839   1.309   8.506 -1.2930  1.3412 -2.8904
  192SLPC  C31622311   0.837   1.492   8.614 -0.2227 -0.0937  0.6051
  192SLPC  H16X22312   0.738   1.517   8.570  0.2434  1.8575  0.5549
  192SLPC  H16Y22313   0.891   1.589   8.615 -0.3617  0.1615 -2.7901
  192SLPC  C31722314   0.829   1.449   8.756 -0.3466 -0.4582 -0.3558
  192SLPC  H17X22315   0.760   1.363   8.766 -0.5837 -0.0406  2.7190
  192SLPC  H17Y22316   0.786   1.540   8.803  1.5836  1.5266 -2.1987
  192SLPC  C31822317   0.965   1.418   8.818 -0.4012 -0.6155 -0.5508
  192SLPC  H18X22318   1.043   1.493   8.793 -0.6670  0.3876  1.4559
  192SLPC  H18Y22319   0.996   1.317   8.784 -1.0497 -1.7507  1.9337
  192SLPC  H18Z22320   0.959   1.412   8.929  0.3857 -1.0275 -0.5200
  193SOD    SOD22321   3.333   3.750   4.760  0.2008  0.1187  0.1616
  194SOD    SOD22322   4.028   6.695   6.791 -0.5971  0.4478  0.2058
  195SOD    SOD22323   3.015   3.503  16.751 -0.2367 -0.1233  0.0831
  196SOD    SOD22324   1.369   4.971   6.106 -0.0932  0.1816  0.3680
  197SOD    SOD22325   0.474   0.996   0.004  0.1726  0.1840 -0.4426
  198SOD    SOD22326   2.351   1.689   2.690 -0.0640  0.0269  0.1623
  199SOD    SOD22327   4.650   2.389   2.719 -0.2022 -0.1755 -0.2464
  200SOD    SOD22328   5.758   1.729   2.761  0.0183 -0.1885  0.6257
  201SOD    SOD22329   0.853   0.141  12.396  0.0243  0.3497 -0.4485
  202SOD    SOD22330   6.156   5.667   2.844 -0.5882  0.0631 -0.3376
  203SOD    SOD22331   6.502   6.302   5.020 -0.1801  1.0158  0.2490
  204SOD    SOD22332   1.297   2.936   4.426  0.1832 -0.3127  0.5160
  205SOD    SOD22333   0.840   0.300   5.854 -0.1730  0.0075 -0.0540
  206SOD    SOD22334   5.082   6.309   4.102  0.1637 -0.4276 -0.2096
  207SOD    SOD22335   2.316   5.013   0.388 -0.1491  0.2272 -0.3823
  208SOD    SOD22336   1.032   4.037  16.599 -0.2105 -0.1608  0.1289
  209SOD    SOD22337   2.727   1.095   6.235 -0.7421 -0.0667 -0.2694
  210SOD    SOD22338   3.696   0.290  12.621 -0.2260 -0.2957 -0.3938
  211SOD    SOD22339   5.017   5.047  11.496 -0.0855 -0.1745  0.0767
  212SOD    SOD22340   1.093   5.806   1.929 -0.9301 -0.2720 -0.6055
  213SOD    SOD22341   4.573   2.219  11.299 -0.1018  0.0496 -0.4730
  214SOD    SOD22342   0.549   2.762   3.619  0.4575  0.1716 -0.4312
  215SOD    SOD22343   4.941   6.383   6.347 -0.0056 -0.6668 -0.0026
  216SOD    SOD22344   1.470   6.566  15.557 -0.0347  1.1702  0.3613
  217SOD    SOD22345   0.908   6.226  16.927 -0.5077 -0.5425 -0.1931
  218SOD    SOD22346   3.448   5.663   6.271  0.0471  0.5433  0.1940
  219SOD    SOD22347   1.075   2.358  10.871  0.0685 -0.2954  0.2445
  220SOD    SOD22348   5.375   4.290   5.671 -0.7535 -0.2567  0.1361
  221SOD    SOD22349   3.721   0.264  11.461  0.3101  0.0519 -0.2494
  222SOD    SOD22350   4.735   2.787  11.219  0.5012 -0.2544  0.3997
  223SOD    SOD22351   3.942   3.709  12.149  0.0509 -0.0608 -0.0391
  224SOD    SOD22352   3.995   4.912  15.517  0.9052 -0.5935  0.7237
  225SOD    SOD22353   5.841   1.363   6.351 -0.0461  0.3111 -0.2185
  226SOD    SOD22354   5.637   6.318   0.369 -0.6619  0.1084 -0.3143
  227SOD    SOD22355   5.941   1.458  11.159 -0.0351 -0.1277 -0.0371
  228SOD    SOD22356   0.557   4.924  15.484 -0.0610 -0.6346 -0.3572
  229SOD    SOD22357   1.393   2.648   0.792 -0.1736  0.2472 -0.2546
  230SOD    SOD22358   0.583   2.643   0.654 -0.0983 -0.6940 -0.0974
  231SOD    SOD22359   4.886   3.583  15.398 -0.2837  0.1531 -0.4230
  232SOD    SOD22360   1.238   4.363   2.226 -0.0991 -0.0153 -0.2955
  233SOD    SOD22361   3.610   4.360   3.002  0.4814  0.7716  0.0969
  234SOD    SOD22362   4.542   0.317  13.967 -0.1958 -0.2416 -0.0951
  235SOD    SOD22363   0.272   5.887   2.438 -0.0808  0.1270  0.2434
  236SOD    SOD22364   6.136   1.749  17.212 -0.2665 -0.1067 -0.2634
  237SOD    SOD22365   5.678   3.739  11.342 -0.5526 -0.2338 -0.0304
  238SOD    SOD22366   3.111   6.377   6.089  0.2765 -0.2834  0.2404
  239SOD    SOD22367   6.387   6.285   6.520 -0.2594  0.1211 -0.5504
  240SOD    SOD22368   0.131   0.962   2.391 -0.0866  0.3062 -0.0318
  241SOD    SOD22369   0.220   0.094  10.965  0.1272  0.3708  0.2013
  242SOD    SOD22370   3.383   1.282  17.101 -0.2025  0.4438  0.0461
  243SOD    SOD22371   1.929   1.497   0.565  0.5488 -0.1555 -0.0893
  244SOD    SOD22372   0.404   0.543  14.582 -0.3623  0.2658 -0.2725
  245SOD    SOD22373   4.687   1.895   4.477 -0.4993 -0.5240  0.3297
  246SOD    SOD22374   0.349   3.231  16.708 -0.0950 -0.3071  0.4778
  247SOD    SOD22375   4.009   1.399  12.582  0.1515 -0.2928  0.5040
  248SOD    SOD22376   0.188   1.045  14.788  0.9579 -0.3580 -0.2938
  249SOD    SOD22377   3.933   3.606   4.272 -0.1487  0.1189 -0.5780
  250SOD    SOD22378   5.421   2.966  11.127 -0.3399 -0.9003  0.3736
  251SOD    SOD22379   4.578   0.399   6.380  0.4190  0.1655  0.0766
  252SOD    SOD22380   4.013   1.255   0.691 -0.2013  0.0867  0.2147
  253SOD    SOD22381   0.705   4.904  12.512 -0.3469  0.1605 -0.5807
  254SOD    SOD22382   2.670   2.750  12.665 -0.2208  0.1418 -0.2978
  255SOD    SOD22383   2.765   2.393   6.724  0.1047  0.3024  0.0565
  256SOD    SOD22384   3.080   5.246   4.382 -0.0335  0.2138 -0.3080
  257SOD    SOD22385   5.440   6.128  12.708 -0.6937 -0.4771 -0.5203
  258SOD    SOD22386   1.221   5.563  15.931  0.0514 -0.2601  0.4225
  259SOD    SOD22387   0.903   3.802   6.030  0.1452 -0.1612  0.0921
  260SOD    SOD22388   5.095   2.865   5.989  0.1383  0.3362 -0.7634
  261SOD    SOD22389   6.538   1.764  16.082 -0.4131  0.0703 -0.0911
  262SOD    SOD22390   0.884   1.392  11.899  0.2276  0.0630 -0.1745
  263SOD    SOD22391   3.509   3.644   5.994  0.0886 -0.3278 -0.0958
  264SOD    SOD22392   3.914   4.585  12.396  0.8226 -0.4867 -0.0849
  265SOD    SOD22393   3.777   4.863   4.683  0.5962  0.0167  0.1445
  266CLA    CLA22394   4.263   2.472   5.788  0.1617  0.1301 -0.1155
  267CLA    CLA22395   0.242   4.382   1.363  0.2024  0.0328 -0.2006
  268CLA    CLA22396   3.345   4.189  11.534 -0.0753  0.3685  0.1600
  269CLA    CLA22397   6.037   2.488   6.046  0.2218  0.0863 -0.0128
  270CLA    CLA22398   3.042   1.976   2.111  0.1263  0.1592 -0.3198
  271CLA    CLA22399   6.720   5.792  14.587 -0.0115 -0.0901  0.2324
  272CLA    CLA22400   5.572   3.444  15.510 -0.0428  0.1105  0.0784
  273CLA    CLA22401   6.107   2.456   2.176 -0.1416  0.1941  0.2578
  274CLA    CLA22402   0.738   0.030  14.736 -0.3577 -0.1546 -0.4946
  275CLA    CLA22403   3.140   3.042   4.353  0.4262  0.0447  0.3317
  276CLA    CLA22404   5.924   0.180   2.029  0.1285 -0.2677 -0.2227
  277CLA    CLA22405   6.314   3.560  12.689  0.3132  0.4184 -0.1281
  278CLA    CLA22406   1.615   5.294   1.012 -0.2858  0.2520  0.2102
  279CLA    CLA22407   2.542   4.923   4.732  0.3583 -0.0153  0.1230
  280CLA    CLA22408   0.184   3.293  17.229 -0.0863 -0.0296  0.0801
  281CLA    CLA22409   5.627   0.773   5.197 -0.2670 -0.1006  0.5225
  282CLA    CLA22410   5.999   4.345  11.610  0.0716 -0.2112  0.2348
  283CLA    CLA22411   4.039   4.549  15.172 -0.2485  0.2999  0.0362
  284CLA    CLA22412   3.857   1.278   3.980  0.0646  0.5995 -0.3372
  285CLA    CLA22413   2.523   1.570   6.321 -0.3718 -0.4027  0.0121
  286CLA    CLA22414   3.598   2.538   4.562 -0.0365 -0.0886 -0.0624
  287CLA    CLA22415   1.989   4.103  15.728  0.1467 -0.3863 -0.2325
  288CLA    CLA22416   2.078   3.782   0.616 -0.0145 -0.0913 -0.0858
  289CLA    CLA22417   5.864   0.272  11.786 -0.4021  0.1531 -0.2973
  290CLA    CLA22418   6.005   0.733  17.619  0.1554  0.5423  0.2958
  291CLA    CLA22419   3.492   2.505  13.183 -0.1164  0.3377  0.0471
  292CLA    CLA22420   4.579   1.197  14.790  0.3339 -0.0756 -0.2376
  293CLA    CLA22421   1.441   4.352  16.586  0.4414 -0.1994 -0.5769
  294CLA    CLA22422   0.497   4.388  12.973  0.2945 -0.0249  0.3234
  295CLA    CLA22423   4.325   3.708   5.284  0.0840 -0.0868 -0.3661
  296CLA    CLA22424   1.826   5.764  16.007  0.5432  0.0840 -0.1662
  297CLA    CLA22425   3.952   6.381   2.064 -0.0916  0.0991  0.2180
  298CLA    CLA22426   5.849   6.568   4.685 -0.7616 -0.2062 -0.1041
  299CLA    CLA22427   3.500   3.151   3.999  0.2455  0.3096  0.0861
  300CLA    CLA22428   0.479   2.083  16.123 -0.3183 -0.1851  0.0737
  301CLA    CLA22429   4.197   5.917  17.648  0.1887  0.0544 -0.1505
  302CLA    CLA22430   4.611   4.104   2.556 -0.0770 -0.0026  0.3147
  303CLA    CLA22431   4.075   5.451  17.379 -0.4851 -0.3041 -0.1611
  304CLA    CLA22432   4.737   2.482   3.577  0.2233 -0.6049  0.4411
  305CLA    CLA22433   0.667   4.433   0.185 -0.3885 -0.0061  0.2265
  306CLA    CLA22434   1.040   6.090   4.150 -0.0432  0.3548 -0.1122
  307CLA    CLA22435   0.694   3.715   3.754 -0.0175 -0.0360 -0.0557
  308CLA    CLA22436   0.501   1.377   3.469 -0.6233  0.1171  0.0615
  309CLA    CLA22437   1.067   1.161   1.222  0.4489 -0.2161 -0.1754
  310CLA    CLA22438   3.605   4.066  17.155 -0.2940  0.1384 -0.0894
  311CLA    CLA22439   0.935   0.455   3.638 -0.0801 -0.1957  0.2874
  312CLA    CLA22440   4.131   6.451  11.205  0.0187 -0.0931 -0.1735
  313CLA    CLA22441   1.251   1.602  12.043  0.0132 -0.0428 -0.5589
  314CLA    CLA22442   3.322   4.914   2.436  0.0661  0.0079  0.2387
  315CLA    CLA22443   3.084   5.481  17.020  0.3562 -0.2644  0.2024
  316CLA    CLA22444   1.980   0.787  16.372  0.3733 -0.0426 -0.1530
  317CLA    CLA22445   3.385   5.732   4.633  0.0102 -0.5578  0.1513
  318CLA    CLA22446   5.787   5.877   0.238 -0.5131  0.3680  0.0279
  319TIP3   OH222447   5.524   2.325   2.533 -0.2108  0.1661  0.1856
  319TIP3    H122448   5.481   2.314   2.448  0.1609  0.1667 -0.0026
  319TIP3    H222449   5.562   2.413   2.530  1.8037 -0.6709 -0.5588
  320TIP3   OH222450   1.828   2.257  11.833  0.1106  0.0189 -0.0792
  320TIP3    H122451   1.761   2.325  11.828 -1.4613 -1.3362  1.3137
  320TIP3    H222452   1.909   2.302  11.809 -1.2118  1.7811 -1.6010
  321TIP3   OH222453   0.596   5.672   5.763  0.5017 -0.4665  0.1138
  321TIP3    H122454   0.584   5.722   5.683  1.2449  0.6913  0.6897
  321TIP3    H222455   0.611   5.582   5.734  0.6282 -0.0927 -1.0239
  322TIP3   OH222456   5.261   3.795   1.396 -0.0313  0.8655  0.0989
  322TIP3    H122457   5.236   3.713   1.354 -0.2696  1.2532 -0.5253
  322TIP3    H222458   5.182   3.823   1.443 -0.2102  1.1497 -0.3618
  323TIP3   OH222459   3.792   0.255   5.174  0.4940  0.1246  0.6153
  323TIP3    H122460   3.733   0.217   5.108  1.4127 -0.4662  0.1147
  323TIP3    H222461   3.769   0.210   5.255 -0.8906  1.1102  0.8042
  324TIP3   OH222462   5.593   5.430   2.607 -0.3883 -0.0113 -0.3045
  324TIP3    H122463   5.499   5.427   2.623 -0.5979  0.0202 -1.4290
  324TIP3    H222464   5.624   5.342   2.629 -0.7313 -0.1114 -0.2167
  325TIP3   OH222465   4.551   1.977  13.321  0.4029  0.0684  0.0016
  325TIP3    H122466   4.475   2.020  13.282  0.5994  1.4285  1.0396
  325TIP3    H222467   4.544   1.886  13.293  1.7345  1.2089 -5.0732
  326TIP3   OH222468   2.260   0.203   2.941  0.3579  0.1907 -0.1720
  326TIP3    H122469   2.224   0.249   2.866 -0.5445  0.6939  0.5481
  326TIP3    H222470   2.218   0.117   2.939 -0.9480  0.7745  0.6648
  327TIP3   OH222471   3.542   5.998  13.642  0.4272  0.0843  0.3140
  327TIP3    H122472   3.620   5.996  13.698 -0.5517  1.3420  1.8349
  327TIP3    H222473   3.505   6.086  13.656 -1.0228 -0.3177 -0.7105
  328TIP3   OH222474   1.646   1.886  14.176 -0.0448 -0.0134 -0.1237
  328TIP3    H122475   1.670   1.977  14.196 -0.8540  0.6257 -1.8971
  328TIP3    H222476   1.725   1.848  14.139  0.2883 -0.0420  0.5990
  329TIP3   OH222477   6.296   3.614   4.170  0.1107 -0.1292 -0.1391
  329TIP3    H122478   6.371   3.618   4.111  1.7649  0.4847  1.8864
  329TIP3    H222479   6.278   3.520   4.179  1.6164 -0.3757  0.4959
  330TIP3   OH222480   4.036   3.062   6.192  0.0544  0.2431  0.6325
  330TIP3    H122481   4.037   2.985   6.135  0.4995  0.8779 -0.2414
  330TIP3    H222482   4.018   3.027   6.279 -2.1883 -0.6236 -0.0868
  331TIP3   OH222483   5.929   5.174   4.331  0.0979  0.0152 -0.9317
  331TIP3    H122484   5.901   5.233   4.401  0.0757 -0.6319 -0.3777
  331TIP3    H222485   5.885   5.206   4.252 -1.7218 -0.6012 -0.2111
  332TIP3   OH222486   0.924   2.831   0.329 -0.6441  0.1601  0.3157
  332TIP3    H122487   0.889   2.820   0.240 -0.6798 -1.6847  0.5267
  332TIP3    H222488   0.853   2.806   0.387 -0.6382  1.4105  0.9077
  333TIP3   OH222489   1.409   0.066   0.367  0.4356 -0.7455 -0.5037
  333TIP3    H122490   1.390   0.131   0.299 -1.7402 -1.8513 -1.0543
  333TIP3    H222491   1.499   0.038   0.348  1.8873  2.7395  0.4164
  334TIP3   OH222492   4.504   2.123   0.989 -0.1121 -0.4898 -0.1155
  334TIP3    H122493   4.430   2.176   0.959  1.5181  1.0435 -1.6771
  334TIP3    H222494   4.482   2.034   0.962 -1.1581  0.0275 -1.0480
  335TIP3   OH222495   3.518   2.335  12.359  0.1137  0.1438  0.2695
  335TIP3    H122496   3.488   2.260  12.410 -1.5288 -0.8117 -1.9424
  335TIP3    H222497   3.454   2.404  12.377  0.5562  0.4109  0.8508
  336TIP3   OH222498   0.754   2.178  15.199  0.1153  0.2244 -0.1240
  336TIP3    H122499   0.841   2.192  15.163  0.6497 -1.2759  0.5156
  336TIP3    H222500   0.749   2.238  15.273  0.3406  0.8057 -0.5756
  337TIP3   OH222501   1.733   5.889  12.486 -0.7042  0.2039  0.0684
  337TIP3    H122502   1.782   5.862  12.408  1.3246  2.2613  0.5289
  337TIP3    H222503   1.735   5.813  12.544  0.0621 -0.4661 -0.8090
  338TIP3   OH222504   6.567   2.287  13.299 -0.6370 -0.5098  0.4662
  338TIP3    H122505   6.526   2.214  13.253  0.6031 -0.5558 -0.6477
  338TIP3    H222506   6.622   2.246  13.366  0.5793 -0.6733 -0.5942
  339TIP3   OH222507   4.121   6.695  13.681 -0.6176  0.3474 -0.4502
  339TIP3    H122508   4.108   6.621  13.740 -0.1488  0.0196 -0.7501
  339TIP3    H222509   4.216   6.701  13.670 -0.6307  1.1464 -0.2455
  340TIP3   OH222510   0.535   0.202   5.188  0.3116 -0.2157  0.2938
  340TIP3    H122511   0.519   0.264   5.259  0.0706  0.6635 -0.5003
  340TIP3    H222512   0.502   0.247   5.110 -0.3627 -1.5800 -0.2217
  341TIP3   OH222513   1.167   5.968  11.267 -0.1576  0.1479 -0.5003
  341TIP3    H122514   1.184   5.888  11.316  0.5795  1.2959  1.2205
  341TIP3    H222515   1.072   5.977  11.267 -0.2214 -0.5111 -0.3517
  342TIP3   OH222516   6.203   4.013  17.059 -0.0327  0.2393  0.3583
  342TIP3    H122517   6.219   3.919  17.072 -1.5661 -0.2893 -1.0886
  342TIP3    H222518   6.288   4.049  17.034  0.1849 -1.2259 -1.2026
  343TIP3   OH222519   0.088   2.277   1.911 -0.2390 -0.5385  0.4923
  343TIP3    H122520   0.115   2.284   1.820  2.6656  0.2258  1.3023
  343TIP3    H222521   0.019   2.211   1.911 -0.2350 -0.6401 -2.2105
  344TIP3   OH222522   4.637   2.360   6.718  0.1870  0.1149  0.2187
  344TIP3    H122523   4.704   2.408   6.668 -0.1631  0.0298 -0.3342
  344TIP3    H222524   4.612   2.288   6.661  1.0570 -1.0277  1.2378
  345TIP3   OH222525   1.634   1.903  14.721 -0.3449  0.0306 -0.1261
  345TIP3    H122526   1.687   1.921  14.644 -0.4171 -0.7732 -0.3747
  345TIP3    H222527   1.675   1.826  14.761 -0.2193  0.5254  0.7282
  346TIP3   OH222528   2.167   3.653  16.027  0.9686 -0.5061  0.1740
  346TIP3    H122529   2.091   3.704  15.997  1.1223  0.4644  1.3968
  346TIP3    H222530   2.133   3.599  16.098  1.4423  0.0510  0.8353
  347TIP3   OH222531   1.253   5.777  12.983  0.1260  0.6007 -0.4199
  347TIP3    H122532   1.288   5.744  12.900  1.3611  0.9281 -0.0487
  347TIP3    H222533   1.237   5.698  13.035 -4.0225  0.0433 -2.1241
  348TIP3   OH222534   2.598   1.775   0.678  0.2109  0.5266  0.4701
  348TIP3    H122535   2.559   1.756   0.593 -0.4319 -0.6652  0.9998
  348TIP3    H222536   2.661   1.845   0.661  1.1558 -0.6701 -1.2626
  349TIP3   OH222537   2.712   2.509   4.354 -0.1357 -0.3012 -0.0246
  349TIP3    H122538   2.805   2.485   4.363  0.2987  0.6877 -1.5319
  349TIP3    H222539   2.702   2.531   4.261 -2.3780 -2.3794 -0.3985
  350TIP3   OH222540   2.478   0.229  12.513  0.2221  0.5142 -0.2725
  350TIP3    H122541   2.476   0.267  12.425  0.2432 -0.6904 -0.8242
  350TIP3    H222542   2.473   0.134  12.497 -0.0510  0.2971  1.0423
  351TIP3   OH222543   4.007   4.424   3.436 -0.6841 -0.0291 -0.5030
  351TIP3    H122544   4.071   4.369   3.390 -2.3728 -1.8553 -0.7879
  351TIP3    H222545   4.031   4.514   3.412  2.3558 -0.5380  0.2042
  352TIP3   OH222546   5.965   6.723   3.464 -0.4505 -0.4125 -0.4677
  352TIP3    H122547   5.896   6.750   3.525  0.0528 -2.7257  1.2612
  352TIP3    H222548   6.042   6.775   3.490 -0.4497 -0.8282  0.4026
  353TIP3   OH222549   2.254   0.152  17.088 -0.0134  0.3580  0.3226
  353TIP3    H122550   2.279   0.064  17.116 -1.1742 -0.0546  0.0982
  353TIP3    H222551   2.159   0.150  17.083 -0.0619  1.6410  0.3422
  354TIP3   OH222552   3.632   0.921  12.925  0.4760  0.3186  0.8517
  354TIP3    H122553   3.606   0.859  12.857 -1.9425  0.4428  1.5952
  354TIP3    H222554   3.685   0.986  12.878 -1.3992  0.5868 -1.0504
  355TIP3   OH222555   2.617   5.598   6.396  0.3259 -0.1080 -0.6114
  355TIP3    H122556   2.653   5.608   6.484 -0.0456  2.0232 -0.6388
  355TIP3    H222557   2.538   5.653   6.396 -1.1469 -2.0969 -1.5222
  356TIP3   OH222558   1.905   3.332   0.612 -0.4842 -0.3405 -0.3875
  356TIP3    H122559   1.895   3.370   0.699 -0.5100 -0.4504 -0.3423
  356TIP3    H222560   2.000   3.320   0.602 -0.1415  2.4781 -1.5686
  357TIP3   OH222561   4.768   3.945  15.689  0.0091 -0.2903  0.2092
  357TIP3    H122562   4.695   3.886  15.670  0.0684 -0.3144  0.0594
  357TIP3    H222563   4.771   4.006  15.615 -0.7673  0.6162  0.9018
  358TIP3   OH222564   6.369   6.061  13.052 -0.5426 -0.3547 -0.0429
  358TIP3    H122565   6.369   5.975  13.095 -0.3165  0.1030  0.8846
  358TIP3    H222566   6.429   6.050  12.978 -0.9670 -1.1626 -0.2719
  359TIP3   OH222567   2.336   2.348  12.649  0.3285  0.0571 -0.0522
  359TIP3    H122568   2.306   2.323  12.736  0.1213  1.0760  0.1844
  359TIP3    H222569   2.334   2.267  12.598  2.5567 -1.0214  1.4553
  360TIP3   OH222570   0.659   1.712  16.469 -0.1638  0.2534  0.2204
  360TIP3    H122571   0.656   1.618  16.484 -0.6800  0.1755 -0.3331
  360TIP3    H222572   0.568   1.741  16.475 -0.0389  0.6770  0.1470
  361TIP3   OH222573   3.090   2.974  17.244  0.1778 -0.2697  0.3619
  361TIP3    H122574   3.059   3.049  17.295  1.1992 -0.4751  1.3242
  361TIP3    H222575   3.013   2.920  17.230 -0.7916  1.4009 -1.1888
  362TIP3   OH222576   0.344   6.622  12.769  0.0535 -0.0197 -0.4513
  362TIP3    H122577   0.398   6.679  12.715 -0.8229  0.6384 -0.6589
  362TIP3    H222578   0.365   6.534  12.739  1.8680  0.1191  0.2796
  363TIP3   OH222579   1.254   5.842   2.321 -0.0542  0.7461 -0.2018
  363TIP3    H122580   1.268   5.910   2.387  0.8339 -0.2005  0.6312
  363TIP3    H222581   1.341   5.828   2.283 -0.1244 -0.2534 -0.0124
  364TIP3   OH222582   5.079   6.496   3.412 -0.0932  0.3184  0.1112
  364TIP3    H122583   5.115   6.412   3.439  0.9837  0.7260 -0.0097
  364TIP3    H222584   5.091   6.498   3.317 -2.4730 -0.4578 -0.2751
  365TIP3   OH222585   5.999   2.918   7.128  0.6845  0.2963  0.1993
  365TIP3    H122586   6.022   3.010   7.113  2.0030 -0.1401 -0.5779
  365TIP3    H222587   5.961   2.889   7.045 -0.3632  0.3027  0.6590
  366TIP3   OH222588   6.460   5.716   5.149 -0.1046 -0.1517  0.5472
  366TIP3    H122589   6.517   5.640   5.140 -1.2020 -1.0475  0.8341
  366TIP3    H222590   6.372   5.682   5.132 -0.4957  1.3386 -0.6075
  367TIP3   OH222591   3.644   5.696   2.213  0.0687  0.1742  0.5877
  367TIP3    H122592   3.708   5.728   2.149 -1.0843  0.4891 -0.4420
  367TIP3    H222593   3.687   5.708   2.298  0.3376  3.0143  0.1407
  368TIP3   OH222594   5.353   5.124  13.867 -0.2310  0.1919  0.3508
  368TIP3    H122595   5.282   5.120  13.931 -0.7148  1.0243 -0.1163
  368TIP3    H222596   5.328   5.062  13.799 -0.8230  0.9145 -0.1057
  369TIP3   OH222597   0.323   5.347  16.703  0.2798 -0.5802  0.3929
  369TIP3    H122598   0.387   5.419  16.698 -1.0192  0.5344 -0.9166
  369TIP3    H222599   0.301   5.328  16.612  0.0718 -2.1843  0.7612
  370TIP3   OH222600   2.165   0.705  11.877  0.1127 -0.4978  0.2100
  370TIP3    H122601   2.210   0.621  11.891  1.6252  0.0565 -1.0601
  370TIP3    H222602   2.198   0.762  11.947  1.4614 -0.0810 -0.7433
  371TIP3   OH222603   3.382   3.569   5.293  0.1854  0.0006 -0.5185
  371TIP3    H122604   3.415   3.638   5.235  0.6521 -1.3185 -1.8899
  371TIP3    H222605   3.313   3.526   5.243 -2.2498  1.3383  1.4874
  372TIP3   OH222606   1.053   1.890  13.653 -0.0499  0.0654 -0.6267
  372TIP3    H122607   1.036   1.935  13.570 -1.4037 -0.8057 -0.8567
  372TIP3    H222608   1.069   1.960  13.715 -0.9766  0.8283 -1.2212
  373TIP3   OH222609   0.835   3.304  16.754  0.4505 -0.6247 -0.5762
  373TIP3    H122610   0.930   3.308  16.765  0.5064 -2.8266  0.3004
  373TIP3    H222611   0.823   3.264  16.668  0.2635  0.6025 -1.1441
  374TIP3   OH222612   4.617   4.210  14.257 -0.3712  0.4115 -0.1677
  374TIP3    H122613   4.656   4.133  14.216 -0.5370  0.3713 -0.2519
  374TIP3    H222614   4.522   4.195  14.250 -0.4056  0.7712 -0.4603
  375TIP3   OH222615   4.297   1.264   5.161  0.1670  0.3996  0.1080
  375TIP3    H122616   4.261   1.278   5.074  0.7786  0.2080 -0.1792
  375TIP3    H222617   4.269   1.340   5.211 -0.4689  0.3480 -0.1590
  376TIP3   OH222618   1.058   5.319   5.368  0.3009 -0.1524 -0.4472
  376TIP3    H122619   1.126   5.385   5.363  0.6024 -0.5579 -1.9745
  376TIP3    H222620   1.018   5.317   5.281 -1.6320  0.0231  0.3755
  377TIP3   OH222621   1.708   2.575   3.256  0.2617  0.6166 -0.5258
  377TIP3    H122622   1.708   2.533   3.170  0.5621  0.3545 -0.3982
  377TIP3    H222623   1.775   2.528   3.306 -0.3524  0.3598  0.0613
  378TIP3   OH222624   5.070   3.452  16.851 -0.2217  0.5420 -0.5927
  378TIP3    H122625   5.100   3.416  16.935 -2.0670 -0.7846 -0.4501
  378TIP3    H222626   5.091   3.545  16.857  0.0575  0.4028  1.1820
  379TIP3   OH222627   6.392   4.796  17.432  0.2533  0.2536 -0.2445
  379TIP3    H122628   6.398   4.759  17.520  2.0138 -0.0673 -0.4573
  379TIP3    H222629   6.457   4.866  17.431 -0.9977  1.4494 -0.7567
  380TIP3   OH222630   2.793   4.906   4.902 -0.1335  0.3935  0.2263
  380TIP3    H122631   2.732   4.896   4.829  2.7079  0.0191 -2.2655
  380TIP3    H222632   2.797   5.001   4.916 -0.6959  0.4703 -0.0688
  381TIP3   OH222633   6.256   3.250  12.677 -0.1771  0.2029  0.6688
  381TIP3    H122634   6.342   3.209  12.666 -0.0233  0.9395 -1.1668
  381TIP3    H222635   6.274   3.342  12.694 -0.5360 -0.2569  4.4568
  382TIP3   OH222636   0.269   0.910  17.037  0.6486  0.1304 -0.1352
  382TIP3    H122637   0.323   0.964  17.095  0.0821  0.0599  0.4669
  382TIP3    H222638   0.243   0.969  16.966  0.4704  0.5110  0.2411
  383TIP3   OH222639   5.337   3.302  15.353  0.0792  0.2128  0.2552
  383TIP3    H122640   5.407   3.348  15.400 -0.7523  2.2270 -0.3650
  383TIP3    H222641   5.272   3.281  15.420  0.0144  0.8749  0.4082
  384TIP3   OH222642   5.524   4.884  17.104 -0.1254  0.6953  0.0070
  384TIP3    H122643   5.446   4.914  17.056  0.0773  0.5028 -0.4555
  384TIP3    H222644   5.597   4.907  17.047  0.1644  0.9242  0.4680
  385TIP3   OH222645   4.783   1.413   1.543 -0.1668 -0.2964 -0.5683
  385TIP3    H122646   4.835   1.337   1.517  0.0974 -0.5757  0.7389
  385TIP3    H222647   4.737   1.439   1.463 -0.8212 -2.2631 -0.8734
  386TIP3   OH222648   4.332   2.355  13.319  0.3256  0.2328  0.4487
  386TIP3    H122649   4.299   2.293  13.384 -1.0456  1.9854  1.4865
  386TIP3    H222650   4.325   2.441  13.361  2.9396  1.0703 -0.6413
  387TIP3   OH222651   0.663   0.623   0.885  0.0206 -0.1533  0.1933
  387TIP3    H122652   0.733   0.589   0.941 -0.6228 -1.2900  0.3371
  387TIP3    H222653   0.598   0.657   0.946  0.8034  1.7395  0.0499
  388TIP3   OH222654   3.099   6.110   2.557 -0.4482 -0.3501 -0.2741
  388TIP3    H122655   3.049   6.065   2.625 -0.0316  1.4003  1.2834
  388TIP3    H222656   3.061   6.198   2.554  1.9578  0.8023  0.4317
  389TIP3   OH222657   2.315   5.159   4.713 -0.2155  0.1830  0.4224
  389TIP3    H122658   2.247   5.116   4.661 -0.7015  0.0461  1.1476
  389TIP3    H222659   2.387   5.096   4.716  0.1109  0.4848 -0.6743
  390TIP3   OH222660   3.085   5.028  14.677 -0.6645 -0.0580  0.2913
  390TIP3    H122661   3.064   5.120  14.691  0.6884  0.4000 -0.5722
  390TIP3    H222662   3.174   5.028  14.642 -0.5324 -1.7140  0.5428
  391TIP3   OH222663   5.527   0.243  16.898 -0.0629 -0.5107 -0.4653
  391TIP3    H122664   5.512   0.156  16.935  0.5795 -0.3713  0.1585
  391TIP3    H222665   5.470   0.248  16.822 -1.3376 -0.8646  0.4387
  392TIP3   OH222666   3.264   5.651  16.491 -0.1105  0.1793 -0.1415
  392TIP3    H122667   3.338   5.701  16.458  0.1151 -0.6679 -0.9476
  392TIP3    H222668   3.302   5.568  16.520 -0.7874 -0.4620 -1.0253
  393TIP3   OH222669   0.204   6.086   3.544 -0.8840  0.7239  0.2637
  393TIP3    H122670   0.224   6.143   3.619 -0.0304 -0.2851  0.8298
  393TIP3    H222671   0.184   6.147   3.473  1.6190  1.8470  0.3857
  394TIP3   OH222672   5.722   5.335  17.474 -0.5153  0.3570  0.7932
  394TIP3    H122673   5.723   5.240  17.480 -0.5430  0.3567  0.7957
  394TIP3    H222674   5.630   5.358  17.488 -0.1475  0.5412  3.4292
  395TIP3   OH222675   3.174   5.271   4.615 -0.1874  0.1419 -0.5101
  395TIP3    H122676   3.199   5.182   4.641 -0.4754  0.2373  0.1295
  395TIP3    H222677   3.132   5.307   4.693 -0.7668  0.5753 -1.0154
  396TIP3   OH222678   3.565   1.583  13.790  0.3848 -0.0822 -0.3508
  396TIP3    H122679   3.550   1.488  13.788 -0.4301  0.0264 -2.5778
  396TIP3    H222680   3.568   1.605  13.883 -1.7531 -1.9427  0.2528
  397TIP3   OH222681   3.151   0.614  14.611 -0.1973 -0.3386 -0.3187
  397TIP3    H122682   3.213   0.607  14.684 -0.6056  1.2400  0.2342
  397TIP3    H222683   3.200   0.583  14.535  2.2327  3.0023 -0.3662
  398TIP3   OH222684   2.550   1.626  16.174 -0.1264  0.3030 -0.1806
  398TIP3    H122685   2.522   1.546  16.220 -0.7244 -0.1262 -1.2481
  398TIP3    H222686   2.603   1.673  16.238 -1.7619  0.2195  1.3132
  399TIP3   OH222687   3.634   4.449  14.895  0.2864  0.5971  0.0136
  399TIP3    H122688   3.616   4.355  14.887 -2.8309  0.6974  3.1145
  399TIP3    H222689   3.588   4.488  14.821  2.1733 -0.2510 -1.6959
  400TIP3   OH222690   5.089   5.733  17.176 -0.4273  0.1291 -0.2975
  400TIP3    H122691   5.038   5.675  17.233  0.2179  1.1835  1.4235
  400TIP3    H222692   5.179   5.706  17.189 -0.0262  1.9052  1.1198
  401TIP3   OH222693   5.424   5.665  11.166  0.0243  0.4067  0.4380
  401TIP3    H122694   5.415   5.653  11.072 -0.9100  2.4616  0.1918
  401TIP3    H222695   5.508   5.625  11.188  0.6996  0.7007 -1.4328
  402TIP3   OH222696   4.719   2.525   5.807 -0.0479  0.3119 -0.0435
  402TIP3    H122697   4.741   2.512   5.714  0.6735 -0.8306  0.2662
  402TIP3    H222698   4.632   2.564   5.806 -0.2075 -0.0361 -1.1968
  403TIP3   OH222699   3.040   2.534   6.580 -0.0973  0.2927  0.1775
  403TIP3    H122700   3.055   2.572   6.667  0.6732 -0.5862  0.4487
  403TIP3    H222701   3.085   2.593   6.520 -1.6802  1.6016  0.2096
  404TIP3   OH222702   1.625   1.147  12.430  0.1653 -0.2943 -0.3014
  404TIP3    H122703   1.644   1.211  12.499 -1.3902  1.6102 -1.5542
  404TIP3    H222704   1.616   1.064  12.476  2.2356  0.3164  1.3884
  405TIP3   OH222705   2.823   2.163   6.811 -0.3570  0.1432 -0.3141
  405TIP3    H122706   2.860   2.208   6.888 -2.5594  0.8746  0.3907
  405TIP3    H222707   2.900   2.139   6.759  1.2041 -0.0000  1.8901
  406TIP3   OH222708   2.490   6.532  14.143 -0.2097 -0.3378  0.1113
  406TIP3    H122709   2.504   6.464  14.078  0.5126 -0.9293  0.8670
  406TIP3    H222710   2.460   6.608  14.093 -0.6963 -1.0974 -0.7792
  407TIP3   OH222711   4.782   4.424  15.490 -0.0640 -0.3007  0.4350
  407TIP3    H122712   4.698   4.469  15.504  0.6597  1.4656 -0.6159
  407TIP3    H222713   4.818   4.413  15.578 -0.2066  1.3672  0.7363
  408TIP3   OH222714   0.118   2.122  12.153 -0.4782 -0.1826 -0.3946
  408TIP3    H122715   0.155   2.201  12.192 -0.5163 -0.8777  1.1235
  408TIP3    H222716   0.051   2.155  12.092  0.2000  0.9657 -0.5558
  409TIP3   OH222717   1.842   2.307   3.816 -0.9200  0.8152  0.6721
  409TIP3    H122718   1.840   2.211   3.814 -1.2567  0.7980  1.5467
  409TIP3    H222719   1.897   2.329   3.891  0.9897  1.3348 -0.7943
  410TIP3   OH222720   0.495   5.174  10.504  0.1642  0.2145 -0.5086
  410TIP3    H122721   0.585   5.156  10.474 -0.6614 -1.2809 -2.3023
  410TIP3    H222722   0.487   5.126  10.586  1.5080  1.7646  0.5767
  411TIP3   OH222723   4.046   5.061  10.674 -0.4051 -0.0244 -0.2237
  411TIP3    H122724   4.106   5.125  10.635  0.9434 -0.7100  0.6263
  411TIP3    H222725   3.968   5.111  10.696 -0.1645  0.9105 -1.3702
  412TIP3   OH222726   5.670   6.485   5.036 -0.4151  0.7538  0.6377
  412TIP3    H122727   5.761   6.460   5.020 -0.3563  0.8630  0.8022
  412TIP3    H222728   5.660   6.568   4.990 -0.6028  0.4477  0.1146
  413TIP3   OH222729   3.381   1.859  15.283 -0.1692 -0.3230  0.8292
  413TIP3    H122730   3.460   1.859  15.337  1.0180 -0.3023 -0.8317
  413TIP3    H222731   3.400   1.796  15.213 -2.3964 -1.7475  1.4407
  414TIP3   OH222732   2.659   2.090   1.080 -0.7783 -0.0637  0.0614
  414TIP3    H122733   2.586   2.151   1.074 -1.3287 -0.5217  1.5893
  414TIP3    H222734   2.721   2.132   1.139 -0.4373 -0.2896 -0.1308
  415TIP3   OH222735   3.329   3.136  17.212 -0.2469 -0.0361  0.3866
  415TIP3    H122736   3.262   3.067  17.208 -0.1235 -0.3527  2.5185
  415TIP3    H222737   3.403   3.099  17.165 -0.3049 -1.2659  1.2024
  416TIP3   OH222738   1.196   2.932  12.820  0.6278 -0.9443 -0.2041
  416TIP3    H122739   1.225   3.010  12.774  0.8280 -0.6734  0.3660
  416TIP3    H222740   1.230   2.943  12.909 -0.0359 -1.2937  0.0982
  417TIP3   OH222741   4.418   3.615  10.765 -0.2096  0.1551 -0.0160
  417TIP3    H122742   4.340   3.608  10.821 -0.5602  0.1893 -0.4895
  417TIP3    H222743   4.389   3.668  10.690 -0.1037 -0.9031 -0.8308
  418TIP3   OH222744   2.197   2.791  13.175  0.3482 -0.3777  0.3886
  418TIP3    H122745   2.154   2.777  13.259 -0.0012  1.4045  0.5485
  418TIP3    H222746   2.132   2.767  13.109 -0.7398  1.7014  0.6324
  419TIP3   OH222747   1.876   2.072  14.612 -0.7038  0.4510  0.0740
  419TIP3    H122748   1.959   2.118  14.600 -0.5755 -0.1812 -1.7717
  419TIP3    H222749   1.885   1.993  14.559 -2.1067 -0.1492  0.6901
  420TIP3   OH222750   4.235   6.358   1.837 -0.3248 -0.2816  0.3118
  420TIP3    H122751   4.212   6.400   1.754 -0.7393 -0.0255  0.5552
  420TIP3    H222752   4.226   6.427   1.902 -0.1554 -0.5251  0.5919
  421TIP3   OH222753   3.849   5.108   1.211  1.0768 -0.7233  0.2180
  421TIP3    H122754   3.905   5.128   1.286 -0.9588  0.1524  1.5718
  421TIP3    H222755   3.854   5.186   1.156  2.1081 -1.1408 -0.3295
  422TIP3   OH222756   0.427   3.503  11.740 -0.2326 -0.1307  0.0504
  422TIP3    H122757   0.435   3.502  11.645  0.0418 -2.3809  0.0355
  422TIP3    H222758   0.334   3.488  11.757 -0.2407  0.0102  0.1309
  423TIP3   OH222759   1.730   4.241  16.310  0.3989 -0.3366 -0.0158
  423TIP3    H122760   1.715   4.247  16.216  0.4141 -0.0338 -0.0005
  423TIP3    H222761   1.654   4.194  16.344  1.1471 -1.8856 -0.3876
  424TIP3   OH222762   6.426   0.472  16.611  0.5205  0.0459 -0.6466
  424TIP3    H122763   6.352   0.448  16.667  1.1113 -0.0722  0.0904
  424TIP3    H222764   6.470   0.390  16.592  1.4366  0.3056  0.3067
  425TIP3   OH222765   0.653   6.156  13.439  0.1584 -0.0570 -0.5036
  425TIP3    H122766   0.682   6.214  13.369  2.3411  1.3583  1.3907
  425TIP3    H222767   0.724   6.094  13.450  0.0841  0.0436  0.7187
  426TIP3   OH222768   3.057   4.047  12.354  0.2958 -0.3864 -0.0168
  426TIP3    H122769   3.099   4.131  12.372  1.4913 -0.8632 -0.4804
  426TIP3    H222770   3.103   4.013  12.277 -0.3224 -1.3557  0.0312
  427TIP3   OH222771   3.064   0.915   1.083 -0.1863 -0.0272  0.1074
  427TIP3    H122772   3.085   0.840   1.028  1.2317  0.8396 -0.6219
  427TIP3    H222773   2.983   0.892   1.127 -0.0480 -1.7605 -0.4863
  428TIP3   OH222774   5.756   1.123   4.961 -0.6623  0.0077 -0.3707
  428TIP3    H122775   5.686   1.063   4.935  0.4105 -1.3960 -0.1187
  428TIP3    H222776   5.802   1.077   5.031 -0.9549  1.9619  1.1860
  429TIP3   OH222777   0.174   5.908  16.302  0.1738  0.6109  0.1171
  429TIP3    H122778   0.138   5.830  16.344  1.9814  0.2750  1.1900
  429TIP3    H222779   0.176   5.886  16.209  1.3087 -0.9676  0.4656
  430TIP3   OH222780   5.573   0.772  10.927 -0.0006 -0.3619 -0.1783
  430TIP3    H122781   5.522   0.708  10.977  0.0191  1.0297  1.7550
  430TIP3    H222782   5.653   0.783  10.979  1.1585 -0.6515 -1.8454
  431TIP3   OH222783   1.790   5.465   0.618  0.2677 -0.1048 -0.3010
  431TIP3    H122784   1.745   5.505   0.543  0.5547  1.7595  0.4556
  431TIP3    H222785   1.742   5.495   0.695  0.0380 -1.9121  0.3067
  432TIP3   OH222786   1.613   4.675  13.690  0.0248 -0.2968  0.0738
  432TIP3    H122787   1.536   4.647  13.740 -0.6918 -0.9376 -1.3184
  432TIP3    H222788   1.644   4.753  13.735 -0.9257 -0.5304  1.1744
  433TIP3   OH222789   0.588   4.772   4.203 -0.3893  0.1791  0.7141
  433TIP3    H122790   0.561   4.782   4.112  1.3248 -0.1809  0.1392
  433TIP3    H222791   0.576   4.860   4.240 -0.3031  0.5392 -0.0788
  434TIP3   OH222792   4.469   6.554  14.872  0.0398 -0.0660  0.7963
  434TIP3    H122793   4.475   6.644  14.902  2.1391  0.7340 -1.6845
  434TIP3    H222794   4.543   6.509  14.911 -0.0193 -0.2754  0.6739
  435TIP3   OH222795   1.928   0.244   1.456  0.6016  0.1671  0.3474
  435TIP3    H122796   2.014   0.241   1.413  0.7971  2.9661  0.3583
  435TIP3    H222797   1.933   0.320   1.514 -1.3478 -0.6105  1.6277
  436TIP3   OH222798   1.890   4.971  13.572 -0.0271 -0.1516  0.4855
  436TIP3    H122799   1.965   4.920  13.600  0.7815  1.4408  1.3409
  436TIP3    H222800   1.908   4.991  13.480 -0.2901 -1.2494  0.1812
  437TIP3   OH222801   4.393   5.694   2.750  0.0425 -0.7457 -0.7682
  437TIP3    H122802   4.381   5.663   2.840 -0.6883  1.3071 -0.0929
  437TIP3    H222803   4.305   5.712   2.718  0.3377 -0.8621 -1.6829
  438TIP3   OH222804   4.745   1.343   4.417  0.1242 -0.0969  0.3272
  438TIP3    H122805   4.741   1.343   4.512  1.4798  0.8548  0.4138
  438TIP3    H222806   4.838   1.351   4.396 -0.2169  0.7930 -1.0621
  439TIP3   OH222807   1.000   0.480  11.389  0.1224  0.8236  0.1103
  439TIP3    H122808   1.023   0.416  11.321 -0.6525  0.5649  0.0766
  439TIP3    H222809   1.034   0.563  11.357  0.5498  0.5447 -0.1671
  440TIP3   OH222810   6.512   4.987  12.780 -0.5646 -0.1473 -0.3225
  440TIP3    H122811   6.520   5.055  12.847 -0.0326 -1.5857  1.1434
  440TIP3    H222812   6.584   4.927  12.798 -1.4067 -1.4544 -1.1356
  441TIP3   OH222813   2.092   0.120   6.451 -0.3011 -0.8360  0.5241
  441TIP3    H122814   2.063   0.044   6.500 -1.8852 -0.2698  0.5227
  441TIP3    H222815   2.155   0.163   6.508 -0.4552 -1.3892  1.1233
  442TIP3   OH222816   3.925   0.656  16.187 -0.3426 -0.4278  0.4588
  442TIP3    H122817   3.831   0.657  16.166 -0.3864 -0.3828  0.6638
  442TIP3    H222818   3.940   0.570  16.225 -0.3741 -0.2936  0.7735
  443TIP3   OH222819   6.635   5.623  14.843  0.2641  0.9743 -0.0676
  443TIP3    H122820   6.607   5.532  14.831  1.4797  0.3891  1.2537
  443TIP3    H222821   6.662   5.650  14.755 -1.0412  0.4175 -0.6770
  444TIP3   OH222822   0.016   3.407  11.957  0.0147  0.2739  0.5750
  444TIP3    H122823  -0.079   3.396  11.962  0.1552 -2.2374 -0.6611
  444TIP3    H222824   0.051   3.327  11.996  1.6250  0.8616  0.4017
  445TIP3   OH222825   4.691   2.588  16.477 -0.3979  0.0598 -0.2867
  445TIP3    H122826   4.668   2.593  16.570 -1.0709  0.6910 -0.4795
  445TIP3    H222827   4.747   2.664  16.463 -0.6576  0.2100 -0.4995
  446TIP3   OH222828   6.220   2.284   1.904 -0.5935  0.1027 -0.0690
  446TIP3    H122829   6.154   2.312   1.840  0.1478  0.4239 -0.7157
  446TIP3    H222830   6.203   2.337   1.981 -0.5614  0.8114 -0.5377
  447TIP3   OH222831   2.800   3.736  14.230  0.1707 -0.2689  0.4389
  447TIP3    H122832   2.753   3.814  14.258  1.6892  1.0356 -0.5040
  447TIP3    H222833   2.875   3.730  14.290 -0.0019 -1.1003  0.5903
  448TIP3   OH222834   2.532   6.101  12.634 -0.3515 -0.3470  0.2208
  448TIP3    H122835   2.540   6.177  12.575  0.1898  0.1455  0.9216
  448TIP3    H222836   2.620   6.089  12.670 -0.3686 -1.4838 -0.0809
  449TIP3   OH222837   2.287   2.018  17.001 -0.0832  0.0043 -0.2376
  449TIP3    H122838   2.296   2.092  16.941  0.4495 -0.1032 -0.3042
  449TIP3    H222839   2.287   2.057  17.088 -2.7129  0.3338 -0.3045
  450TIP3   OH222840   1.455   0.073   5.658 -0.4533  0.3662  0.4304
  450TIP3    H122841   1.388   0.123   5.612 -1.2902 -0.4429  0.7311
  450TIP3    H222842   1.436  -0.019   5.636  1.4358  0.1977 -0.6302
  451TIP3   OH222843   2.241   1.983  13.053 -0.1771 -0.1570 -0.0204
  451TIP3    H122844   2.234   2.026  13.139  0.8464  0.3838 -0.1925
  451TIP3    H222845   2.229   2.054  12.990  0.2377 -0.3491 -0.3146
  452TIP3   OH222846   4.751   2.760  17.228 -0.3699  0.3354  0.4710
  452TIP3    H122847   4.769   2.716  17.311 -1.2964 -0.4626  0.2632
  452TIP3    H222848   4.802   2.712  17.164 -1.5886 -0.6647  0.2005
  453TIP3   OH222849   5.430   2.639  12.375  0.9827  0.1928  0.5589
  453TIP3    H122850   5.509   2.599  12.339  1.7651  2.9187 -1.0545
  453TIP3    H222851   5.358   2.586  12.340  1.9866 -0.9069  0.0862
  454TIP3   OH222852   4.260   0.393  16.021 -0.8435 -0.0269  0.0960
  454TIP3    H122853   4.197   0.396  15.949 -0.8353 -0.8147  0.0483
  454TIP3    H222854   4.214   0.348  16.091 -0.2673 -0.8336 -0.0198
  455TIP3   OH222855   2.594   5.018  15.654 -0.6215  0.2886  0.2967
  455TIP3    H122856   2.650   5.015  15.577  1.4013  0.0447  1.7087
  455TIP3    H222857   2.572   4.927  15.672  0.8112  0.1203  1.3025
  456TIP3   OH222858   4.177   4.773  12.110  0.4970 -0.0684  0.0698
  456TIP3    H122859   4.087   4.768  12.078 -0.2074  2.2519  1.3928
  456TIP3    H222860   4.223   4.703  12.064 -1.3179  0.4534 -2.8235
  457TIP3   OH222861   2.373   1.479   4.878  0.2184  0.1668  0.1841
  457TIP3    H122862   2.338   1.390   4.869 -0.0258  0.3740 -1.0560
  457TIP3    H222863   2.390   1.488   4.972 -0.8128 -0.7854  0.4896
  458TIP3   OH222864   1.610   6.650   4.947  0.4850 -0.6089  0.0221
  458TIP3    H122865   1.595   6.563   4.983  0.1275  0.2083  1.9503
  458TIP3    H222866   1.581   6.710   5.016  0.8053  1.0432 -1.2241
  459TIP3   OH222867   6.530   5.658  15.493 -0.3170 -0.3248  0.2643
  459TIP3    H122868   6.622   5.635  15.483 -0.2611 -0.1797  0.4464
  459TIP3    H222869   6.504   5.693  15.408  0.2756  1.3410  0.7357
  460TIP3   OH222870   5.629   0.932  13.055  0.6017 -0.3193  0.1333
  460TIP3    H122871   5.581   0.994  13.111  1.8467 -0.4886  1.4600
  460TIP3    H222872   5.719   0.964  13.057  0.9955 -1.3842 -0.3175
  461TIP3   OH222873   0.304   6.391   5.213  0.0836  0.5321  0.1416
  461TIP3    H122874   0.397   6.374   5.231 -0.1239 -0.2677  0.4796
  461TIP3    H222875   0.278   6.452   5.282  0.4948  1.2271 -0.2985
  462TIP3   OH222876   3.340   3.797   0.509 -0.0508 -0.0225  0.3305
  462TIP3    H122877   3.353   3.872   0.450  0.2663 -1.4214 -1.4467
  462TIP3    H222878   3.412   3.804   0.572  0.0262  1.0985  0.1445
  463TIP3   OH222879   5.875   4.048  11.603 -0.6149  0.1132  0.1034
  463TIP3    H122880   5.927   4.127  11.617  0.4561 -0.9640  2.7951
  463TIP3    H222881   5.936   3.986  11.563 -1.0720  0.1894 -0.7313
  464TIP3   OH222882   3.811   2.508   1.567 -0.4861 -0.0322 -0.4501
  464TIP3    H122883   3.791   2.416   1.548 -1.3570 -0.4627  2.1123
  464TIP3    H222884   3.875   2.504   1.638 -1.6799  1.2694  0.7644
  465TIP3   OH222885   1.251   0.656  13.410  0.1660  0.0473 -0.1320
  465TIP3    H122886   1.193   0.586  13.380 -0.3874  0.1105  0.7437
  465TIP3    H222887   1.279   0.701  13.330  1.7253 -2.0626 -0.8511
  466TIP3   OH222888   0.132   5.770  14.078 -0.6392 -0.3064 -0.0240
  466TIP3    H122889   0.197   5.779  14.148 -0.3875  0.2034 -0.3143
  466TIP3    H222890   0.123   5.676  14.065  1.0136 -0.3926 -0.8617
  467TIP3   OH222891   2.465   3.973  15.150  0.2714  0.4671  0.0226
  467TIP3    H122892   2.390   4.002  15.202 -1.0631 -1.3767 -0.7486
  467TIP3    H222893   2.441   3.994  15.060  0.8669  0.2215 -0.1948
  468TIP3   OH222894   1.770   5.000   0.982  0.3644 -0.0294  0.0196
  468TIP3    H122895   1.748   5.082   1.028  0.1291 -1.2685  2.2608
  468TIP3    H222896   1.829   5.027   0.912 -0.8383  2.2222 -0.2237
  469TIP3   OH222897   6.403   0.132  11.487 -0.5042 -0.1406  0.2483
  469TIP3    H122898   6.446   0.195  11.429 -0.2145 -0.4411  0.1292
  469TIP3    H222899   6.436   0.047  11.457 -1.1654 -0.3744  0.1718
  470TIP3   OH222900   6.621   3.350   1.622 -0.4420 -0.0746 -0.1603
  470TIP3    H122901   6.649   3.306   1.702  0.5078 -0.9759 -0.9526
  470TIP3    H222902   6.697   3.402   1.595 -1.3676  1.6841  0.4686
  471TIP3   OH222903   4.292   3.890   4.091 -0.1112  0.0332 -0.5162
  471TIP3    H122904   4.335   3.965   4.051 -0.0024  1.1004  1.4428
  471TIP3    H222905   4.225   3.864   4.028  2.0921 -0.4880 -2.8079
  472TIP3   OH222906   0.089   1.096   2.783  0.2014 -0.0401  0.5083
  472TIP3    H122907   0.113   1.178   2.826 -0.6839  0.4306  0.1361
  472TIP3    H222908   0.043   1.046   2.850 -0.3873  0.3126  0.3695
  473TIP3   OH222909   4.361   2.304   2.208  0.1521 -0.4200 -0.4276
  473TIP3    H122910   4.284   2.360   2.203  0.6112  0.1838 -1.0364
  473TIP3    H222911   4.333   2.220   2.172 -0.9212 -1.0524  1.7400
  474TIP3   OH222912   6.482   3.654   0.750  0.2236 -0.2109  0.3767
  474TIP3    H122913   6.496   3.610   0.666  0.9964  0.7674 -0.0257
  474TIP3    H222914   6.450   3.741   0.726  2.2050  0.7473  0.9927
  475TIP3   OH222915   1.885   3.267  14.513  0.1653  0.4095 -0.5402
  475TIP3    H122916   1.928   3.313  14.586  1.4280 -0.9299 -0.4076
  475TIP3    H222917   1.888   3.175  14.538 -0.7054  0.0643 -1.6419
  476TIP3   OH222918   0.677   5.018   4.377  0.3361  0.5434  0.2515
  476TIP3    H122919   0.728   5.091   4.343  0.3677 -0.9270 -3.2888
  476TIP3    H222920   0.586   5.044   4.364  0.3315  0.3749 -0.0677
  477TIP3   OH222921   2.510   0.122   0.728 -0.4456  0.0407  0.3170
  477TIP3    H122922   2.534   0.045   0.676 -0.8949  0.2809 -0.2457
  477TIP3    H222923   2.480   0.086   0.811  3.1358 -0.2654  1.6674
  478TIP3   OH222924   6.689   3.124   3.150  0.3064 -0.5001 -0.0251
  478TIP3    H122925   6.756   3.056   3.159  1.0516  0.2681  0.3396
  478TIP3    H222926   6.734   3.196   3.106 -0.4507 -0.1979 -0.3252
  479TIP3   OH222927   5.248   2.794  15.099  0.4219  0.1343  0.2871
  479TIP3    H122928   5.323   2.816  15.044  0.0438 -1.4686 -0.9676
  479TIP3    H222929   5.265   2.704  15.127 -1.4025 -0.5963 -0.7652
  480TIP3   OH222930   0.578   0.851   6.267 -0.0233 -0.4784  0.3708
  480TIP3    H122931   0.622   0.903   6.335 -1.3140 -0.6637  1.3853
  480TIP3    H222932   0.506   0.906   6.238  0.3906 -0.4956 -0.7127
  481TIP3   OH222933   0.770   1.798  12.027 -0.5426  0.2045  0.0784
  481TIP3    H122934   0.758   1.713  12.069 -2.2746  0.2381 -0.3003
  481TIP3    H222935   0.854   1.791  11.982 -0.4364 -1.1348  0.4515
  482TIP3   OH222936   0.732   1.463   0.930 -0.0009  0.1014 -0.0651
  482TIP3    H122937   0.793   1.537   0.934 -0.7151  0.8175 -1.5217
  482TIP3    H222938   0.673   1.485   0.858 -0.1702 -1.9545 -0.6145
  483TIP3   OH222939   1.585   1.457  11.386  0.3467  0.2610  0.2842
  483TIP3    H122940   1.678   1.480  11.381  0.2321  0.6959  0.0815
  483TIP3    H222941   1.566   1.453  11.479  0.1336  2.0089  0.3551
  484TIP3   OH222942   5.390   4.972   4.892 -0.1448  0.0300  0.5564
  484TIP3    H122943   5.344   4.974   4.808 -1.1183 -0.1225  1.0678
  484TIP3    H222944   5.439   5.054   4.894 -0.5905  0.3149  0.0917
  485TIP3   OH222945   0.530   4.221  16.207 -0.6363 -0.3787  0.1939
  485TIP3    H122946   0.493   4.303  16.242 -0.9394  0.0935 -1.1661
  485TIP3    H222947   0.463   4.155  16.226  0.2610 -0.6857  2.6873
  486TIP3   OH222948   4.634   6.651  14.172 -0.1660 -0.0799  0.2691
  486TIP3    H122949   4.649   6.617  14.260  1.1103 -0.9756 -0.2708
  486TIP3    H222950   4.575   6.588  14.132  1.4545 -1.2341 -0.4143
  487TIP3   OH222951   5.156   2.062   5.327 -0.4852  0.0126  0.2560
  487TIP3    H122952   5.202   2.085   5.407  0.2441  1.6238 -0.5856
  487TIP3    H222953   5.065   2.085   5.343 -0.2358  0.9218  0.4221
  488TIP3   OH222954   1.281   5.003   2.511 -0.4412  0.0290  0.7448
  488TIP3    H122955   1.342   5.061   2.556 -0.7179  1.1614 -0.3014
  488TIP3    H222956   1.197   5.019   2.555 -0.5757  0.6404  0.2715
  489TIP3   OH222957   2.947   4.961  15.569 -0.5881 -0.1097 -0.3110
  489TIP3    H122958   2.880   4.995  15.511 -0.9078 -0.3094 -0.0601
  489TIP3    H222959   3.027   4.959  15.515 -0.5624  1.0122 -0.3246
  490TIP3   OH222960   6.158   0.085   4.857 -0.3759 -0.1542  0.2056
  490TIP3    H122961   6.116   0.154   4.807  1.0675  1.2324  0.8339
  490TIP3    H222962   6.250   0.086   4.829 -0.1897 -1.4093  0.6609
  491TIP3   OH222963   5.234   5.561   4.825  0.0492  0.0111  0.7819
  491TIP3    H122964   5.244   5.484   4.770  2.1390  0.4508  0.4851
  491TIP3    H222965   5.234   5.634   4.763 -1.7339  0.3103  1.0770
  492TIP3   OH222966   3.339   5.262  10.746 -0.0710 -0.7454  0.0497
  492TIP3    H122967   3.324   5.353  10.722 -0.0741 -1.3094 -2.3169
  492TIP3    H222968   3.418   5.264  10.801 -0.3978  0.7169  0.4971
  493TIP3   OH222969   5.036   4.112  14.618 -0.1181 -0.6050 -0.2473
  493TIP3    H122970   4.959   4.062  14.647 -1.2791  0.4185 -1.4200
  493TIP3    H222971   5.090   4.122  14.696 -2.5226  1.0552  1.3207
  494TIP3   OH222972   3.706   5.009  16.410 -0.4497  0.8657  0.3034
  494TIP3    H122973   3.664   4.964  16.483 -0.5650  0.2509 -0.1312
  494TIP3    H222974   3.654   4.984  16.333  0.3158  0.6335 -0.1421
  495TIP3   OH222975   4.343   3.213  14.524  0.0778  0.1621  0.3685
  495TIP3    H122976   4.353   3.287  14.465  2.9467 -0.2683  0.1961
  495TIP3    H222977   4.355   3.250  14.611  0.7036  0.0350  0.3383
  496TIP3   OH222978   6.356   4.693   2.745 -0.6136  0.4153 -0.7974
  496TIP3    H122979   6.357   4.601   2.771 -0.5242  0.4396 -0.7157
  496TIP3    H222980   6.273   4.704   2.699 -0.0750 -0.0176 -1.9106
  497TIP3   OH222981   0.009   0.631  14.151  0.2451  0.0280 -0.0152
  497TIP3    H122982  -0.014   0.622  14.059  1.2833 -1.5269 -0.1654
  497TIP3    H222983  -0.006   0.724  14.171  0.0313  0.3941 -1.7475
  498TIP3   OH222984   5.236   6.503  15.168 -0.4461  0.5071  0.4750
  498TIP3    H122985   5.179   6.578  15.150 -1.2803 -0.7162 -2.7023
  498TIP3    H222986   5.206   6.470  15.253 -1.6661  2.3298  0.8086
  499TIP3   OH222987   3.899   1.576   4.617  0.5054 -0.0274 -0.5597
  499TIP3    H122988   3.828   1.576   4.553  0.8983  0.7327 -1.0219
  499TIP3    H222989   3.860   1.613   4.696 -0.1242 -1.4675 -0.1703
  500TIP3   OH222990   0.791   3.680  13.708 -0.5757  0.3156 -0.3212
  500TIP3    H122991   0.857   3.623  13.668  2.1055  1.7620  1.7126
  500TIP3    H222992   0.771   3.744  13.640 -1.6984 -1.4600 -1.7540
  501TIP3   OH222993   1.838   1.086   1.586 -0.1785  0.0254 -0.2366
  501TIP3    H122994   1.836   1.180   1.567 -1.1107  0.5810  2.2002
  501TIP3    H222995   1.907   1.077   1.652 -0.3411 -0.9536 -0.1861
  502TIP3   OH222996   0.390   5.738  13.493  0.0038  0.6096 -0.1337
  502TIP3    H122997   0.356   5.821  13.524  1.8965  1.1746  0.5879
  502TIP3    H222998   0.406   5.751  13.400  0.4794  1.1481  0.0145
  503TIP3   OH222999   2.627   1.367   5.809 -0.3359 -0.3912  0.0280
  503TIP3    H123000   2.631   1.425   5.885 -0.3646  1.4651 -1.2896
  503TIP3    H223001   2.718   1.359   5.781 -0.4813  0.4893 -0.7817
  504TIP3   OH223002   2.467   6.382   1.056  0.0159 -0.0441  0.2371
  504TIP3    H123003   2.375   6.371   1.081  0.3794 -2.3585  0.7986
  504TIP3    H223004   2.513   6.314   1.105  1.5272 -1.3092 -2.6682
  505TIP3   OH223005   1.372   0.786   0.218 -0.2106  0.2875  0.1031
  505TIP3    H123006   1.455   0.829   0.237  0.9892 -2.3127  1.1607
  505TIP3    H223007   1.309   0.857   0.213  1.7179  2.1810  1.2306
  506TIP3   OH223008   5.634   1.478   5.834  0.0181 -0.7542  0.7316
  506TIP3    H123009   5.686   1.554   5.807 -0.5339 -1.4146 -2.5470
  506TIP3    H223010   5.698   1.407   5.842  0.0277 -0.8727 -0.3137
  507TIP3   OH223011   2.166   6.661   1.041  0.2555  0.0027  0.2535
  507TIP3    H123012   2.129   6.706   1.117  0.0180 -1.0297  0.7656
  507TIP3    H223013   2.182   6.572   1.071 -1.0778 -0.8053 -1.2799
  508TIP3   OH223014   6.332   6.047   4.671  0.1499 -0.0590 -0.4687
  508TIP3    H123015   6.313   5.965   4.717 -1.2692 -0.6512 -1.9979
  508TIP3    H223016   6.249   6.069   4.628  0.9125  1.4542 -1.2135
  509TIP3   OH223017   6.434   0.837   1.120 -0.4749  0.0610 -0.0059
  509TIP3    H123018   6.399   0.897   1.054 -3.5753 -0.3359  1.1185
  509TIP3    H223019   6.423   0.884   1.203 -0.0145 -0.8531  0.5931
  510TIP3   OH223020   4.353   4.486   4.084  0.4170 -0.7527 -0.3415
  510TIP3    H123021   4.342   4.521   3.996  2.2761 -0.2646 -0.4225
  510TIP3    H223022   4.446   4.467   4.091  0.1342 -1.7468  1.1762
  511TIP3   OH223023   3.318   4.965   3.389  0.5976 -0.2183 -0.2937
  511TIP3    H123024   3.257   4.955   3.316  0.6305 -0.3034 -0.3098
  511TIP3    H223025   3.387   5.022   3.354  0.7212 -0.4286 -0.3977
  512TIP3   OH223026   5.494   6.363   2.678  0.1917  0.5584 -0.4246
  512TIP3    H123027   5.507   6.377   2.585  1.3194 -1.1284 -0.5611
  512TIP3    H223028   5.511   6.269   2.691 -1.0790  0.5162  1.2872
  513TIP3   OH223029   5.453   1.864   2.258 -0.1734 -0.2463 -0.0872
  513TIP3    H123030   5.415   1.792   2.207  0.0417  0.3822 -1.1630
  513TIP3    H223031   5.380   1.900   2.308  0.0177 -2.2395  1.7709
  514TIP3   OH223032   1.920   5.610  15.136  0.0652 -0.1543 -0.0215
  514TIP3    H123033   1.977   5.653  15.200  0.0674  0.4506 -0.4236
  514TIP3    H223034   1.858   5.560  15.189  0.4448 -0.1432  0.4395
  515TIP3   OH223035   0.121   2.469   2.108 -0.1192 -0.2224  0.0219
  515TIP3    H123036   0.053   2.421   2.155  0.7306 -0.9911  0.4938
  515TIP3    H223037   0.150   2.409   2.039 -0.3075  0.3161 -0.5285
  516TIP3   OH223038   5.158   5.529   5.332 -0.4399 -0.3219 -1.0815
  516TIP3    H123039   5.253   5.533   5.336 -0.4357 -0.8331 -0.3673
  516TIP3    H223040   5.134   5.584   5.258  0.3328  0.7885 -0.5241
  517TIP3   OH223041   5.460   2.299  13.967  0.0782 -0.1108 -0.0637
  517TIP3    H123042   5.501   2.264  13.888  3.1726 -1.3459  1.8984
  517TIP3    H223043   5.366   2.286  13.953  0.2491  1.7170 -4.3442
  518TIP3   OH223044   4.974   5.864   6.381  0.0796 -0.0987 -0.2897
  518TIP3    H123045   4.927   5.850   6.298 -1.2839 -1.3666  0.6411
  518TIP3    H223046   5.009   5.777   6.403 -0.8907 -0.1553  1.1883
  519TIP3   OH223047   4.368   3.157   4.076 -0.0779 -0.4105 -0.3026
  519TIP3    H123048   4.436   3.224   4.085  1.4507 -2.0546  1.2613
  519TIP3    H223049   4.415   3.079   4.045 -0.8486 -2.0644  2.3857
  520TIP3   OH223050   4.968   4.399   3.419 -0.1660  0.3841 -0.4221
  520TIP3    H123051   4.964   4.347   3.499 -0.6623  0.7771 -0.1863
  520TIP3    H223052   4.886   4.379   3.373  0.7616 -0.9687 -1.5574
  521TIP3   OH223053   1.552   2.683  17.282 -0.7894  0.0988 -0.4520
  521TIP3    H123054   1.609   2.611  17.255  1.2829  1.3898  0.2382
  521TIP3    H223055   1.524   2.724  17.200 -0.0052 -0.0605 -0.8120
  522TIP3   OH223056   6.311   5.920   0.739 -0.8179 -0.0020  0.4927
  522TIP3    H123057   6.343   5.956   0.656 -1.4217 -1.9292 -0.6235
  522TIP3    H223058   6.362   5.841   0.753 -2.0091 -0.7166  0.9743
  523TIP3   OH223059   2.216   2.890   1.047  0.2182  0.1353 -0.2125
  523TIP3    H123060   2.229   2.976   1.087  3.1742 -0.8171  1.1946
  523TIP3    H223061   2.303   2.866   1.013 -0.5440 -2.2299 -0.6981
  524TIP3   OH223062   3.899   5.275   0.957  0.3460 -0.0229 -0.6641
  524TIP3    H123063   3.884   5.330   1.035 -0.5761 -0.7683 -0.2889
  524TIP3    H223064   3.988   5.295   0.930  0.7015  0.2114  0.6240
  525TIP3   OH223065   4.498   1.329  14.071 -0.0484 -0.8206 -0.0649
  525TIP3    H123066   4.443   1.393  14.116 -0.2760 -2.7690  2.6773
  525TIP3    H223067   4.453   1.246  14.083  0.5873 -1.6845 -2.9120
  526TIP3   OH223068   0.667   1.174  13.106 -0.3657  0.1060  0.3261
  526TIP3    H123069   0.617   1.216  13.176 -1.4159 -2.0120  0.9559
  526TIP3    H223070   0.643   1.081  13.113  1.0312 -0.4556 -1.6007
  527TIP3   OH223071   1.482   2.792  13.525 -0.1782  0.3508  0.1806
  527TIP3    H123072   1.497   2.708  13.483  1.2257  0.1540  1.0016
  527TIP3    H223073   1.556   2.802  13.586  0.8806  3.1248 -1.3665
  528TIP3   OH223074   3.905   5.539   3.496 -0.0505  0.1027  0.1259
  528TIP3    H123075   3.945   5.592   3.427  0.1668 -1.6702 -1.1594
  528TIP3    H223076   3.819   5.516   3.462  0.3484 -1.4205  0.0810
  529TIP3   OH223077   3.252   4.319   5.535  0.5964 -0.8819  0.1863
  529TIP3    H123078   3.307   4.324   5.613  2.1232  0.8082 -0.9082
  529TIP3    H223079   3.314   4.306   5.463 -0.5445 -0.1236 -0.9648
  530TIP3   OH223080   2.524   5.376  15.701 -0.3414  0.0892 -0.0178
  530TIP3    H123081   2.512   5.450  15.762 -0.5198 -0.3960  0.5459
  530TIP3    H223082   2.617   5.353  15.710 -0.6135 -0.7291  0.9688
  531TIP3   OH223083   6.437   4.412   5.102 -0.3887 -0.2030  0.5332
  531TIP3    H123084   6.507   4.348   5.112  2.1899  2.3954  0.4949
  531TIP3    H223085   6.399   4.420   5.189 -0.6790 -1.6657  0.5551
  532TIP3   OH223086   4.416   0.765  11.857 -0.4707 -0.7325  0.2386
  532TIP3    H123087   4.327   0.732  11.867 -1.1313  0.6643 -0.6400
  532TIP3    H223088   4.436   0.755  11.764  0.0123 -0.3933  0.2967
  533TIP3   OH223089   5.177   1.618   3.142 -0.1135  0.3471  0.3399
  533TIP3    H123090   5.261   1.618   3.096  0.5253  1.9217  1.4322
  533TIP3    H223091   5.191   1.558   3.216  0.2670  1.0319  0.8399
  534TIP3   OH223092   5.371   2.997   3.679 -0.0865  0.0646  0.1118
  534TIP3    H123093   5.453   2.955   3.653  0.0613  0.7929 -0.6284
  534TIP3    H223094   5.395   3.053   3.752 -0.4730 -1.8669  1.8034
  535TIP3   OH223095   0.926   5.987  15.589  0.5777 -0.4875  0.5816
  535TIP3    H123096   1.006   6.039  15.577 -0.4104  0.7664 -0.9571
  535TIP3    H223097   0.863   6.049  15.627 -0.2671 -0.8761 -0.1589
  536TIP3   OH223098   4.256   3.339  16.357  0.5670 -0.8433 -0.0202
  536TIP3    H123099   4.321   3.407  16.374 -1.6808  1.7044 -0.7696
  536TIP3    H223100   4.303   3.271  16.309  2.5498  1.0788 -0.9588
  537TIP3   OH223101   6.174   0.719  11.660 -0.1461  0.2182  0.1885
  537TIP3    H123102   6.116   0.647  11.683 -0.0827 -0.1968 -0.9215
  537TIP3    H223103   6.139   0.754  11.578  0.1214  1.1244  0.4498
  538TIP3   OH223104   0.189   3.838  14.073 -0.1569 -0.1212 -0.1988
  538TIP3    H123105   0.181   3.809  13.982 -1.6358  0.1918 -0.1871
  538TIP3    H223106   0.180   3.758  14.125 -1.2541 -0.0701 -0.2785
  539TIP3   OH223107   1.884   4.370   0.465 -0.1537  0.0088  0.2258
  539TIP3    H123108   1.875   4.377   0.370 -1.4655  1.4610  0.4245
  539TIP3    H223109   1.920   4.282   0.479  2.6244  0.6803 -1.7213
  540TIP3   OH223110   4.689   5.630   0.657  0.3996  0.1893 -0.3354
  540TIP3    H123111   4.755   5.571   0.693  1.7822  0.8930 -1.6378
  540TIP3    H223112   4.712   5.716   0.693 -0.2574  0.3267 -0.2303
  541TIP3   OH223113   0.187   3.367  12.437 -0.2607 -0.4013  0.3291
  541TIP3    H123114   0.192   3.462  12.448  0.8587 -0.4480  0.3814
  541TIP3    H223115   0.163   3.334  12.523 -1.2016 -0.1438  0.1805
  542TIP3   OH223116   5.443   0.432  11.611 -0.1990 -0.0582 -0.2088
  542TIP3    H123117   5.410   0.522  11.613 -1.1574 -0.3584 -1.6691
  542TIP3    H223118   5.410   0.396  11.529  0.5003 -1.6326  0.1758
  543TIP3   OH223119   5.240   4.636   5.296  0.1516  0.5739  0.2091
  543TIP3    H123120   5.173   4.661   5.233 -1.0291 -1.9263  0.3590
  543TIP3    H223121   5.281   4.718   5.321 -0.6173  1.8406 -2.3636
  544TIP3   OH223122   0.956   4.425  12.918 -0.2512 -0.4804 -0.4664
  544TIP3    H123123   0.888   4.365  12.887 -1.3014  0.5579 -0.2830
  544TIP3    H223124   0.919   4.462  12.999 -0.0447  1.0345 -1.0190
  545TIP3   OH223125   6.224   6.431   1.293 -0.2539 -0.0386 -0.0817
  545TIP3    H123126   6.286   6.429   1.366 -1.2016  1.2124  0.8086
  545TIP3    H223127   6.279   6.441   1.215  0.7373 -0.5255  0.5322
  546TIP3   OH223128   4.838   2.303  16.782 -0.7623 -0.1283 -0.1657
  546TIP3    H123129   4.838   2.317  16.687 -3.6897 -0.5919 -0.3054
  546TIP3    H223130   4.856   2.210  16.793  3.3316  0.4736  0.0568
  547TIP3   OH223131   1.266   0.863  14.098 -0.1326  0.0133  0.4366
  547TIP3    H123132   1.292   0.933  14.037 -0.8376  0.0949  0.2176
  547TIP3    H223133   1.251   0.787  14.041  1.3977 -0.5698  0.7467
  548TIP3   OH223134   5.826   2.550   0.922  0.7855 -0.7991 -0.2956
  548TIP3    H123135   5.895   2.496   0.961  1.8139  0.7807  0.1523
  548TIP3    H223136   5.863   2.638   0.919 -1.1150  0.0424 -0.3423
  549TIP3   OH223137   3.641   3.465  12.935  0.7236  0.0124  0.0292
  549TIP3    H123138   3.663   3.558  12.927  0.0110  0.1673 -0.1784
  549TIP3    H223139   3.726   3.422  12.949  1.1378  0.6076 -0.5825
  550TIP3   OH223140   5.679   2.476  16.417  0.2631 -0.3096  0.0464
  550TIP3    H123141   5.596   2.478  16.464 -0.1066 -0.2675 -0.6056
  550TIP3    H223142   5.659   2.431  16.335  1.0267 -0.8851  0.1619
  551TIP3   OH223143   3.232   4.803   5.942 -0.5987  0.3821  0.3523
  551TIP3    H123144   3.286   4.732   5.978 -0.9245  0.7295  1.5889
  551TIP3    H223145   3.269   4.820   5.855  0.5719 -0.1444  0.7234
  552TIP3   OH223146   2.797   4.131   2.563  0.4178 -0.5639  0.0557
  552TIP3    H123147   2.871   4.122   2.623  1.3661 -0.3997 -1.0644
  552TIP3    H223148   2.721   4.144   2.620  1.4109  0.3916  1.1925
  553TIP3   OH223149   5.171   2.127   0.744 -0.4929  0.2232  0.2981
  553TIP3    H123150   5.237   2.061   0.720 -1.3898 -0.1901 -1.2073
  553TIP3    H223151   5.096   2.106   0.688 -1.5847  1.2155  1.3535
  554TIP3   OH223152   0.769   6.109   6.344  0.3342  0.7751  0.0913
  554TIP3    H123153   0.735   6.031   6.301  0.7413 -0.2269  1.4944
  554TIP3    H223154   0.822   6.075   6.416  0.2043  2.3641  0.9814
  555TIP3   OH223155   2.468   2.360  13.640 -0.1946 -0.2420 -0.3321
  555TIP3    H123156   2.398   2.366  13.575 -0.3794  0.2314 -0.0939
  555TIP3    H223157   2.483   2.266  13.650 -1.5619 -0.4030  0.4438
  556TIP3   OH223158   5.550   2.709  14.751  0.1512 -0.7083  0.0107
  556TIP3    H123159   5.493   2.690  14.676 -1.1149  1.5356  0.3084
  556TIP3    H223160   5.638   2.717  14.712 -0.0740 -1.9980 -0.8207
  557TIP3   OH223161   2.692   6.028  16.357 -0.0400 -0.1387  0.3691
  557TIP3    H123162   2.598   6.029  16.372  0.0011 -0.1160  0.6238
  557TIP3    H223163   2.729   5.988  16.435  0.4107  2.5430  1.6442
  558TIP3   OH223164   1.978   2.137  11.558  0.7923  0.0112  0.1528
  558TIP3    H123165   1.993   2.136  11.464 -0.7243 -0.5046 -0.1109
  558TIP3    H223166   2.002   2.225  11.586  0.6212  0.3818 -0.8392
  559TIP3   OH223167   3.331   1.101   1.450 -0.0384 -0.0467 -0.3533
  559TIP3    H123168   3.288   1.186   1.442 -2.7468 -0.8641  3.2581
  559TIP3    H223169   3.352   1.076   1.359 -3.1922  2.4491 -1.9670
  560TIP3   OH223170   2.191   1.521  15.794  0.3564 -0.9043 -0.1510
  560TIP3    H123171   2.156   1.459  15.730 -1.3675 -1.6305  1.3960
  560TIP3    H223172   2.190   1.474  15.877  1.0942  0.4884  0.6928
  561TIP3   OH223173   4.264   5.271  14.778  0.0191 -0.3901 -0.1200
  561TIP3    H123174   4.291   5.346  14.831  0.8334 -1.5006  1.1069
  561TIP3    H223175   4.203   5.223  14.833 -1.2045 -0.1872 -1.2432
  562TIP3   OH223176   5.111   5.628   6.431  0.2665 -0.3294  0.3405
  562TIP3    H123177   5.057   5.568   6.483  0.5283 -1.0742 -0.2320
  562TIP3    H223178   5.199   5.618   6.466  0.0776  0.7940  1.1912
  563TIP3   OH223179   4.774   2.330  13.708 -0.5272  0.5175  0.6778
  563TIP3    H123180   4.863   2.295  13.701 -0.5975  0.1397  1.5399
  563TIP3    H223181   4.717   2.254  13.700 -0.6794  0.3779  2.6575
  564TIP3   OH223182   0.078   1.229   5.881  0.5067  0.1328 -0.4105
  564TIP3    H123183   0.115   1.182   5.955  1.7524  0.0098 -1.0741
  564TIP3    H223184   0.106   1.320   5.893 -1.1120  0.5499  0.3824
  565TIP3   OH223185   1.323   0.613   6.101 -0.1960  0.3372 -0.0214
  565TIP3    H123186   1.406   0.660   6.096  0.9829 -1.3076  2.2797
  565TIP3    H223187   1.316   0.567   6.017  1.3510  0.2941 -0.1496
  566TIP3   OH223188   6.522   4.768  14.339  0.1135  0.3442  0.4036
  566TIP3    H123189   6.583   4.838  14.362  0.9909 -0.5535  0.8909
  566TIP3    H223190   6.536   4.754  14.245  0.3611  0.4363  0.4248
  567TIP3   OH223191   3.425   0.112  17.538  0.0229 -0.4363 -1.0395
  567TIP3    H123192   3.466   0.113  17.625 -2.7580 -1.2505  0.4160
  567TIP3    H223193   3.402   0.204  17.522 -0.5330 -0.4303 -0.3028
  568TIP3   OH223194   0.321   5.969   2.004  0.0634 -0.2358 -0.1494
  568TIP3    H123195   0.370   5.948   1.924 -2.2681  3.1475 -2.7399
  568TIP3    H223196   0.336   6.062   2.017 -1.1067 -0.3279  2.4028
  569TIP3   OH223197   6.388   6.607   1.159  0.5503  0.0520  0.0326
  569TIP3    H123198   6.479   6.598   1.130  0.5404  0.6889 -0.2145
  569TIP3    H223199   6.387   6.687   1.211  0.0840  0.1864 -0.1775
  570TIP3   OH223200   1.997   4.825  17.590  0.0612  0.0601  0.3257
  570TIP3    H123201   2.038   4.751  17.635  1.2062  0.7346  0.4191
  570TIP3    H223202   1.931   4.856  17.652 -1.1503 -1.4747 -0.1131
  571TIP3   OH223203   3.340   6.091  12.864 -0.1039 -0.5934 -0.0081
  571TIP3    H123204   3.281   6.159  12.898 -1.5343 -1.3506 -0.8653
  571TIP3    H223205   3.428   6.127  12.875 -0.8028  1.2066 -0.0552
  572TIP3   OH223206   0.867   0.703   1.374 -0.2177 -0.0759  0.4506
  572TIP3    H123207   0.927   0.659   1.434  2.9954  1.2311 -1.5414
  572TIP3    H223208   0.893   0.795   1.376 -2.4329  0.6329 -0.3040
  573TIP3   OH223209   2.124   2.880  16.160  0.2921 -0.2330 -0.1235
  573TIP3    H123210   2.213   2.870  16.128  0.1909 -1.1379 -0.1493
  573TIP3    H223211   2.069   2.839  16.094  0.0594 -1.8266  1.0077
  574TIP3   OH223212   0.219   1.490   5.931  0.0205  0.1758  0.0165
  574TIP3    H123213   0.305   1.524   5.906  1.5083 -2.6089  1.0021
  574TIP3    H223214   0.233   1.449   6.016 -2.2722 -0.5013  0.1256
  575TIP3   OH223215   5.481   0.438  14.407  0.1937  0.1819 -0.4325
  575TIP3    H123216   5.436   0.477  14.332  0.8056  0.0481 -0.8806
  575TIP3    H223217   5.561   0.489  14.417 -0.0758  0.4631  0.4016
  576TIP3   OH223218   3.485   0.496  14.984  0.4608  0.1721  0.5359
  576TIP3    H123219   3.543   0.420  14.972  1.1874  0.7739  0.0794
  576TIP3    H223220   3.522   0.542  15.060 -0.2879 -0.1988  1.1325
  577TIP3   OH223221   1.539   6.636   4.110 -0.2243 -0.5839 -0.4090
  577TIP3    H123222   1.446   6.656   4.112 -0.0089  0.3829  0.6726
  577TIP3    H223223   1.547   6.563   4.047 -1.9559 -2.0773  1.0147
  578TIP3   OH223224   1.916   2.935   0.880  0.2230  0.4156 -0.2627
  578TIP3    H123225   1.939   3.028   0.875  0.1211  0.4568 -0.0015
  578TIP3    H223226   1.980   2.898   0.941 -0.6952  0.6340  0.8767
  579TIP3   OH223227   3.307   0.648  14.158 -0.4659 -0.2394 -0.2737
  579TIP3    H123228   3.376   0.587  14.134  0.4055 -0.9935  3.4474
  579TIP3    H223229   3.232   0.622  14.105  0.6194 -2.8822 -0.6799
  580TIP3   OH223230   5.507   4.490  11.121 -0.1118 -0.2846  0.2130
  580TIP3    H123231   5.563   4.540  11.062 -0.2588 -1.2203 -0.7442
  580TIP3    H223232   5.418   4.517  11.097 -0.1441  0.0454  0.6792
  581TIP3   OH223233   4.874   0.886   5.359  0.0030  0.2046 -0.4998
  581TIP3    H123234   4.960   0.845   5.353 -1.0029 -2.1241 -0.2761
  581TIP3    H223235   4.867   0.938   5.279  1.2061 -0.4442 -1.0642
  582TIP3   OH223236   3.698   2.648  14.755 -0.0291  0.5516 -0.5063
  582TIP3    H123237   3.688   2.556  14.780  2.9964  0.1053 -0.5883
  582TIP3    H223238   3.694   2.696  14.838  0.5359  0.1045 -0.2182
  583TIP3   OH223239   4.565   3.290  16.159 -0.4842  0.2076 -0.3823
  583TIP3    H123240   4.576   3.379  16.125 -0.9037  0.3927 -0.0335
  583TIP3    H223241   4.593   3.233  16.087  0.0510  0.6221 -0.5106
  584TIP3   OH223242   3.951   6.568   2.445  0.6634 -0.8273 -0.2427
  584TIP3    H123243   3.890   6.495   2.441 -0.3790  0.0108 -0.0097
  584TIP3    H223244   3.907   6.639   2.399  1.0682  0.0701  0.7173
  585TIP3   OH223245   3.721   1.229  13.190 -0.0834 -0.3286  0.6398
  585TIP3    H123246   3.635   1.269  13.182 -1.1926 -2.5142  0.8326
  585TIP3    H223247   3.778   1.300  13.220 -0.6547  2.4816 -4.0061
  586TIP3   OH223248   2.536   2.596   5.007  0.2265 -0.2330 -0.1913
  586TIP3    H123249   2.590   2.668   4.975 -1.6625  0.6614 -1.6394
  586TIP3    H223250   2.584   2.560   5.081  1.7507  1.8414 -0.0823
  587TIP3   OH223251   2.812   2.042   0.333  0.3530  0.2653 -0.6283
  587TIP3    H123252   2.734   2.043   0.276  0.5556  1.2815 -0.8997
  587TIP3    H223253   2.801   1.963   0.386 -0.8204  0.3380 -0.7304
  588TIP3   OH223254   1.199   5.401  16.819  0.6405 -0.2155  0.5740
  588TIP3    H123255   1.237   5.444  16.895  0.4720  0.1159  0.4712
  588TIP3    H223256   1.155   5.323  16.854  0.2712  0.1176  0.8596
  589TIP3   OH223257   4.807   0.476  11.482  0.0848  0.1262  0.1959
  589TIP3    H123258   4.887   0.423  11.479 -0.1622 -0.2697  0.5352
  589TIP3    H223259   4.779   0.483  11.391  0.7537  0.6449  0.0248
  590TIP3   OH223260   5.983   1.831   1.415  0.2823  0.0461 -0.2147
  590TIP3    H123261   6.012   1.799   1.500  0.9600 -1.4723 -0.9676
  590TIP3    H223262   5.901   1.876   1.432  0.6124  0.1072  1.2906
  591TIP3   OH223263   4.692   4.777   4.363  0.0687  0.2083  0.2659
  591TIP3    H123264   4.763   4.751   4.305  0.6520 -0.5785  1.2954
  591TIP3    H223265   4.643   4.696   4.379 -2.3637  1.0638 -2.0434
  592TIP3   OH223266   1.049   5.281  14.903  0.1065  0.0078  0.5371
  592TIP3    H123267   1.116   5.349  14.901  0.9777 -0.8639 -0.3328
  592TIP3    H223268   1.081   5.218  14.967  1.0075 -1.2704 -1.1083
  593TIP3   OH223269   4.197   1.453   5.331 -0.4823  0.3395 -0.2011
  593TIP3    H123270   4.216   1.487   5.419 -1.4743  1.0969 -0.2581
  593TIP3    H223271   4.169   1.530   5.282  0.3776 -0.0144 -1.2944
  594TIP3   OH223272   1.322   4.012  13.959 -0.2389  0.8180  0.8785
  594TIP3    H123273   1.388   4.059  14.011  0.8611  0.8457 -0.4775
  594TIP3    H223274   1.327   4.052  13.872  1.0564 -1.9795 -0.4779
  595TIP3   OH223275   0.609   2.049  17.453 -0.4568 -0.1999  0.0982
  595TIP3    H123276   0.643   1.975  17.503 -3.0340 -1.1241  0.6104
  595TIP3    H223277   0.528   2.017  17.413  0.0550  1.3517 -2.4669
  596TIP3   OH223278   0.303   3.458  17.477 -0.3517  0.4776  0.3841
  596TIP3    H123279   0.224   3.431  17.523 -0.8964  1.4053  0.0400
  596TIP3    H223280   0.290   3.427  17.387  0.5174 -0.9604  0.7273
  597TIP3   OH223281   2.838   5.375  11.758  0.5195  0.4253 -0.4154
  597TIP3    H123282   2.899   5.313  11.718  2.7352  2.5743 -0.6660
  597TIP3    H223283   2.770   5.388  11.692  1.9268  0.8413 -1.8596
  598TIP3   OH223284   2.668   4.353   5.752 -0.1382 -0.0161  0.1083
  598TIP3    H123285   2.626   4.439   5.762  0.0528 -0.0784  1.6552
  598TIP3    H223286   2.621   4.313   5.680 -3.0427 -0.1976  1.9199
  599TIP3   OH223287   4.040   6.544  16.822  0.2616 -0.3753  0.3751
  599TIP3    H123288   4.085   6.625  16.847 -1.6203  0.3772  1.5538
  599TIP3    H223289   4.043   6.490  16.901 -0.4557 -0.5051  0.3221
  600TIP3   OH223290   5.324   2.499  13.718  0.3822 -0.3477 -0.5518
  600TIP3    H123291   5.231   2.486  13.737  0.6901 -0.6905  0.8219
  600TIP3    H223292   5.337   2.593  13.727  0.3308 -0.3962  0.1022
  601TIP3   OH223293   5.897   0.631   0.982 -0.4647 -0.2290 -0.3641
  601TIP3    H123294   5.898   0.661   0.892 -1.1418  0.3264 -0.1971
  601TIP3    H223295   5.821   0.675   1.021 -0.1200 -0.3839  0.5001
  602TIP3   OH223296   2.385   6.447  16.441  0.4057  0.1643  0.2232
  602TIP3    H123297   2.383   6.467  16.535  1.0305  0.2237  0.2286
  602TIP3    H223298   2.300   6.407  16.423 -0.1870  1.2438  0.5704
  603TIP3   OH223299   4.230   1.757  12.419 -0.0280 -0.0593  0.3119
  603TIP3    H123300   4.251   1.756  12.513 -0.6975  1.5265  0.4999
  603TIP3    H223301   4.305   1.713  12.378  0.0982 -1.1120  1.6095
  604TIP3   OH223302   6.232   1.710  17.640  0.0860 -0.0004  0.0278
  604TIP3    H123303   6.258   1.784  17.695 -1.7255  1.5114 -1.0277
  604TIP3    H223304   6.138   1.700  17.657 -0.4948  0.4111 -2.5974
  605TIP3   OH223305   4.494   2.145   1.308 -0.7334 -0.0192 -0.2120
  605TIP3    H123306   4.573   2.098   1.282  0.0060  1.8733 -1.5320
  605TIP3    H223307   4.520   2.237   1.314 -2.9062  0.7272 -1.0863
  606TIP3   OH223308   1.962   5.279  17.501 -0.2538 -0.3818 -0.9085
  606TIP3    H123309   2.044   5.276  17.550 -1.3545  0.7993  1.1257
  606TIP3    H223310   1.941   5.188  17.483  0.0308 -0.8974  1.1601
  607TIP3   OH223311   0.986   4.879   3.768 -0.5573  0.2138  0.3419
  607TIP3    H123312   0.930   4.876   3.845 -0.3113  1.0592  0.5682
  607TIP3    H223313   0.968   4.965   3.729 -0.1635  0.0780 -0.1467
  608TIP3   OH223314   3.884   1.840  14.365  0.2065  0.2717  0.1003
  608TIP3    H123315   3.914   1.929  14.384  0.4889  0.1897  0.0433
  608TIP3    H223316   3.859   1.843  14.273 -1.1482  0.6658  0.4670
  609TIP3   OH223317   4.729   3.006  14.524 -0.0419  0.2314  0.6366
  609TIP3    H123318   4.729   3.090  14.570  1.1699 -0.7889  2.6356
  609TIP3    H223319   4.689   2.944  14.586  0.0023 -0.8774 -0.3908
  610TIP3   OH223320   4.652   5.617   0.338 -0.4004  0.3204 -0.2023
  610TIP3    H123321   4.654   5.611   0.434  0.5554  2.5701 -0.0302
  610TIP3    H223322   4.560   5.633   0.318 -0.7962 -1.2376  0.2192
  611TIP3   OH223323   3.188   2.211   0.056  0.2172  0.2087 -0.0464
  611TIP3    H123324   3.282   2.192   0.059  0.1540 -0.2506 -0.8310
  611TIP3    H223325   3.146   2.125   0.056 -0.1401  0.3584 -1.6286
  612TIP3   OH223326   6.376   3.819   5.670 -0.5168  0.5679  0.3205
  612TIP3    H123327   6.434   3.786   5.601  0.4503  2.7305  0.0358
  612TIP3    H223328   6.299   3.849   5.623 -0.8750 -0.1076  0.4581
  613TIP3   OH223329   5.939   5.501  11.173  0.3265 -0.6949  0.4938
  613TIP3    H123330   5.912   5.571  11.114  2.8868  0.6074  0.7696
  613TIP3    H223331   5.967   5.430  11.115 -1.2981 -1.1534  0.2169
  614TIP3   OH223332   1.933   0.917  13.453 -0.2875  0.8357 -0.0509
  614TIP3    H123333   1.909   0.952  13.538  0.1443  1.0529 -0.0135
  614TIP3    H223334   2.013   0.866  13.470  0.9112  2.4416 -0.6373
  615TIP3   OH223335   3.281   2.402   4.673  0.3687 -0.2800  0.0060
  615TIP3    H123336   3.363   2.406   4.624  0.5791 -1.3850  0.2413
  615TIP3    H223337   3.242   2.319   4.648 -0.4860  0.0501  0.2141
  616TIP3   OH223338   3.634   4.860  16.166  0.1903  0.0761  0.1868
  616TIP3    H123339   3.581   4.831  16.091  0.0780  1.3992 -0.2696
  616TIP3    H223340   3.625   4.790  16.230 -3.2571  0.7833  0.6870
  617TIP3   OH223341   2.341   4.895  16.342  0.4095  0.2810 -0.2724
  617TIP3    H123342   2.411   4.866  16.400  0.5191  0.4870 -0.3001
  617TIP3    H223343   2.302   4.814  16.309  0.0750  0.1578  0.4125
  618TIP3   OH223344   0.967   2.968   5.546  0.0281 -0.5693  0.3899
  618TIP3    H123345   0.986   3.060   5.527  1.3355 -0.6281  1.3070
  618TIP3    H223346   0.879   2.955   5.511  0.5385  0.5134 -1.4269
  619TIP3   OH223347   3.366   5.700  14.768 -0.1355  0.3466  0.1497
  619TIP3    H123348   3.292   5.736  14.816  0.7765 -0.9924  2.7203
  619TIP3    H223349   3.333   5.691  14.678 -3.2370 -0.5431  1.2354
  620TIP3   OH223350   5.980   1.453  15.863  0.0859 -0.4730 -0.1163
  620TIP3    H123351   6.031   1.529  15.892  0.1576 -1.1175  1.5636
  620TIP3    H223352   5.931   1.485  15.787 -1.7881  2.0262  1.9762
  621TIP3   OH223353   0.338   1.445   2.146  0.1105 -0.1602 -0.4358
  621TIP3    H123354   0.424   1.463   2.108 -0.2425  0.4962 -0.9635
  621TIP3    H223355   0.284   1.518   2.116 -0.5092 -0.3170  0.2869
  622TIP3   OH223356   3.553   5.722   4.342 -0.2041 -0.4716  0.3492
  622TIP3    H123357   3.513   5.718   4.430 -0.2159  1.5413  0.4872
  622TIP3    H223358   3.638   5.763   4.356 -0.2748  0.0292 -0.5775
  623TIP3   OH223359   4.440   3.005  15.285  0.6090 -0.0856  0.3151
  623TIP3    H123360   4.526   3.044  15.273  0.2140  0.4768 -0.8455
  623TIP3    H223361   4.381   3.080  15.295  0.3763 -0.4715  2.2795
  624TIP3   OH223362   1.641   3.522   5.008 -0.5797  0.2708 -0.1974
  624TIP3    H123363   1.564   3.510   4.952  0.0282  3.3870 -1.9543
  624TIP3    H223364   1.680   3.604   4.977  3.1853 -0.8902  0.9389
  625TIP3   OH223365   1.396   0.133  15.805 -0.0935 -0.1502 -0.1007
  625TIP3    H123366   1.315   0.084  15.798 -0.1208 -0.2690  0.8457
  625TIP3    H223367   1.447   0.109  15.728 -0.6906 -0.5691 -0.3632
  626TIP3   OH223368   4.582   5.531  12.278 -0.0548 -0.2720 -0.0828
  626TIP3    H123369   4.579   5.563  12.188 -2.2945  0.5373  0.2073
  626TIP3    H223370   4.650   5.463  12.277  0.0099 -0.2581 -2.3610
  627TIP3   OH223371   5.207   4.839  12.362 -0.0002  0.4747 -0.7124
  627TIP3    H123372   5.253   4.755  12.370 -0.2864  0.2414 -1.4185
  627TIP3    H223373   5.120   4.822  12.400  0.2660  0.7258  0.0144
  628TIP3   OH223374   0.496   3.401   3.523  0.3601  0.3552 -0.0319
  628TIP3    H123375   0.430   3.353   3.473  1.3104 -0.5025 -0.4890
  628TIP3    H223376   0.446   3.467   3.572 -0.8280 -0.2883 -0.3544
  629TIP3   OH223377   0.838   4.552   1.226  0.1304 -0.1574  0.1971
  629TIP3    H123378   0.875   4.464   1.226  1.2705  0.2940 -0.1615
  629TIP3    H223379   0.893   4.601   1.288  0.3304  0.6119 -0.5607
  630TIP3   OH223380   1.745   0.761   0.262  0.0231 -0.1259 -0.5081
  630TIP3    H123381   1.736   0.854   0.239  0.4042  0.5834  1.9154
  630TIP3    H223382   1.840   0.745   0.259  0.2908  0.5349  2.2408
  631TIP3   OH223383   2.305   1.322  11.730  0.0173  0.4196  0.2511
  631TIP3    H123384   2.387   1.293  11.771  0.8386 -1.2018 -2.2801
  631TIP3    H223385   2.309   1.417  11.734  2.6188  0.4245 -0.7741
  632TIP3   OH223386   1.785   3.456  16.696 -0.6070  0.1259  0.5767
  632TIP3    H123387   1.714   3.484  16.754 -1.4479  0.7172 -0.7017
  632TIP3    H223388   1.838   3.534  16.684 -1.8611  0.7118 -1.4415
  633TIP3   OH223389   5.314   6.230  12.898  0.3945  0.0704  0.6741
  633TIP3    H123390   5.357   6.300  12.947 -0.9495  0.6445  1.0828
  633TIP3    H223391   5.251   6.192  12.960 -0.8684  0.3579 -0.3815
  634TIP3   OH223392   3.832   5.448   2.594 -0.0988 -0.3369 -1.0642
  634TIP3    H123393   3.901   5.384   2.613  2.1805  1.8912 -1.3818
  634TIP3    H223394   3.818   5.441   2.499  0.9877  0.3994 -1.2909
  635TIP3   OH223395   0.305   5.234  15.319 -0.1542 -0.2625 -0.3615
  635TIP3    H123396   0.346   5.320  15.328 -0.6450  0.0698 -1.2473
  635TIP3    H223397   0.212   5.252  15.313 -0.3953 -0.9658  0.8200
  636TIP3   OH223398   3.194   0.732   5.201 -0.3240  0.0396 -0.1947
  636TIP3    H123399   3.141   0.756   5.277 -0.6715 -1.1856 -0.0236
  636TIP3    H223400   3.134   0.735   5.127 -0.4838 -0.6736 -0.1057
  637TIP3   OH223401   6.529   3.542  15.553  0.3560 -0.0678 -0.6681
  637TIP3    H123402   6.597   3.585  15.604 -1.0835 -0.4747  1.7287
  637TIP3    H223403   6.468   3.612  15.530  0.7142  0.0175 -1.4013
  638TIP3   OH223404   4.287   1.518  13.201  0.2137 -0.4777  0.1848
  638TIP3    H123405   4.348   1.451  13.172 -0.2303 -0.4448 -0.8718
  638TIP3    H223406   4.205   1.498  13.155 -0.6144 -0.5572  1.5981
  639TIP3   OH223407   1.224   1.804   6.068  0.3149  0.8048 -0.1751
  639TIP3    H123408   1.286   1.741   6.105  0.6150  0.1884 -1.6408
  639TIP3    H223409   1.250   1.889   6.105 -1.1642 -0.0652  3.1835
  640TIP3   OH223410   0.501   1.363   1.874 -0.2871 -0.0609  0.7552
  640TIP3    H123411   0.493   1.294   1.939 -1.6369 -0.6315  0.0360
  640TIP3    H223412   0.533   1.439   1.923  0.6761 -1.0205  1.6585
  641TIP3   OH223413   2.000   6.088  17.145 -0.7160  0.3396  0.4776
  641TIP3    H123414   2.094   6.067  17.148 -0.8869 -0.7274 -0.8435
  641TIP3    H223415   1.983   6.110  17.053 -1.4598  2.1137  0.9954
  642TIP3   OH223416   3.970   4.148   0.400 -0.5412  0.0108 -0.3268
  642TIP3    H123417   3.971   4.223   0.459 -0.5162  1.8413 -2.5474
  642TIP3    H223418   4.017   4.079   0.448  4.4231  3.0032 -0.1725
  643TIP3   OH223419   1.307   2.408   0.083  0.3786  0.4175 -0.0728
  643TIP3    H123420   1.232   2.398   0.023 -2.0490  3.1721  2.1783
  643TIP3    H223421   1.373   2.452   0.031  0.9539 -2.7379 -2.3561
  644TIP3   OH223422   2.866   1.761  11.927  0.1565 -0.5300  0.4813
  644TIP3    H123423   2.917   1.797  11.999  0.1569  0.2219  0.1155
  644TIP3    H223424   2.846   1.672  11.954  0.0857 -0.2356  1.4456
  645TIP3   OH223425   2.032   5.984   4.893  0.8128  0.2147  0.2444
  645TIP3    H123426   1.976   5.907   4.891  0.5777  0.3799  0.5154
  645TIP3    H223427   2.121   5.949   4.885  0.5861  0.0802 -2.1879
  646TIP3   OH223428   2.624   6.556  15.905 -0.5640  0.1416  1.1188
  646TIP3    H123429   2.685   6.592  15.969  1.5680  0.8703 -1.1276
  646TIP3    H223430   2.643   6.462  15.904 -1.2104 -0.0145  2.0907
  647TIP3   OH223431   3.950   6.707   1.725  0.4535  0.3977  0.3305
  647TIP3    H123432   3.902   6.626   1.742  1.5689 -0.7034 -1.4477
  647TIP3    H223433   3.903   6.748   1.651  1.0998  0.2881 -0.1508
  648TIP3   OH223434   5.363   4.941   5.453 -0.2212 -0.2648 -0.2658
  648TIP3    H123435   5.427   5.000   5.493  0.4308 -0.7350 -0.5935
  648TIP3    H223436   5.413   4.895   5.385 -0.9166 -0.6255 -0.5387
  649TIP3   OH223437   1.788   1.559   6.241  0.4250  0.2688  0.1433
  649TIP3    H123438   1.761   1.473   6.273  0.4694  0.1048 -0.2566
  649TIP3    H223439   1.845   1.594   6.309 -0.3703  0.3924  0.7550
  650TIP3   OH223440   1.793   0.400  15.240  0.0301 -0.3449 -0.4963
  650TIP3    H123441   1.705   0.437  15.240  0.5634  1.0161  0.7864
  650TIP3    H223442   1.848   0.467  15.198  1.1354  0.8126  2.5066
  651TIP3   OH223443   2.115   1.793  16.261 -0.6664 -0.3247 -0.0378
  651TIP3    H123444   2.184   1.849  16.297 -0.2779  0.1681 -1.4791
  651TIP3    H223445   2.044   1.799  16.324  0.0869  0.2856  0.7783
  652TIP3   OH223446   4.577   0.734   3.047  0.3068  0.2257  0.8010
  652TIP3    H123447   4.611   0.693   2.967  0.0142 -0.8847  1.2296
  652TIP3    H223448   4.626   0.692   3.118  1.6810  2.2789  1.1822
  653TIP3   OH223449   3.943   3.182  11.867  0.6040 -0.7019 -0.2987
  653TIP3    H123450   3.869   3.212  11.920 -1.5831 -3.8217 -1.2832
  653TIP3    H223451   4.001   3.139  11.930  2.5061  2.9702  0.7096
  654TIP3   OH223452   1.305   2.457   4.150 -0.6751  0.3831  0.0538
  654TIP3    H123453   1.390   2.501   4.153 -0.7807  0.6109 -0.2615
  654TIP3    H223454   1.274   2.459   4.240 -0.5546  0.7121  0.0898
  655TIP3   OH223455   2.324   6.229   0.828 -0.1040  0.5334 -0.4544
  655TIP3    H123456   2.324   6.302   0.765  0.9267  1.4964  0.6093
  655TIP3    H223457   2.357   6.267   0.909 -0.8532 -0.8205  0.5329
  656TIP3   OH223458   2.342   6.638  16.009  0.2484  0.3658  0.4070
  656TIP3    H123459   2.323   6.720  15.962  0.5425  0.7433  0.9334
  656TIP3    H223460   2.437   6.639  16.021  0.2586 -0.0825  0.3717
  657TIP3   OH223461   0.040   2.252  15.965 -0.1232  0.2203  0.2612
  657TIP3    H123462   0.094   2.305  15.907 -1.0534 -0.2196 -1.0506
  657TIP3    H223463   0.091   2.173  15.981  0.5367  0.7491  0.8318
  658TIP3   OH223464   1.449   4.097   3.473 -0.0666  0.0010 -0.1518
  658TIP3    H123465   1.427   4.181   3.433  0.9822  1.8129  2.7805
  658TIP3    H223466   1.542   4.105   3.496 -0.1293 -1.6715  0.8517
  659TIP3   OH223467   3.883   6.369  15.304 -0.3325 -0.0636 -0.3889
  659TIP3    H123468   3.788   6.372  15.289 -0.2398  0.4985 -0.8958
  659TIP3    H223469   3.902   6.449  15.353 -0.0199  0.1870 -0.9138
  660TIP3   OH223470   1.808   3.120  12.418 -0.4782  0.2138 -0.6112
  660TIP3    H123471   1.806   3.096  12.510 -1.1931  1.5821 -0.2316
  660TIP3    H223472   1.773   3.044  12.372 -0.0681 -0.5006  0.2331
  661TIP3   OH223473   1.218   0.906   1.671  0.5850 -0.0786 -0.0968
  661TIP3    H123474   1.286   0.907   1.739 -0.9650  0.0513  1.5385
  661TIP3    H223475   1.206   0.997   1.647 -0.2125  0.1084  0.9304
  662TIP3   OH223476   6.141   0.277   2.224  0.3542 -0.4705 -0.0412
  662TIP3    H123477   6.122   0.204   2.284  0.6006 -0.4459  0.0681
  662TIP3    H223478   6.069   0.275   2.161  0.6458 -1.1562 -0.3665
  663TIP3   OH223479   1.548   3.829  13.589 -0.2764  0.3269  0.1120
  663TIP3    H123480   1.578   3.917  13.611 -0.8679  0.6688 -0.4184
  663TIP3    H223481   1.560   3.822  13.494 -1.0714  0.1666  0.0118
  664TIP3   OH223482   0.268   5.951  12.101 -0.2163  0.8806 -0.3388
  664TIP3    H123483   0.275   5.891  12.026  0.3394  1.4243 -0.7353
  664TIP3    H223484   0.183   5.932  12.139  0.8861 -1.8266  0.9849
  665TIP3   OH223485   2.829   4.755   4.361  0.0060  0.4739 -0.0681
  665TIP3    H123486   2.858   4.839   4.326 -1.8681  0.1707 -2.5919
  665TIP3    H223487   2.863   4.691   4.299 -0.2202 -0.4807  0.7683
  666TIP3   OH223488   4.579   5.577  14.905  0.3437  0.0916 -0.1746
  666TIP3    H123489   4.614   5.665  14.916 -1.2373  0.8924 -1.2186
  666TIP3    H223490   4.559   5.570  14.812 -1.3165 -0.6710  0.1986
  667TIP3   OH223491   2.455   2.235   4.866  0.1709 -0.6952  0.0075
  667TIP3    H123492   2.392   2.193   4.807  0.3471 -0.6474 -0.2181
  667TIP3    H223493   2.506   2.163   4.902  0.3582 -0.6918 -0.2458
  668TIP3   OH223494   4.112   0.558   3.571  0.2108  0.0042 -0.0937
  668TIP3    H123495   4.031   0.521   3.607 -1.0630  2.6610 -0.0075
  668TIP3    H223496   4.085   0.597   3.488  1.6882 -0.1244 -0.6525
  669TIP3   OH223497   5.261   3.141  13.727  0.5252 -0.2845  0.2537
  669TIP3    H123498   5.329   3.158  13.791  1.3021  0.4142 -0.7209
  669TIP3    H223499   5.239   3.227  13.691 -0.0535 -0.6295 -0.2523
  670TIP3   OH223500   4.739   0.635  17.390 -0.0206  0.3882  0.0587
  670TIP3    H123501   4.712   0.621  17.480 -0.5284 -1.5106 -0.3461
  670TIP3    H223502   4.826   0.595  17.385 -0.1729  0.0986 -0.3794
  671TIP3   OH223503   4.875   5.052   5.973 -0.3838 -0.1853  0.4709
  671TIP3    H123504   4.846   4.962   5.980 -0.9642 -0.0021  0.4942
  671TIP3    H223505   4.923   5.069   6.055 -0.8633 -0.2677  0.7747
  672TIP3   OH223506   5.497   5.991  16.661  0.1855 -0.5816  0.4575
  672TIP3    H123507   5.582   5.958  16.634  0.2292  0.2931 -0.5120
  672TIP3    H223508   5.434   5.942  16.608  0.0320 -1.5294  1.4697
  673TIP3   OH223509   0.020   3.502  16.855  0.7120  0.7507  0.3657
  673TIP3    H123510  -0.000   3.544  16.939 -1.2691 -0.4781  0.5741
  673TIP3    H223511  -0.037   3.425  16.853  0.9154  0.5989 -2.0070
  674TIP3   OH223512   2.106   1.030  13.234 -0.1329 -0.7671 -0.0689
  674TIP3    H123513   2.043   1.028  13.306 -0.7979  0.7960 -0.5651
  674TIP3    H223514   2.186   1.067  13.273 -0.2350 -0.6642  0.0435
  675TIP3   OH223515   3.627   6.172   1.267 -0.1783 -0.3227 -0.2961
  675TIP3    H123516   3.553   6.230   1.250  0.2628  0.5382  0.5983
  675TIP3    H223517   3.597   6.113   1.336 -0.9496 -1.8332 -1.8553
  676TIP3   OH223518   1.164   4.032  15.150 -0.4147 -0.0028 -0.4133
  676TIP3    H123519   1.202   3.946  15.132  0.1005 -0.0236  0.6884
  676TIP3    H223520   1.088   4.014  15.205  0.3341  0.2975  0.7588
  677TIP3   OH223521   5.073   1.400  16.237 -0.0143 -0.1401  0.4271
  677TIP3    H123522   5.069   1.323  16.179  1.1055  0.8354 -1.0093
  677TIP3    H223523   5.015   1.464  16.195  0.5189  0.4510  0.5766
  678TIP3   OH223524   3.601   2.116  16.591  0.6114 -0.3524  0.6003
  678TIP3    H123525   3.646   2.130  16.674  1.4937 -0.5753  0.1779
  678TIP3    H223526   3.579   2.204  16.560  0.4424 -0.2596  0.9823
  679TIP3   OH223527   4.461   6.613   6.784 -0.5012 -0.0966  0.2812
  679TIP3    H123528   4.488   6.526   6.754 -1.9971 -1.9184  3.6552
  679TIP3    H223529   4.543   6.660   6.799  0.3313 -0.0371 -3.5319
  680TIP3   OH223530   6.732   0.381  11.796  0.2570  0.2511 -0.1171
  680TIP3    H123531   6.704   0.293  11.820 -0.6995  0.4624 -0.4051
  680TIP3    H223532   6.692   0.438  11.862  0.1920  0.5375 -0.3991
  681TIP3   OH223533   3.619   2.952   5.507 -0.1251  0.5493  0.0015
  681TIP3    H123534   3.618   3.048   5.502  1.8527  0.5684 -0.5449
  681TIP3    H223535   3.684   2.932   5.574  0.1800 -0.4346 -0.5758
  682TIP3   OH223536   4.952   4.715   2.445 -0.3171  0.1735 -0.3569
  682TIP3    H123537   5.028   4.722   2.502 -0.9647  0.2351  0.5084
  682TIP3    H223538   4.984   4.668   2.368  0.9314  1.3677 -0.6199
  683TIP3   OH223539   1.269   1.967  11.419  0.0226 -0.2661  0.0172
  683TIP3    H123540   1.348   1.937  11.375 -0.2916  0.8868 -1.4358
  683TIP3    H223541   1.215   1.889  11.427  1.3947 -1.1316  1.3068
  684TIP3   OH223542   0.491   5.001  15.274 -0.3537  0.4580 -0.3162
  684TIP3    H123543   0.528   5.041  15.195 -0.7470  0.8087 -0.3285
  684TIP3    H223544   0.416   5.056  15.295 -0.4693  0.1464  0.0913
  685TIP3   OH223545   1.605   0.371   4.034 -0.4063 -0.1852  0.2700
  685TIP3    H123546   1.552   0.306   4.081 -0.7550  0.0247  0.1783
  685TIP3    H223547   1.582   0.358   3.942 -1.0828  0.5825  0.3159
  686TIP3   OH223548   0.342   4.573  12.757  0.0165  0.1005 -0.5208
  686TIP3    H123549   0.287   4.505  12.719  0.1140  0.4096 -1.2204
  686TIP3    H223550   0.380   4.532  12.835  0.2700 -0.7232 -1.0727
  687TIP3   OH223551   0.604   0.802   1.826  0.3292  0.2174 -0.0618
  687TIP3    H123552   0.665   0.825   1.897 -0.9891  0.4450  1.0356
  687TIP3    H223553   0.643   0.841   1.748  2.1455 -0.5510  0.3820
  688TIP3   OH223554   3.102   1.684  13.326  0.6425  0.2167 -0.2414
  688TIP3    H123555   3.033   1.696  13.260  1.6025  1.4018 -1.0641
  688TIP3    H223556   3.114   1.771  13.364  0.8180 -0.2454  0.7912
  689TIP3   OH223557   4.794   0.696  14.276  0.0566 -0.2039 -0.3266
  689TIP3    H123558   4.874   0.705  14.327  0.7438 -0.0601 -1.4064
  689TIP3    H223559   4.821   0.652  14.195 -0.3919  2.3366 -1.9504
  690TIP3   OH223560   2.316   5.119   2.853  0.2290 -0.1605  0.0904
  690TIP3    H123561   2.406   5.153   2.846  0.5562 -0.7389  1.2237
  690TIP3    H223562   2.312   5.050   2.787  1.0817 -1.0621  0.9416
  691TIP3   OH223563   5.562   6.224  16.007  0.2268 -0.2241 -0.1636
  691TIP3    H123564   5.628   6.211  16.075 -0.2077  0.4585  0.4027
  691TIP3    H223565   5.554   6.319  16.000 -0.0693 -0.2973 -0.8450
  692TIP3   OH223566   2.029   3.228   2.492  0.3575 -0.0800  0.1004
  692TIP3    H123567   2.060   3.207   2.404  0.2545 -0.4528  0.1500
  692TIP3    H223568   2.078   3.169   2.550 -2.0104 -2.3797  0.0018
  693TIP3   OH223569   4.942   1.912  11.329 -0.0067 -0.1305 -0.1372
  693TIP3    H123570   4.962   1.857  11.254  2.1998 -0.5433  0.6823
  693TIP3    H223571   4.997   1.990  11.318 -1.0868  0.6879  0.0913
  694TIP3   OH223572   5.278   1.375  14.742  0.5181  0.2969 -0.2684
  694TIP3    H123573   5.373   1.368  14.748  0.6104  1.3851 -0.3440
  694TIP3    H223574   5.260   1.468  14.755 -0.5241  0.1203 -0.4061
  695TIP3   OH223575   1.275   2.818  15.763  0.4662 -0.1547 -0.3266
  695TIP3    H123576   1.213   2.788  15.829  0.0836 -1.2134 -1.1499
  695TIP3    H223577   1.347   2.756  15.767 -0.5213 -1.5519 -2.3230
  696TIP3   OH223578   4.883   2.737   3.438  0.2039 -0.5166  0.4220
  696TIP3    H123579   4.860   2.719   3.347  1.7714 -0.4382 -0.0199
  696TIP3    H223580   4.832   2.674   3.489 -1.3068 -0.0213 -0.4298
  697TIP3   OH223581   4.148   4.660  14.628  0.0740 -0.0052  0.3361
  697TIP3    H123582   4.200   4.689  14.553  0.5140  0.5154  0.8285
  697TIP3    H223583   4.073   4.720  14.630 -0.9896 -1.2377 -0.8375
  698TIP3   OH223584   1.196   5.133   0.400 -0.2338  0.1919 -0.4080
  698TIP3    H123585   1.203   5.137   0.304  0.2186  0.6399 -0.3643
  698TIP3    H223586   1.169   5.222   0.425 -0.2024  0.1181 -0.1097
  699TIP3   OH223587   2.772   6.572  16.637 -0.1424 -0.2303  0.3142
  699TIP3    H123588   2.742   6.507  16.573  0.7870 -0.0189 -0.3570
  699TIP3    H223589   2.825   6.522  16.699 -1.6302 -0.5646  1.3725
  700TIP3   OH223590   2.480   0.626  13.133  0.3917  0.4181 -0.5645
  700TIP3    H123591   2.433   0.673  13.201 -1.4753 -1.7304 -0.2569
  700TIP3    H223592   2.571   0.623  13.165 -0.8250 -3.0307  3.5425
  701TIP3   OH223593   4.405   0.191   0.695 -0.1765 -0.3310  0.0876
  701TIP3    H123594   4.360   0.189   0.610  0.4788 -3.2570 -0.2673
  701TIP3    H223595   4.438   0.281   0.701 -0.9010  0.1922 -2.3718
  702TIP3   OH223596   6.453   6.424   1.459  0.2866  0.0390  0.0586
  702TIP3    H123597   6.480   6.423   1.551  0.8531  0.8257 -0.0934
  702TIP3    H223598   6.503   6.353   1.419  2.5241  1.7197 -0.3068
  703TIP3   OH223599   3.434   3.742  11.386  0.0763 -0.4683 -0.6069
  703TIP3    H123600   3.380   3.820  11.400  2.1958  0.8651  0.5567
  703TIP3    H223601   3.510   3.773  11.337  0.5509 -1.9779 -0.8885
  704TIP3   OH223602   6.347   2.673  12.135 -0.1387  0.0672 -0.5312
  704TIP3    H123603   6.378   2.677  12.225  3.9405 -2.8884 -1.4968
  704TIP3    H223604   6.316   2.583  12.124 -1.6886  0.7120 -1.8073
  705TIP3   OH223605   0.004   4.994   5.165  0.2118 -0.1824 -0.5162
  705TIP3    H123606   0.099   4.993   5.177  0.0967 -0.4623  0.5723
  705TIP3    H223607  -0.009   4.993   5.071  1.2959  2.9266 -0.8073
  706TIP3   OH223608   6.677   2.367   0.938 -0.0753 -0.0932  0.6721
  706TIP3    H123609   6.608   2.386   0.874  0.6349 -0.6182 -0.2757
  706TIP3    H223610   6.687   2.449   0.986 -2.0460 -0.2873  1.5450
  707TIP3   OH223611   5.250   5.064  17.015  0.3541 -0.0638  0.4348
  707TIP3    H123612   5.167   5.101  17.047  0.2722 -0.2577  0.4495
  707TIP3    H223613   5.302   5.140  16.990  0.2946  0.0768  0.7309
  708TIP3   OH223614   1.568   4.588   0.709 -0.2590  0.0193  0.2059
  708TIP3    H123615   1.620   4.523   0.756 -0.1953  0.2824  0.5029
  708TIP3    H223616   1.580   4.567   0.616  1.1222  0.6383  0.2222
  709TIP3   OH223617   4.833   2.781   3.729  0.1254 -0.1818  0.4881
  709TIP3    H123618   4.899   2.835   3.685  1.0658 -1.0041  0.8501
  709TIP3    H223619   4.836   2.698   3.682 -0.8722 -0.1366  0.3284
  710TIP3   OH223620   2.992   3.796   1.494 -0.1830 -0.1728  0.0764
  710TIP3    H123621   3.005   3.869   1.433  2.7858  0.5880  1.4372
  710TIP3    H223622   2.955   3.837   1.572 -0.8305 -0.5798 -0.0093
  711TIP3   OH223623   5.594   1.795  11.870  0.9777 -0.0237  0.5495
  711TIP3    H123624   5.584   1.747  11.788  0.2154  0.3943  0.3855
  711TIP3    H223625   5.565   1.734  11.938  1.0848 -0.1798  0.4561
  712TIP3   OH223626   6.275   6.635  12.675 -0.5159 -0.3316 -0.5046
  712TIP3    H123627   6.194   6.588  12.695 -0.0834 -1.8999 -2.1291
  712TIP3    H223628   6.342   6.566  12.670  0.7737  0.8339  0.0046
  713TIP3   OH223629   3.321   2.339  16.559  0.1650  0.1693 -0.7637
  713TIP3    H123630   3.318   2.422  16.606 -1.1090  0.8470 -1.9705
  713TIP3    H223631   3.376   2.357  16.482  1.9219 -0.8194  0.1954
  714TIP3   OH223632   3.189   2.232   2.478  0.3556  0.1577  0.6846
  714TIP3    H123633   3.180   2.190   2.564  0.6939  0.2495  0.7670
  714TIP3    H223634   3.204   2.160   2.417  0.2919  0.1069  0.7286
  715TIP3   OH223635   1.211   2.378  16.491 -0.1908 -0.5556  0.3727
  715TIP3    H123636   1.179   2.300  16.445  0.2072 -0.6909  0.3224
  715TIP3    H223637   1.202   2.449  16.427 -2.4173 -0.1498  1.0504
  716TIP3   OH223638   4.565   1.618  16.943  0.3658  0.4019  0.4634
  716TIP3    H123639   4.487   1.674  16.948 -0.8196 -0.6402 -3.0231
  716TIP3    H223640   4.536   1.533  16.978  0.5510  0.5285  0.9311
  717TIP3   OH223641   6.646   0.508   0.015 -0.9329 -0.1153  0.4460
  717TIP3    H123642   6.629   0.460   0.097 -0.8482  0.4303  0.7919
  717TIP3    H223643   6.598   0.460  -0.052 -0.5985 -0.8575  0.7294
  718TIP3   OH223644   6.145   2.257  17.047 -0.1670  0.7923  0.2963
  718TIP3    H123645   6.193   2.255  17.129 -0.8564  2.2363  0.7590
  718TIP3    H223646   6.133   2.350  17.028 -2.0097  0.4851 -0.2462
  719TIP3   OH223647   0.973   2.634   2.991  0.2159 -0.2867  0.9207
  719TIP3    H123648   1.066   2.639   2.971  0.2053  1.0629  1.0649
  719TIP3    H223649   0.951   2.723   3.021 -1.0010 -0.7191  1.3601
  720TIP3   OH223650   6.614   4.845   0.958  0.0292  0.2989 -0.6772
  720TIP3    H123651   6.591   4.803   1.041  0.3630  1.9174  0.2713
  720TIP3    H223652   6.663   4.778   0.910  0.3244 -0.4809  0.6622
  721TIP3   OH223653   1.950   4.728   6.424  0.4099  0.0806  0.2368
  721TIP3    H123654   1.927   4.638   6.448  1.5030 -0.3049 -0.0904
  721TIP3    H223655   1.972   4.770   6.507  2.7998 -0.8413  0.1553
  722TIP3   OH223656   1.699   4.397   3.674  0.0047 -0.1538  0.0881
  722TIP3    H123657   1.784   4.395   3.631 -0.8523 -1.6524 -1.6444
  722TIP3    H223658   1.686   4.307   3.706 -0.6220  0.2336  0.9674
  723TIP3   OH223659   3.037   6.371   4.841 -0.2850  0.2850 -0.0467
  723TIP3    H123660   3.031   6.311   4.915  0.3324 -0.5299 -0.6308
  723TIP3    H223661   3.127   6.361   4.810 -1.0502 -0.9154 -2.1286
  724TIP3   OH223662   5.832   5.343   4.525  0.0983 -0.6128  0.1151
  724TIP3    H123663   5.751   5.304   4.558  0.7093  0.6453  3.4728
  724TIP3    H223664   5.803   5.409   4.462 -1.3566 -1.2304  0.0985
  725TIP3   OH223665   1.011   0.191  13.192  0.0177 -0.0036  0.4855
  725TIP3    H123666   0.922   0.173  13.224  0.0682 -2.1591 -0.3817
  725TIP3    H223667   1.006   0.175  13.098  1.7865 -2.4368  0.7187
  726TIP3   OH223668   5.356   2.811  11.630  0.5185  0.0893 -0.3825
  726TIP3    H123669   5.329   2.868  11.559 -1.7033  0.7504  0.9018
  726TIP3    H223670   5.395   2.870  11.695  3.6360 -0.6383 -1.4353
  727TIP3   OH223671   0.933   6.538   1.163 -0.4690  0.0809 -0.1289
  727TIP3    H123672   0.988   6.460   1.163 -1.1248 -0.4366 -2.2839
  727TIP3    H223673   0.847   6.506   1.193 -1.1393 -0.4047 -2.3994
  728TIP3   OH223674   4.429   0.259   3.743 -0.2161  0.4931 -0.8850
  728TIP3    H123675   4.370   0.265   3.668  1.3403 -2.7106 -2.5594
  728TIP3    H223676   4.500   0.319   3.722  0.8370 -1.2822 -2.7354
  729TIP3   OH223677   4.090   6.542   5.690  0.4728 -0.5690  0.6796
  729TIP3    H123678   4.030   6.476   5.656  0.2198  0.0033  0.0055
  729TIP3    H223679   4.033   6.612   5.723  0.7389 -0.6482  1.3345
  730TIP3   OH223680   1.577   6.144   0.967 -0.0264  0.2329 -0.3576
  730TIP3    H123681   1.577   6.181   1.055  3.8064  0.3653 -0.2455
  730TIP3    H223682   1.510   6.075   0.970 -0.7781  0.9626  2.2664
  731TIP3   OH223683   3.509   2.343  11.679  0.1732  0.3146  0.1462
  731TIP3    H123684   3.428   2.340  11.628  0.0319 -0.4968  0.4082
  731TIP3    H223685   3.488   2.295  11.760  1.2493 -0.9178 -0.2764
  732TIP3   OH223686   5.689   1.620  13.193  0.1033 -0.2747 -0.4473
  732TIP3    H123687   5.642   1.558  13.137  0.0421  0.3476 -1.1006
  732TIP3    H223688   5.691   1.578  13.279  0.5619 -1.4376 -1.0074
  733TIP3   OH223689   6.448   2.326  13.576 -0.1859  0.3153  0.1387
  733TIP3    H123690   6.411   2.409  13.547  0.4921  0.9213  0.9527
  733TIP3    H223691   6.398   2.259  13.528 -2.2982  1.0752  1.1428
  734TIP3   OH223692   1.700   0.771  12.170  0.1287  0.1555 -0.5316
  734TIP3    H123693   1.692   0.857  12.212 -1.1895  0.7856 -1.9682
  734TIP3    H223694   1.770   0.727  12.218 -1.6105  0.5810  2.6535
  735TIP3   OH223695   4.998   3.152  14.589  0.2634  0.0560  0.0257
  735TIP3    H123696   5.021   3.245  14.579  2.6341 -0.4317  0.2583
  735TIP3    H223697   4.913   3.144  14.547  1.0114  1.8966 -2.0681
  736TIP3   OH223698   4.958   2.706  11.787 -0.4189  0.0692  0.1211
  736TIP3    H123699   4.964   2.651  11.709  0.1584  0.1537  0.1009
  736TIP3    H223700   4.951   2.644  11.860  0.5086 -0.0402  0.1219
  737TIP3   OH223701   1.947   1.265  17.573 -0.0791 -0.2064  0.6403
  737TIP3    H123702   1.859   1.273  17.538  0.6525 -1.5727 -1.7571
  737TIP3    H223703   1.945   1.183  17.624  0.3668 -1.7356 -1.6376
  738TIP3   OH223704   0.343   5.400   0.667 -0.1815  0.0464 -0.1285
  738TIP3    H123705   0.262   5.406   0.616 -0.2086  0.4504 -0.0446
  738TIP3    H223706   0.364   5.491   0.688 -0.4477 -0.1427  1.0115
  739TIP3   OH223707   0.432   1.780   6.168 -0.0200 -0.2269  0.4130
  739TIP3    H123708   0.453   1.873   6.155  1.9861 -0.5900  0.6504
  739TIP3    H223709   0.337   1.776   6.164 -0.1095  1.6787 -0.7078
  740TIP3   OH223710   5.450   1.081  13.540 -0.5956  0.6291 -0.1431
  740TIP3    H123711   5.480   1.019  13.607  0.2095  1.5140  0.3368
  740TIP3    H223712   5.357   1.064  13.531 -0.6459  0.2666  0.9665
  741TIP3   OH223713   4.131   3.354  17.215 -0.1435  0.0386  0.1854
  741TIP3    H123714   4.184   3.303  17.154  0.1981 -0.6641  1.0407
  741TIP3    H223715   4.087   3.288  17.268  1.1070  0.5845  2.0023
  742TIP3   OH223716   3.313   0.274  15.932 -0.0964 -0.0666  0.1595
  742TIP3    H123717   3.336   0.196  15.982  0.5915 -2.1698 -3.1480
  742TIP3    H223718   3.232   0.251  15.887 -0.0476  1.2484 -0.6785
  743TIP3   OH223719   3.417   5.215   3.948  0.0347  0.1957  0.0536
  743TIP3    H123720   3.426   5.310   3.954 -0.0881  0.1196  2.7804
  743TIP3    H223721   3.332   5.201   3.906  0.1231  1.2690 -0.5036
  744TIP3   OH223722   0.350   3.336   5.616  0.8178 -0.1160 -0.0388
  744TIP3    H123723   0.384   3.304   5.532  1.3262  1.0656 -0.3102
  744TIP3    H223724   0.312   3.259   5.658 -0.0137 -0.6070 -1.6252
  745TIP3   OH223725   3.801   3.492   0.107 -0.1800  0.3295  0.5183
  745TIP3    H123726   3.744   3.538   0.045 -1.6551 -0.0380  1.5499
  745TIP3    H223727   3.840   3.562   0.159 -2.1054  0.5115  1.8139
  746TIP3   OH223728   2.699   2.175  15.199  0.2383  0.6325 -0.2976
  746TIP3    H123729   2.667   2.123  15.273  1.3943 -0.1880 -0.3626
  746TIP3    H223730   2.729   2.257  15.239 -2.0520  1.5384 -0.2534
  747TIP3   OH223731   6.356   5.650  14.609 -0.0505 -0.1783  0.2052
  747TIP3    H123732   6.425   5.713  14.633  0.2500 -0.6300  0.5227
  747TIP3    H223733   6.277   5.686  14.648  0.3539 -0.6884  1.5549
  748TIP3   OH223734   3.136   2.448  17.566  0.0035 -0.1280 -0.4123
  748TIP3    H123735   3.187   2.522  17.599  1.4644  0.1938 -3.1004
  748TIP3    H223736   3.146   2.380  17.632  0.9936  1.1379  0.7891
  749TIP3   OH223737   0.645   0.458  12.734  0.6813 -0.3746 -0.8108
  749TIP3    H123738   0.590   0.465  12.655  1.5297 -1.3939 -1.5138
  749TIP3    H223739   0.624   0.372  12.770  0.3063  0.0803  0.0998
  750TIP3   OH223740   0.609   5.612  16.115  0.1793  0.4185 -0.4446
  750TIP3    H123741   0.668   5.559  16.168 -1.0901 -0.7645 -0.1490
  750TIP3    H223742   0.524   5.569  16.124 -0.4435  1.2417 -1.9824
  751TIP3   OH223743   6.305   0.424  13.993 -0.4134  0.2288  0.2702
  751TIP3    H123744   6.230   0.451  13.940  1.0507  0.2521 -1.9164
  751TIP3    H223745   6.274   0.347  14.041 -1.6867 -0.0805 -0.9876
  752TIP3   OH223746   4.187   6.070   3.791 -0.1582 -0.2666  0.3927
  752TIP3    H123747   4.167   6.067   3.884  1.2357 -0.1523  0.7132
  752TIP3    H223748   4.113   6.116   3.752  0.7186  2.6514  1.8999
  753TIP3   OH223749   0.811   6.473  14.337 -0.5282 -0.0550 -0.0389
  753TIP3    H123750   0.730   6.424  14.325 -1.1972  1.3424 -1.5744
  753TIP3    H223751   0.790   6.562  14.309  1.3587  0.5103  0.2002
  754TIP3   OH223752   3.041   6.623   2.604  0.1723 -0.0573  0.3543
  754TIP3    H123753   3.006   6.543   2.643 -0.4452  0.6096  1.2253
  754TIP3    H223754   3.134   6.621   2.624 -0.1073  0.2039  1.8056
  755TIP3   OH223755   1.254   5.742  11.417 -0.5537 -0.2117 -0.4080
  755TIP3    H123756   1.188   5.735  11.486 -3.4207 -1.0486 -3.0152
  755TIP3    H223757   1.275   5.652  11.394  1.3171  0.0434  0.1141
  756TIP3   OH223758   5.303   5.697   5.595 -0.1524 -0.3335  0.4561
  756TIP3    H123759   5.297   5.602   5.603  0.1726 -0.3800  0.1799
  756TIP3    H223760   5.394   5.713   5.569 -0.0311  0.0951  1.1192
  757TIP3   OH223761   5.435   3.775   3.963 -0.2773  0.3430  0.1169
  757TIP3    H123762   5.521   3.737   3.982 -0.4446  0.3625  0.9266
  757TIP3    H223763   5.394   3.788   4.048 -2.7062 -3.3571 -0.2194
  758TIP3   OH223764   2.357   3.104   5.652 -0.2007  0.2490  0.3291
  758TIP3    H123765   2.425   3.166   5.677 -0.6761  1.9481 -2.3348
  758TIP3    H223766   2.305   3.093   5.732  1.1680  1.5494  1.4605
  759TIP3   OH223767   1.696   6.543   1.092  0.5759  0.0643  0.6556
  759TIP3    H123768   1.677   6.541   1.186  2.2103  0.8322  1.0335
  759TIP3    H223769   1.692   6.636   1.069  0.4351 -0.1008  0.0033
  760TIP3   OH223770   4.378   0.807  17.632 -0.5530  0.0816 -0.1920
  760TIP3    H123771   4.457   0.767  17.595  2.3393  3.3912  1.7429
  760TIP3    H223772   4.373   0.772  17.721 -0.4421  0.8822  0.1353
  761TIP3   OH223773   0.133   6.184  16.355  0.1125  0.0513  0.1116
  761TIP3    H123774   0.153   6.198  16.447 -2.6600 -1.0091  0.9855
  761TIP3    H223775   0.164   6.095  16.337 -0.4360 -0.1917  0.3705
  762TIP3   OH223776   3.301   6.499   2.560  0.4493 -0.3676 -0.4034
  762TIP3    H123777   3.229   6.457   2.513 -0.3892 -0.4486  0.9203
  762TIP3    H223778   3.367   6.430   2.568 -0.7551 -1.3913  1.4004
  763TIP3   OH223779   1.543   3.199  14.059 -1.2131  0.3076 -0.3073
  763TIP3    H123780   1.485   3.147  14.003 -1.5835  1.2331 -0.7913
  763TIP3    H223781   1.565   3.276  14.006  0.6614 -0.1308 -0.2542
  764TIP3   OH223782   4.058   1.680   0.181 -0.3452 -0.0720  0.6835
  764TIP3    H123783   4.106   1.601   0.204 -1.3216 -0.5719  1.0731
  764TIP3    H223784   3.999   1.653   0.111 -0.0806  0.5324  0.2085
  765TIP3   OH223785   5.439   6.185  17.599  0.6304  0.0792 -0.0555
  765TIP3    H123786   5.467   6.109  17.650  0.5450  0.7359  0.9900
  765TIP3    H223787   5.439   6.154  17.508  0.1977 -1.2886  0.3923
  766TIP3   OH223788   5.825   6.710  13.860 -0.6274  0.0506 -0.3680
  766TIP3    H123789   5.804   6.799  13.887 -0.8107  0.1522 -0.8343
  766TIP3    H223790   5.856   6.719  13.770  0.2527 -0.2506 -0.1018
  767TIP3   OH223791   5.608   0.077  12.970  0.3319 -0.3460  0.0047
  767TIP3    H123792   5.611   0.111  13.059  0.4394 -2.5054  0.8919
  767TIP3    H223793   5.639  -0.013  12.978 -1.9087 -1.3845 -1.8119
  768TIP3   OH223794   3.840   1.453  17.036 -0.3280  0.4426  0.4202
  768TIP3    H123795   3.916   1.510  17.021 -0.2278  0.4380  0.9031
  768TIP3    H223796   3.849   1.424  17.126  0.8345 -2.1255 -0.4088
  769TIP3   OH223797   2.315   2.697   6.011  0.2683 -0.1743  0.6046
  769TIP3    H123798   2.279   2.659   6.091  0.1522 -2.8154 -0.5913
  769TIP3    H223799   2.238   2.718   5.958  0.3699  0.8294  0.8267
  770TIP3   OH223800   1.515   6.573   4.685 -0.1159 -0.0409  0.2288
  770TIP3    H123801   1.517   6.606   4.775  0.6020  1.1871 -0.2112
  770TIP3    H223802   1.577   6.499   4.686  0.2661  0.2754  0.6384
  771TIP3   OH223803   0.288   3.291  12.911 -0.5065  0.2704  0.3252
  771TIP3    H123804   0.240   3.316  12.990  1.4578  0.8066  1.4137
  771TIP3    H223805   0.296   3.196  12.916 -0.0559  0.3360  1.0044
  772TIP3   OH223806   6.312   1.974  17.464 -0.8538  0.3348 -0.0440
  772TIP3    H123807   6.357   1.902  17.420 -0.8946  1.1743 -1.4802
  772TIP3    H223808   6.369   1.997  17.538 -0.0805 -0.1281 -0.4885
  773TIP3   OH223809   1.795   2.921  15.481 -0.8562 -0.1834 -0.3518
  773TIP3    H123810   1.719   2.866  15.495 -0.3458 -1.0854 -0.9838
  773TIP3    H223811   1.783   2.996  15.540 -1.2636 -1.2766  0.9822
  774TIP3   OH223812   5.568   5.222   6.977 -0.0198 -0.2272  0.3553
  774TIP3    H123813   5.629   5.151   6.996  0.4403  0.4019  1.3179
  774TIP3    H223814   5.601   5.262   6.898  0.7085 -0.0151  0.7599
  775TIP3   OH223815   2.946   6.729   0.307 -0.3605  0.2123 -0.0413
  775TIP3    H123816   2.856   6.728   0.275 -1.0399  1.2272  1.7183
  775TIP3    H223817   2.955   6.812   0.352  0.5739 -0.9958  2.1748
  776TIP3   OH223818   0.355   2.991  11.753  0.2355 -0.7055  0.3464
  776TIP3    H123819   0.400   3.075  11.746 -1.6890  0.2652 -1.5630
  776TIP3    H223820   0.424   2.925  11.750  1.7561  0.7686  1.5381
  777TIP3   OH223821   0.147   4.460   4.276 -0.5774 -0.5339  0.4862
  777TIP3    H123822   0.206   4.467   4.200 -2.0468 -0.2231 -0.6612
  777TIP3    H223823   0.138   4.366   4.290  0.7059 -0.5861  1.1157
  778TIP3   OH223824   6.397   0.110   1.909  0.2177 -0.1752  0.4103
  778TIP3    H123825   6.305   0.130   1.921  0.2330  1.9511 -2.0449
  778TIP3    H223826   6.402   0.069   1.822  1.5537 -0.4820  0.6038
  779TIP3   OH223827   5.769   4.733   3.192  0.0523 -0.3446 -0.2178
  779TIP3    H123828   5.694   4.712   3.247  0.5238 -0.1648  0.5083
  779TIP3    H223829   5.731   4.753   3.106 -0.7934  0.3689  0.2991
  780TIP3   OH223830   4.932   5.687  11.860 -0.3197 -0.5128  0.0365
  780TIP3    H123831   4.845   5.723  11.841 -0.6918 -1.3491  0.1164
  780TIP3    H223832   4.929   5.668  11.954  0.4196  0.6726  0.3271
  781TIP3   OH223833   3.605   5.896  14.227 -0.1906 -0.1475 -0.1850
  781TIP3    H123834   3.517   5.916  14.195 -0.1688 -0.4799 -0.4630
  781TIP3    H223835   3.607   5.930  14.316  0.4066  2.7054 -1.1488
  782TIP3   OH223836   3.021   1.009  16.242 -0.3480 -0.0022 -1.1627
  782TIP3    H123837   2.951   0.947  16.223 -0.0293 -0.1306 -1.9607
  782TIP3    H223838   3.038   1.052  16.159 -0.0855  0.6608 -0.7733
  783TIP3   OH223839   1.646   3.272  12.775 -0.0462 -0.3545  0.7521
  783TIP3    H123840   1.727   3.316  12.800 -0.6522 -0.8027  3.8771
  783TIP3    H223841   1.588   3.284  12.849 -2.0721 -1.9933 -0.4558
  784TIP3   OH223842   5.601   2.012   3.951  0.0356 -0.0744  0.1377
  784TIP3    H123843   5.598   2.105   3.973 -2.8427  0.3784 -1.5786
  784TIP3    H223844   5.606   1.967   4.036 -0.9621  1.6282  1.1565
  785TIP3   OH223845   3.792   6.309   6.267  0.4524  0.1591  0.3512
  785TIP3    H123846   3.709   6.267   6.244  0.8129  0.0714 -0.8626
  785TIP3    H223847   3.767   6.386   6.318 -0.4068  0.4246 -0.4421
  786TIP3   OH223848   3.696   4.495  12.456 -0.4073  0.4193 -0.4982
  786TIP3    H123849   3.651   4.562  12.508  0.5833  0.9797 -0.3557
  786TIP3    H223850   3.632   4.424  12.450  0.3502 -0.8593  3.7821
  787TIP3   OH223851   6.161   3.818  12.622  0.2904 -0.7719 -0.3234
  787TIP3    H123852   6.096   3.782  12.561 -0.8215 -0.8785  0.8724
  787TIP3    H223853   6.221   3.745  12.639 -0.0401 -1.0740 -0.4313
  788TIP3   OH223854   1.053   3.951  13.320  0.2015  0.3602 -0.4441
  788TIP3    H123855   0.962   3.928  13.305  0.4911 -1.2620  0.0660
  788TIP3    H223856   1.050   4.039  13.357 -1.2763 -0.2376  0.9834
  789TIP3   OH223857   4.339   6.092  11.763 -0.1897  0.1280 -0.7003
  789TIP3    H123858   4.285   6.102  11.685  0.6590  2.5561 -1.0686
  789TIP3    H223859   4.401   6.023  11.740 -2.7507 -2.4563 -0.4003
  790TIP3   OH223860   1.782   0.483  13.257  0.0783  0.1641  0.2263
  790TIP3    H123861   1.732   0.565  13.267  1.0692  0.8399 -0.1985
  790TIP3    H223862   1.808   0.461  13.347  0.3421  0.6582  0.2737
  791TIP3   OH223863   1.204   1.967   0.972  0.3627  0.0085  0.2192
  791TIP3    H123864   1.194   2.021   0.893  0.8709  0.3284  0.3685
  791TIP3    H223865   1.273   2.011   1.022 -1.3200  0.9526  1.8122
  792TIP3   OH223866   4.615   0.311   3.271  0.0857 -0.2074 -0.6060
  792TIP3    H123867   4.633   0.220   3.247 -1.3957 -0.6136 -0.2480
  792TIP3    H223868   4.524   0.326   3.246 -0.3705  0.5101  1.2679
  793TIP3   OH223869   2.380   1.723  10.929  0.6289  0.4375  0.4823
  793TIP3    H123870   2.410   1.799  10.979  0.1742 -0.0114  1.4824
  793TIP3    H223871   2.455   1.699  10.875  0.7971  1.5492  0.1989
  794TIP3   OH223872   3.034   3.460  16.994  0.1902 -0.4024 -0.2645
  794TIP3    H123873   3.011   3.505  17.075 -2.6307  0.2221 -1.2879
  794TIP3    H223874   3.047   3.369  17.020  0.7678  0.0467  1.0876
  795TIP3   OH223875   4.987   0.017  14.374  0.4625  1.0646  0.1805
  795TIP3    H123876   5.036   0.098  14.373  1.0119  0.7429 -1.1742
  795TIP3    H223877   4.922   0.029  14.444 -1.4607  3.8784 -1.8573
  796TIP3   OH223878   5.549   6.220  13.200 -0.0159  0.9634  0.0862
  796TIP3    H123879   5.605   6.212  13.278  0.8238 -1.1363 -0.6560
  796TIP3    H223880   5.519   6.131  13.183 -0.2560  1.3866 -1.9382
  797TIP3   OH223881   1.696   1.726  17.079  0.4973  0.4968 -0.5844
  797TIP3    H123882   1.654   1.794  17.131  0.8880  0.7208 -0.5589
  797TIP3    H223883   1.663   1.740  16.990 -1.5002 -0.9338 -0.1285
  798TIP3   OH223884   1.800   4.506   2.809 -0.2357  0.4187 -0.3484
  798TIP3    H123885   1.712   4.524   2.844 -0.2633  0.6026 -0.5127
  798TIP3    H223886   1.793   4.524   2.716  0.5863  2.8210 -0.0330
  799TIP3   OH223887   4.199   6.460   5.432  0.2419 -0.3024 -0.4262
  799TIP3    H123888   4.149   6.535   5.466  0.2114  0.1962 -1.5305
  799TIP3    H223889   4.131   6.397   5.405  0.1077  0.7746 -2.8371
  800TIP3   OH223890   5.470   4.120  11.314 -0.7232  0.1106  0.3410
  800TIP3    H123891   5.424   4.179  11.372 -1.8771  1.9619 -2.2666
  800TIP3    H223892   5.461   4.159  11.227  1.6542 -1.9997 -1.0150
  801TIP3   OH223893   3.860   1.205  15.420  0.0546  0.6294  0.1920
  801TIP3    H123894   3.858   1.213  15.516 -1.5265  0.5561  0.1977
  801TIP3    H223895   3.777   1.163  15.398  0.1357  1.1776 -1.2568
  802TIP3   OH223896   2.408   5.499  15.470 -0.1226 -0.4084 -0.1950
  802TIP3    H123897   2.482   5.544  15.427 -0.5825 -1.4933 -2.2592
  802TIP3    H223898   2.444   5.469  15.553  0.9575  1.4211  0.0709
  803TIP3   OH223899   0.618   1.208  14.475  0.3158 -0.6394  0.2485
  803TIP3    H123900   0.668   1.157  14.411  1.5233  0.9127 -0.0883
  803TIP3    H223901   0.530   1.170  14.473  1.5450 -3.8970  1.3061
  804TIP3   OH223902   2.916   3.076  16.034 -0.0008  0.0699  0.0815
  804TIP3    H123903   2.940   3.096  15.943 -0.3613 -2.1002 -0.5446
  804TIP3    H223904   2.830   3.116  16.045  0.5802  1.4406 -0.0798
  805TIP3   OH223905   0.705   4.196   4.803 -0.2535  0.1766  0.4817
  805TIP3    H123906   0.619   4.211   4.842  0.8076  1.8007  2.3241
  805TIP3    H223907   0.696   4.229   4.713 -1.7813 -0.5478  0.3243
  806TIP3   OH223908   5.640   2.290  14.981 -0.2809 -0.0988  0.0082
  806TIP3    H123909   5.653   2.385  14.988  1.1655 -0.2120 -0.9800
  806TIP3    H223910   5.545   2.280  14.973 -0.3834  1.3323 -0.8493
  807TIP3   OH223911   0.011   4.177   1.337  0.2260 -0.1049  0.3270
  807TIP3    H123912   0.000   4.169   1.432 -0.5038 -1.3674  0.1646
  807TIP3    H223913   0.100   4.210   1.325  0.7941 -1.1666  1.4261
  808TIP3   OH223914   2.923   2.427   6.040  0.3671  0.3539 -0.8061
  808TIP3    H123915   2.862   2.424   6.114 -0.5136  0.2577 -1.5241
  808TIP3    H223916   3.001   2.381   6.072  0.3222  1.0117  0.3334
  809TIP3   OH223917   2.898   0.558  13.757  0.3627 -0.5847 -0.4632
  809TIP3    H123918   2.856   0.474  13.736 -0.1744  0.0614 -2.0809
  809TIP3    H223919   2.948   0.580  13.679  0.7626  0.4609  0.0731
  810TIP3   OH223920   1.095   6.138  14.404  0.2181 -0.0379 -0.1606
  810TIP3    H123921   1.146   6.208  14.363 -0.8113  0.8225 -0.0161
  810TIP3    H223922   1.126   6.136  14.495  1.2916 -0.7892 -0.5280
  811TIP3   OH223923   1.012   4.921   3.400 -0.2210  0.3294  0.0096
  811TIP3    H123924   1.076   4.920   3.328 -0.8014  1.6002 -0.5566
  811TIP3    H223925   1.042   4.852   3.459  1.4116  0.5779 -0.4680
  812TIP3   OH223926   1.122   1.302  14.043 -0.0285 -0.6396 -0.5022
  812TIP3    H123927   1.211   1.329  14.021 -0.0645 -0.7868 -0.8396
  812TIP3    H223928   1.076   1.303  13.959  0.0956 -2.2142 -0.6141
  813TIP3   OH223929   1.016   1.700   6.680 -0.3833  0.0374 -0.0643
  813TIP3    H123930   1.037   1.638   6.750 -0.3486 -0.8211 -0.8105
  813TIP3    H223931   1.096   1.752   6.669 -0.4937  0.3905  0.7341
  814TIP3   OH223932   3.747   4.315  16.112 -0.1230  0.6574  0.5008
  814TIP3    H123933   3.745   4.242  16.050 -1.6801  1.6738 -0.7405
  814TIP3    H223934   3.657   4.320  16.145  0.3758  0.9737  1.8661
  815TIP3   OH223935   4.879   3.089   0.634 -0.4263  0.2339 -0.1741
  815TIP3    H123936   4.856   3.119   0.546  1.0857 -2.2394 -1.5006
  815TIP3    H223937   4.969   3.118   0.646 -0.6214  0.5424  0.5763
  816TIP3   OH223938   4.125   2.821   3.398  0.5389 -0.6639 -0.0585
  816TIP3    H123939   4.093   2.891   3.454  2.6436 -0.0182  0.4270
  816TIP3    H223940   4.214   2.847   3.376  0.7788 -2.3663 -1.2864
  817TIP3   OH223941   2.987   3.504  16.036 -0.1063 -0.4015  0.1592
  817TIP3    H123942   2.973   3.593  16.069  1.8348 -0.3296  0.9059
  817TIP3    H223943   3.061   3.512  15.976 -1.8413 -1.0345 -2.1793
  818TIP3   OH223944   6.116   3.411   0.830 -0.3279  0.6659 -0.0238
  818TIP3    H123945   6.088   3.473   0.763 -1.0013 -1.2705 -1.6200
  818TIP3    H223946   6.196   3.373   0.795  0.1414  0.6865  0.9930
  819TIP3   OH223947   2.534   3.165  15.225 -0.1680 -0.4874  0.4475
  819TIP3    H123948   2.565   3.255  15.220 -2.2397  0.2284 -1.0041
  819TIP3    H223949   2.595   3.115  15.170  0.1380  0.3207  0.0367
  820TIP3   OH223950   5.022   4.981   1.875 -0.2749  0.1945  0.3414
  820TIP3    H123951   4.944   5.024   1.911 -0.1209 -1.3852  2.8581
  820TIP3    H223952   5.003   4.968   1.783 -3.4065 -0.8833  1.0258
  821TIP3   OH223953   0.913   1.477  13.626  0.4965  0.5682 -0.5926
  821TIP3    H123954   0.937   1.385  13.624 -0.2544  0.3342  0.2748
  821TIP3    H223955   0.980   1.521  13.574  1.1078 -0.4064 -0.6467
  822TIP3   OH223956   0.231   5.415   3.067 -0.4634  0.1434  0.0373
  822TIP3    H123957   0.270   5.384   2.985 -0.8231 -0.7413  0.1985
  822TIP3    H223958   0.167   5.348   3.090  0.7925 -0.4683  1.9278
  823TIP3   OH223959   1.052   3.277  14.230  0.2515 -0.1322  0.2408
  823TIP3    H123960   1.123   3.281  14.166  0.4972 -1.8326  0.3816
  823TIP3    H223961   1.093   3.303  14.313  0.8307 -1.4472  0.3935
  824TIP3   OH223962   0.521   0.823  14.365 -0.0229 -1.3373 -0.1906
  824TIP3    H123963   0.601   0.874  14.361  0.8213 -2.5321  0.7009
  824TIP3    H223964   0.531   0.757  14.296 -0.9540 -0.5410 -1.1150
  825TIP3   OH223965   2.627   6.034   2.505 -0.8001  0.3826  0.1408
  825TIP3    H123966   2.647   5.992   2.421 -1.6307 -1.6651  0.9060
  825TIP3    H223967   2.680   6.114   2.505 -2.3200  1.5642 -3.1793
  826TIP3   OH223968   3.593   0.818   2.415 -0.6512  0.1127 -0.1892
  826TIP3    H123969   3.600   0.734   2.370 -2.2475  0.0255 -0.3108
  826TIP3    H223970   3.573   0.881   2.346  0.1077  0.5310 -0.0364
  827TIP3   OH223971   5.540   2.899   1.180  0.5051 -0.9025  0.1749
  827TIP3    H123972   5.584   2.959   1.120  1.0207 -1.5166 -0.0713
  827TIP3    H223973   5.477   2.851   1.126  2.0114 -2.5248 -0.2351
  828TIP3   OH223974   2.960   5.977   0.999  0.1676  0.3033  0.0429
  828TIP3    H123975   2.964   5.979   0.903 -1.3850 -0.8560 -0.0848
  828TIP3    H223976   2.876   5.937   1.019  0.9398 -0.5365  1.9007
  829TIP3   OH223977   4.342   1.519  15.777  0.3046  0.7859 -0.0741
  829TIP3    H123978   4.372   1.458  15.844  1.8080  0.6192 -0.8457
  829TIP3    H223979   4.267   1.476  15.737  1.3001 -0.5690 -0.5606
  830TIP3   OH223980   0.733   1.543  12.421  0.0038  0.4009 -0.1676
  830TIP3    H123981   0.777   1.477  12.368  0.2425  0.3474  0.0982
  830TIP3    H223982   0.656   1.568  12.369 -1.6025 -2.0083  0.8776
  831TIP3   OH223983   6.123   6.510   5.694  0.0463  0.4293  0.2451
  831TIP3    H123984   6.182   6.457   5.641 -1.9704 -0.6581 -1.0252
  831TIP3    H223985   6.036   6.474   5.678 -0.9842  1.8065  2.2216
  832TIP3   OH223986   4.218   6.508  12.146 -0.2886  0.6251  0.6045
  832TIP3    H123987   4.125   6.532  12.155  0.1603  3.0967 -0.4216
  832TIP3    H223988   4.233   6.506  12.051  0.5019 -0.7509  0.7356
  833TIP3   OH223989   4.937   5.482   0.514  0.3701  0.1979 -0.3820
  833TIP3    H123990   4.984   5.435   0.583  1.3805 -0.2198 -1.3246
  833TIP3    H223991   4.845   5.458   0.526  0.6527 -0.6034  0.2447
  834TIP3   OH223992   4.926   2.046  15.765  0.1441  0.1444 -0.0504
  834TIP3    H123993   4.832   2.056  15.779 -0.0746 -1.2520 -0.4272
  834TIP3    H223994   4.961   2.024  15.851 -0.3973 -2.7522 -0.4801
  835TIP3   OH223995   1.749   2.148   0.118 -0.0104  0.3200 -0.1649
  835TIP3    H123996   1.781   2.130   0.029  0.3303  0.4758 -0.0792
  835TIP3    H223997   1.654   2.158   0.108  0.0942  0.9978 -0.6320
  836TIP3   OH223998   0.873   4.631   3.410 -0.5283 -0.2837  0.7702
  836TIP3    H123999   0.796   4.686   3.398 -0.0567  0.7336  2.1030
  836TIP3    H224000   0.922   4.673   3.481  1.5891 -0.5043 -0.4590
  837TIP3   OH224001   6.250   1.134  12.374  0.2003 -0.0532  0.1206
  837TIP3    H124002   6.184   1.203  12.373  0.8820  0.6035 -1.4769
  837TIP3    H224003   6.240   1.089  12.291 -0.5410 -2.2415  1.3071
  838TIP3   OH224004   3.762   2.417   5.741 -0.6139  0.1793  0.6785
  838TIP3    H124005   3.735   2.386   5.655 -1.5748  0.1288  0.9908
  838TIP3    H224006   3.839   2.364   5.763  0.0365  0.6263 -0.4134
  839TIP3   OH224007   6.370   3.395  16.210  0.0219 -0.0705  0.4101
  839TIP3    H124008   6.315   3.337  16.157 -0.8088  0.9420  0.1328
  839TIP3    H224009   6.457   3.387  16.171 -0.6497  0.9688 -1.4276
  840TIP3   OH224010   2.378   5.723   4.680 -0.0566 -0.1260 -0.3397
  840TIP3    H124011   2.348   5.643   4.637  0.8155 -0.5421 -0.2048
  840TIP3    H224012   2.321   5.734   4.755  0.8695 -1.5817  0.6202
  841TIP3   OH224013   5.590   3.115  17.335  0.3235  0.2315 -0.0920
  841TIP3    H124014   5.576   3.025  17.365 -1.6273 -0.0766 -1.7755
  841TIP3    H224015   5.605   3.107  17.241  0.6978  1.6442 -0.1761
  842TIP3   OH224016   4.357   0.619  16.829 -1.1377 -0.0543 -0.4114
  842TIP3    H124017   4.362   0.586  16.918  0.8218  3.3981  0.9285
  842TIP3    H224018   4.276   0.670  16.826 -1.2024 -0.1676 -0.6124
  843TIP3   OH224019   2.636   0.659   5.993  0.0408 -0.1085 -0.5986
  843TIP3    H124020   2.723   0.691   5.968 -0.0852 -0.0487 -0.9597
  843TIP3    H224021   2.631   0.676   6.088  0.6185 -0.5717 -0.4751
  844TIP3   OH224022   1.599   6.029  12.289 -0.5624  0.4289 -0.4454
  844TIP3    H124023   1.620   6.010  12.380  1.0115  1.8448 -0.4723
  844TIP3    H224024   1.506   6.048  12.289 -0.2100  2.5376  1.2939
  845TIP3   OH224025   3.957   4.562  12.631  0.3682 -0.7748 -0.3647
  845TIP3    H124026   4.041   4.523  12.657  1.7654  1.3223 -1.3667
  845TIP3    H224027   3.903   4.559  12.709  1.8714 -1.0228  0.7101
  846TIP3   OH224028   5.921   4.392  16.016 -0.4668  0.0396  0.6836
  846TIP3    H124029   5.840   4.407  15.969 -1.7332 -1.1381  2.3577
  846TIP3    H224030   5.969   4.328  15.963 -1.2326 -0.2381  0.3225
  847TIP3   OH224031   0.622   0.910  12.713  0.4207 -0.5926  0.6298
  847TIP3    H124032   0.633   0.998  12.749  1.8815  0.4322 -1.9896
  847TIP3    H224033   0.533   0.909  12.677 -0.0626 -0.6745  1.7968
  848TIP3   OH224034   1.177   5.596  13.895  0.4829  0.4104  0.6814
  848TIP3    H124035   1.195   5.569  13.805  0.4749  2.1620  0.1177
  848TIP3    H224036   1.089   5.634  13.892  1.0987  1.9702  1.0332
  849TIP3   OH224037   2.715   4.495  13.762  0.4579 -0.0395  0.5858
  849TIP3    H124038   2.743   4.542  13.840  1.8143  2.3894 -1.2558
  849TIP3    H224039   2.638   4.445  13.791  1.4540 -0.0132  3.6481
  850TIP3   OH224040   3.641   2.949  12.663  0.1278 -0.0610 -0.4547
  850TIP3    H124041   3.572   2.946  12.597 -0.1427 -0.4992 -0.1636
  850TIP3    H224042   3.622   3.028  12.714 -1.3148 -1.1480  0.8164
  851TIP3   OH224043   0.496   0.652   1.145 -0.1565  0.1903  0.0155
  851TIP3    H124044   0.426   0.706   1.109 -0.3701 -0.8558 -1.1957
  851TIP3    H224045   0.469   0.635   1.235 -1.9659 -0.9828 -0.7022
  852TIP3   OH224046   4.132   1.966   1.907  0.2345 -0.5115 -0.2574
  852TIP3    H124047   4.066   2.033   1.921  0.2778 -0.2548 -1.1993
  852TIP3    H224048   4.121   1.940   1.816  0.8925 -1.0543 -0.1943
  853TIP3   OH224049   1.718   6.676   1.752  0.1527 -0.0551  0.3810
  853TIP3    H124050   1.758   6.699   1.668  0.7193  1.0942  0.9452
  853TIP3    H224051   1.665   6.599   1.733  0.3690  0.1155 -1.0069
  854TIP3   OH224052   1.481   6.059  14.653  0.4749 -0.0295 -0.1288
  854TIP3    H124053   1.502   6.087  14.564  0.0729  1.4285  0.1987
  854TIP3    H224054   1.507   6.133  14.708 -1.3580  0.0311  0.7361
  855TIP3   OH224055   5.020   5.264  15.645  0.3610  0.0529  0.1824
  855TIP3    H124056   4.982   5.195  15.700 -1.5727 -1.0494 -2.2823
  855TIP3    H224057   4.949   5.328  15.634  0.2892 -0.2950 -1.7648
  856TIP3   OH224058   4.146   3.557  12.193 -0.0857 -0.6647  0.2091
  856TIP3    H124059   4.239   3.562  12.175 -0.1845  0.6503 -0.0645
  856TIP3    H224060   4.137   3.490  12.260  1.1371 -0.3014  0.7478
  857TIP3   OH224061   1.957   2.314  15.512 -0.1348 -0.0007  0.2252
  857TIP3    H124062   1.954   2.392  15.456 -0.9521 -0.0884  0.1409
  857TIP3    H224063   2.027   2.260  15.474 -0.4062  0.1246 -0.4720
  858TIP3   OH224064   2.878   6.459  11.458 -0.6665 -0.2549 -0.2014
  858TIP3    H124065   2.886   6.384  11.518 -1.4352 -0.7703 -0.7290
  858TIP3    H224066   2.873   6.419  11.371  1.7109  0.5276 -0.7710
  859TIP3   OH224067   1.167   3.563  15.190  0.5011  0.0240 -0.2606
  859TIP3    H124068   1.117   3.571  15.110  0.5783 -0.7299 -0.3952
  859TIP3    H224069   1.105   3.528  15.254 -0.1114  2.4621  0.5888
  860TIP3   OH224070   1.902   5.667  14.123  0.6110  0.0416 -0.3914
  860TIP3    H124071   1.828   5.659  14.063 -0.5304 -0.2346  1.0050
  860TIP3    H224072   1.968   5.606  14.089  0.1359  0.1610 -1.5491
  861TIP3   OH224073   4.086   1.526  12.392  0.3108 -0.3769 -0.3718
  861TIP3    H124074   4.086   1.526  12.296  3.5557  0.4961 -0.4744
  861TIP3    H224075   4.106   1.616  12.416  0.9225 -0.8751  1.0805
  862TIP3   OH224076   1.170   2.207   4.051 -0.3380  0.8718  0.0567
  862TIP3    H124077   1.237   2.169   3.995 -0.3631  2.0396 -0.8039
  862TIP3    H224078   1.211   2.284   4.089  0.0569 -0.4721  2.5939
  863TIP3   OH224079   3.416   3.807   5.171  0.6085 -0.2447  0.1027
  863TIP3    H124080   3.346   3.831   5.232  0.8879  0.7093  0.0586
  863TIP3    H224081   3.439   3.888   5.127  0.7166 -0.8310 -0.9770
  864TIP3   OH224082   2.042   6.033  14.288 -0.7954  0.2878 -0.5906
  864TIP3    H124083   2.116   5.976  14.264  0.0212  0.9369  0.2999
  864TIP3    H224084   2.009   6.065  14.204  0.0121  0.0821 -1.0001
  865TIP3   OH224085   6.220   5.811   4.752  0.2692 -0.0613 -0.5874
  865TIP3    H124086   6.143   5.802   4.807 -0.0321 -0.5849 -1.0754
  865TIP3    H224087   6.260   5.723   4.751  0.7424  0.1469 -0.5206
  866TIP3   OH224088   0.939   5.870   4.949  0.4187 -0.1969 -0.0454
  866TIP3    H124089   0.964   5.783   4.919 -0.2114 -0.9061  1.3521
  866TIP3    H224090   0.901   5.913   4.873 -1.4551 -2.0322 -0.2119
  867TIP3   OH224091   0.926   3.656  17.246  0.3870 -0.1311  0.5338
  867TIP3    H124092   0.875   3.674  17.325  0.6143  1.6094  0.3118
  867TIP3    H224093   0.874   3.693  17.175  1.9741  1.8617  0.3241
  868TIP3   OH224094   1.801   5.033   3.753 -0.4702 -0.2089  0.0697
  868TIP3    H124095   1.786   4.985   3.835 -0.1982  0.3774  0.4735
  868TIP3    H224096   1.732   5.099   3.752 -0.7262 -0.4818 -0.3882
  869TIP3   OH224097   5.256   1.765   6.037  0.5976 -0.3524  0.3110
  869TIP3    H124098   5.197   1.839   6.023 -0.0569 -0.9402 -0.1265
  869TIP3    H224099   5.250   1.747   6.130 -1.9154 -1.9956 -0.0878
  870TIP3   OH224100   4.390   5.648   0.243  0.2167 -0.1670 -0.2289
  870TIP3    H124101   4.361   5.739   0.235  0.3635 -0.1116 -0.1229
  870TIP3    H224102   4.309   5.599   0.259  0.1773 -0.0172  0.0330
  871TIP3   OH224103   3.878   5.779  13.036 -0.3259  0.7250  0.0998
  871TIP3    H124104   3.819   5.759  13.108  1.2289  0.1669  1.2657
  871TIP3    H224105   3.951   5.718  13.046  0.5501  1.5007 -1.1868
  872TIP3   OH224106   1.495   5.374   5.608 -0.2669 -0.0584  0.1384
  872TIP3    H124107   1.543   5.294   5.591 -1.1983 -0.6081  0.0119
  872TIP3    H224108   1.403   5.349   5.600 -0.6362  0.5959  1.9366
  873TIP3   OH224109   3.270   3.942   4.853  0.0826 -0.0647  0.3370
  873TIP3    H124110   3.259   4.025   4.806  3.3914 -0.0808 -0.7138
  873TIP3    H224111   3.197   3.940   4.915 -2.1656  1.8790 -2.0419
  874TIP3   OH224112   5.013   5.004   5.549  0.2473  0.0500 -0.0043
  874TIP3    H124113   5.040   4.934   5.490  1.5419  0.9404 -0.5307
  874TIP3    H224114   5.080   5.072   5.538  0.1068  0.5725  1.9330
  875TIP3   OH224115   4.061   3.868  11.756  0.0365  0.4973 -0.4286
  875TIP3    H124116   3.982   3.887  11.705 -0.9731  0.1447  0.9344
  875TIP3    H224117   4.106   3.952  11.762 -0.9955  1.0451 -0.0171
  876TIP3   OH224118   3.133   3.408   6.804  0.3028 -0.3411  0.4080
  876TIP3    H124119   3.079   3.424   6.881 -0.3076 -0.3831 -0.0098
  876TIP3    H224120   3.132   3.313   6.793  0.2375 -0.3195  0.2334
  877TIP3   OH224121   0.710   3.978  11.710 -0.4659 -0.1065 -0.0303
  877TIP3    H124122   0.782   3.960  11.650  0.1112 -0.4704  0.7566
  877TIP3    H224123   0.655   3.899  11.706 -2.6412  1.3510 -3.0521
  878TIP3   OH224124   5.914   6.137   3.807 -0.4608 -0.2368 -0.1654
  878TIP3    H124125   5.992   6.189   3.827 -0.4096 -0.7985  1.1767
  878TIP3    H224126   5.947   6.063   3.755  0.1433 -1.1614  1.4498
  879TIP3   OH224127   0.621   6.656  14.984  0.2752 -0.0236 -0.1074
  879TIP3    H124128   0.538   6.612  14.965  0.3389 -0.1761 -0.0382
  879TIP3    H224129   0.649   6.693  14.900 -0.3146  0.8131  0.0477
  880TIP3   OH224130   3.260   2.518  17.308 -0.1952 -0.1405  0.1197
  880TIP3    H124131   3.251   2.611  17.286  0.0319 -0.4478 -1.3330
  880TIP3    H224132   3.208   2.508  17.388 -0.6686  1.1211 -0.0006
  881TIP3   OH224133   1.162   5.666   4.894 -0.0414 -0.0199 -0.5002
  881TIP3    H124134   1.244   5.691   4.936 -1.1953  1.6482  0.9165
  881TIP3    H224135   1.177   5.678   4.801  0.7721  2.0980 -0.1515
  882TIP3   OH224136   6.115   4.867   6.547 -0.6164  0.6190  0.0471
  882TIP3    H124137   6.105   4.954   6.586 -0.5113  0.3484  0.7065
  882TIP3    H224138   6.029   4.826   6.558 -0.4495  0.3644  0.4638
  883TIP3   OH224139   2.309   0.830   0.956  0.3047 -0.1949  0.4056
  883TIP3    H124140   2.335   0.880   0.878  1.8510  1.4399  1.8796
  883TIP3    H224141   2.296   0.897   1.023 -1.7077 -1.5022  1.4051
  884TIP3   OH224142   0.718   3.375  14.498  0.0161 -0.0537  0.3379
  884TIP3    H124143   0.776   3.354  14.571  0.1948 -0.5151  0.0633
  884TIP3    H224144   0.696   3.290  14.459  1.3059  0.2886 -1.2269
  885TIP3   OH224145   3.750   4.843   1.092 -0.4591  0.7336  0.0947
  885TIP3    H124146   3.794   4.919   1.131 -0.2757  2.1017 -2.5734
  885TIP3    H224147   3.657   4.865   1.097 -0.4230  1.0173 -0.3968
  886TIP3   OH224148   4.008   0.972   5.979 -0.6724  0.0309  0.0237
  886TIP3    H124149   3.917   0.981   5.953  0.0737  0.3874 -2.6948
  886TIP3    H224150   4.044   0.906   5.920  0.9323  0.1886  0.7719
  887TIP3   OH224151   4.756   0.661   1.738 -0.1250 -0.3780  0.8121
  887TIP3    H124152   4.727   0.669   1.648  0.2396  0.1555  0.7374
  887TIP3    H224153   4.848   0.637   1.732 -0.3507 -1.3315  1.0468
  888TIP3   OH224154   6.573   5.747   3.097 -0.2136  0.4263 -0.2680
  888TIP3    H124155   6.635   5.701   3.040  0.1116  0.0920  0.3469
  888TIP3    H224156   6.569   5.693   3.176 -0.4788  1.0113  0.1228
  889TIP3   OH224157   4.278   2.332   4.833 -0.1194 -0.2803 -0.2160
  889TIP3    H124158   4.297   2.245   4.870 -2.1424 -0.4835  0.5099
  889TIP3    H224159   4.292   2.322   4.739  2.7343 -0.4646  0.1493
  890TIP3   OH224160   0.990   3.596   3.729  0.5975 -0.2976  0.0317
  890TIP3    H124161   0.900   3.628   3.724  0.1121 -1.8030 -2.1130
  890TIP3    H224162   1.043   3.670   3.697 -0.2888 -0.6810 -2.6147
  891TIP3   OH224163   1.734   4.651  12.357  0.0064  0.2791  0.1764
  891TIP3    H124164   1.806   4.601  12.395  1.8553  1.7563 -1.1501
  891TIP3    H224165   1.715   4.606  12.274  0.3858  0.6683 -0.1289
  892TIP3   OH224166   5.407   3.213   3.872 -0.4502 -0.3071  0.2416
  892TIP3    H124167   5.319   3.249   3.878 -1.2139 -1.5452 -2.1884
  892TIP3    H224168   5.417   3.160   3.951 -2.5145 -1.4020 -0.1717
  893TIP3   OH224169   3.520   0.196  16.499  0.0666 -0.2472 -0.7796
  893TIP3    H124170   3.425   0.204  16.503 -0.0823 -1.9869  0.2527
  893TIP3    H224171   3.547   0.261  16.434 -1.8194  0.2559 -1.1189
  894TIP3   OH224172   1.338   4.036  11.897 -0.1984 -0.6917 -0.0255
  894TIP3    H124173   1.354   4.130  11.899 -2.4353 -0.2682  0.7944
  894TIP3    H224174   1.414   3.999  11.852  0.2712  1.5957 -1.2254
  895TIP3   OH224175   3.434   4.718   4.468 -0.8612  0.2008  0.0619
  895TIP3    H124176   3.441   4.670   4.386 -1.0260 -0.6740  0.5416
  895TIP3    H224177   3.396   4.802   4.444  1.7518  1.1363 -1.1688
  896TIP3   OH224178   3.357   5.100  11.107  0.0576 -0.0188 -0.5970
  896TIP3    H124179   3.333   5.073  11.196 -1.6911 -1.5854 -1.4771
  896TIP3    H224180   3.298   5.173  11.088  1.0720  0.9377 -0.1720
  897TIP3   OH224181   6.513   1.718  13.696  0.3265  0.6589 -0.2318
  897TIP3    H124182   6.478   1.630  13.686  0.4654  0.5141  0.5251
  897TIP3    H224183   6.460   1.772  13.636  2.7016 -0.5184 -3.7513
  898TIP3   OH224184   5.707   6.666   2.411  0.5495 -0.0368  0.1162
  898TIP3    H124185   5.794   6.704   2.415  0.3130  0.9835 -2.5496
  898TIP3    H224186   5.648   6.741   2.406 -0.1813 -0.6813 -1.8066
  899TIP3   OH224187   2.601   3.678   0.862  0.2218 -0.8279 -0.0047
  899TIP3    H124188   2.554   3.754   0.828  0.7393 -1.4513 -2.3298
  899TIP3    H224189   2.675   3.715   0.910 -0.6884  0.1261  0.6979
  900TIP3   OH224190   6.046   5.081   2.441  0.2607  0.1829  0.3603
  900TIP3    H124191   5.953   5.066   2.458  0.0583  1.0727  0.1207
  900TIP3    H224192   6.048   5.133   2.361  0.9612  0.2223  0.3945
  901TIP3   OH224193   3.520   6.710  11.897  0.2027 -0.4171  0.6079
  901TIP3    H124194   3.504   6.712  11.803 -0.3454  0.9655  0.7149
  901TIP3    H224195   3.511   6.801  11.926  1.7277 -0.5894  1.7867
  902TIP3   OH224196   2.548   5.689  17.297 -0.5731 -0.7267  0.4835
  902TIP3    H124197   2.501   5.696  17.380 -1.3588  1.1863 -0.0513
  902TIP3    H224198   2.484   5.653  17.236 -1.5564  2.0897 -0.2996
  903TIP3   OH224199   5.963   1.983  16.918 -0.3682  0.1357  0.2063
  903TIP3    H124200   5.895   2.047  16.898 -0.7318 -0.0701  0.7358
  903TIP3    H224201   5.919   1.918  16.973 -0.1620 -0.8942 -0.7961
  904TIP3   OH224202   1.038   2.034   1.525 -0.2441 -0.8909  0.2659
  904TIP3    H124203   1.030   1.939   1.512  1.1434 -1.1898  1.3949
  904TIP3    H224204   0.986   2.052   1.603 -0.8835 -0.6360 -0.2127
  905TIP3   OH224205   5.564   2.311   3.895  0.0860  0.7803  0.2378
  905TIP3    H124206   5.656   2.319   3.869 -0.7261  0.9211 -2.9944
  905TIP3    H224207   5.519   2.380   3.847 -1.7963  0.4240  1.3863
  906TIP3   OH224208   0.205   0.127  17.501 -0.1177  0.5278 -0.5442
  906TIP3    H124209   0.297   0.103  17.487 -0.2162  1.1240 -2.6433
  906TIP3    H224210   0.167   0.053  17.547  1.1859 -0.1801 -0.5652
  907TIP3   OH224211   5.452   3.259   2.770  0.8532  0.3392 -0.1209
  907TIP3    H124212   5.375   3.271   2.714  0.1825  2.1418  1.0989
  907TIP3    H224213   5.446   3.168   2.799 -0.2132  0.1249 -0.9195
  908TIP3   OH224214   2.040   5.336   2.760 -0.1845  0.5058  0.2674
  908TIP3    H124215   1.970   5.272   2.768 -1.3811  1.7264 -0.0751
  908TIP3    H224216   2.000   5.419   2.788  1.0159  1.2929 -0.2585
  909TIP3   OH224217   6.220   3.786   1.067  0.5461  0.2622  0.9488
  909TIP3    H124218   6.226   3.791   0.972  1.8151  0.4048  1.0260
  909TIP3    H224219   6.233   3.693   1.087  0.4677  0.2609  0.9945
  910TIP3   OH224220   5.177   3.399  11.964 -0.0647  0.0181 -0.5074
  910TIP3    H124221   5.209   3.472  12.018  2.2438 -0.2535 -1.3789
  910TIP3    H224222   5.103   3.435  11.917  0.2112  1.4091  0.0551
  911TIP3   OH224223   0.476   6.545  11.970  0.5621  0.3540  0.3813
  911TIP3    H124224   0.428   6.464  11.953 -0.7400  0.8469  1.4962
  911TIP3    H224225   0.411   6.614  11.959  0.8659  1.0138  2.2778
  912TIP3   OH224226   3.110   2.084  16.718 -0.2008 -0.2741  0.0284
  912TIP3    H124227   3.160   2.002  16.725  1.4393  0.5153 -1.5822
  912TIP3    H224228   3.176   2.153  16.728 -1.7261  0.9640  2.7167
  913TIP3   OH224229   6.417   4.050  17.275 -0.3631  0.1914  0.3378
  913TIP3    H124230   6.420   4.095  17.190 -1.5296 -0.0961  0.1290
  913TIP3    H224231   6.342   4.090  17.320 -0.9129 -0.9653  0.4757
  914TIP3   OH224232   1.657   0.897  14.263 -0.2175  0.1303  0.2060
  914TIP3    H124233   1.741   0.859  14.289 -0.0832 -0.2280 -0.7073
  914TIP3    H224234   1.592   0.851  14.317 -0.1123 -1.8501 -1.2255
  915TIP3   OH224235   0.444   2.278   4.513 -0.0924  0.3862 -0.5243
  915TIP3    H124236   0.394   2.221   4.571  0.7363 -0.4480 -0.6042
  915TIP3    H224237   0.533   2.277   4.549 -0.0133  1.4564 -0.6634
  916TIP3   OH224238   5.577   0.985  14.672 -0.0856 -0.2163  0.0768
  916TIP3    H124239   5.626   0.939  14.741 -0.0500  1.6460  1.3593
  916TIP3    H224240   5.542   1.063  14.716  0.4882  1.3845 -2.1861
  917TIP3   OH224241   0.991   0.331   3.062  0.3832 -0.0248  0.4277
  917TIP3    H124242   1.062   0.380   3.019  0.2107 -0.4041 -0.3142
  917TIP3    H224243   0.920   0.395   3.072 -0.3073 -0.3788 -1.6798
  918TIP3   OH224244   6.345   4.744  14.564  0.7076  0.3917 -0.4030
  918TIP3    H124245   6.270   4.802  14.553  0.4068  0.1515  0.3813
  918TIP3    H224246   6.396   4.757  14.484  0.9399  2.1530 -0.0099
  919TIP3   OH224247   4.304   4.193   0.462 -0.2573 -0.1862 -0.0840
  919TIP3    H124248   4.247   4.129   0.505 -0.0939  0.3346  0.9513
  919TIP3    H224249   4.392   4.164   0.484 -0.1084 -0.7974 -1.4001
  920TIP3   OH224250   6.585   4.100   1.145 -0.4361  0.5867  0.0734
  920TIP3    H124251   6.564   4.008   1.161 -0.8839  0.4817 -1.0991
  920TIP3    H224252   6.658   4.118   1.206 -1.6447  0.0434  1.7653
  921TIP3   OH224253   4.729   5.832   3.868  0.6054 -0.1594  0.1645
  921TIP3    H124254   4.664   5.828   3.797  1.7465  0.3383 -0.9537
  921TIP3    H224255   4.741   5.925   3.884  0.9828 -0.2520  0.4219
  922TIP3   OH224256   0.352   4.427   4.071  0.1845  0.3948  0.3105
  922TIP3    H124257   0.433   4.429   4.122 -0.3343 -0.3876  1.1752
  922TIP3    H224258   0.345   4.337   4.039  1.0635  1.0951 -2.1233
  923TIP3   OH224259   2.505   3.512   1.727  0.6195 -0.0428  0.2062
  923TIP3    H124260   2.593   3.483   1.703  0.3746 -1.2361  0.6662
  923TIP3    H224261   2.458   3.519   1.644  1.1108  0.5090 -0.0339
  924TIP3   OH224262   0.391   6.164  14.704  0.1524  0.1346 -0.4129
  924TIP3    H124263   0.458   6.183  14.639 -0.5527 -0.2047 -1.2599
  924TIP3    H224264   0.315   6.137  14.653 -0.2111 -0.7944  0.5782
  925TIP3   OH224265   0.754   1.593  14.735 -0.7184 -0.4264 -0.1904
  925TIP3    H124266   0.786   1.682  14.745  1.0142 -1.1752  1.8077
  925TIP3    H224267   0.827   1.546  14.693 -0.1773 -1.5677  1.8775
  926TIP3   OH224268   1.629   6.641   5.321  0.0065  0.6589 -0.1124
  926TIP3    H124269   1.560   6.590   5.278 -0.1303  0.7421  0.0093
  926TIP3    H224270   1.625   6.726   5.278  0.8753  0.2775 -0.9972
  927TIP3   OH224271   3.162   4.901  12.086 -0.0729 -0.1630  0.1423
  927TIP3    H124272   3.078   4.903  12.132 -0.2676  0.6862 -0.2409
  927TIP3    H224273   3.142   4.929  11.997  0.8958  1.9438  0.5246
  928TIP3   OH224274   4.186   4.270   2.585 -0.4538  0.0088 -0.0374
  928TIP3    H124275   4.221   4.190   2.546  0.1847 -0.6402  1.7545
  928TIP3    H224276   4.257   4.334   2.576 -0.5423  0.0447 -0.4802
  929TIP3   OH224277   2.400   2.269  16.538  0.7106  0.2963 -0.4837
  929TIP3    H124278   2.383   2.243  16.447 -0.0356  2.6785 -1.1000
  929TIP3    H224279   2.321   2.314  16.565  1.1557  0.1431  1.1831
  930TIP3   OH224280   1.369   6.303   4.973 -0.6775  0.7214 -0.3085
  930TIP3    H124281   1.319   6.351   4.908 -2.0228 -1.0428 -0.6559
  930TIP3    H224282   1.334   6.214   4.970  1.3758 -0.1969  0.6141
  931TIP3   OH224283   0.105   4.096  12.181  0.1176 -0.8241  0.3250
  931TIP3    H124284   0.169   4.113  12.112 -0.5406  2.6177  0.4226
  931TIP3    H224285   0.058   4.018  12.152  0.3562  0.0759 -2.7171
  932TIP3   OH224286   2.715   1.820  11.688  0.0490 -0.3318  0.0687
  932TIP3    H124287   2.767   1.882  11.739  0.8769 -0.4172 -0.6498
  932TIP3    H224288   2.706   1.744  11.745 -0.8686  0.3857  0.9070
  933TIP3   OH224289   2.384   5.360  10.806 -0.6500 -0.1274  0.5966
  933TIP3    H124290   2.438   5.434  10.778  0.1913 -0.7365  0.5645
  933TIP3    H224291   2.296   5.381  10.774 -0.2022  0.3252 -0.3838
  934TIP3   OH224292   3.119   0.334  12.230  0.2909  0.4107 -0.1606
  934TIP3    H124293   3.025   0.351  12.237  0.1392  2.1794 -3.8998
  934TIP3    H224294   3.125   0.247  12.192  0.1215  0.5193 -0.4404
  935TIP3   OH224295   0.472   4.702  15.440 -0.3684  0.3501 -0.5091
  935TIP3    H124296   0.466   4.684  15.346 -1.1565 -0.4566 -0.3153
  935TIP3    H224297   0.399   4.655  15.478 -0.7114  1.5630  0.3981
  936TIP3   OH224298   2.932   0.292  12.889 -0.3404  0.3668 -0.7184
  936TIP3    H124299   2.853   0.332  12.852 -3.4500 -2.5521  2.0484
  936TIP3    H224300   2.940   0.333  12.976 -0.6906 -1.4169  0.1941
  937TIP3   OH224301   6.023   1.804   1.738  0.3710 -0.1137  0.1792
  937TIP3    H124302   5.986   1.724   1.774 -1.0487 -0.8312 -2.5838
  937TIP3    H224303   5.947   1.861   1.725  0.9650  0.5073 -0.6401
  938TIP3   OH224304   2.709   3.464  11.345  0.2852  0.0104 -0.0179
  938TIP3    H124305   2.784   3.492  11.293 -0.6861  0.0962 -1.4098
  938TIP3    H224306   2.656   3.543  11.355  0.9242  0.2507  2.0028
  939TIP3   OH224307   3.564   5.182  17.287  0.0584 -0.5061 -0.1463
  939TIP3    H124308   3.497   5.165  17.353 -0.3115 -1.5111 -0.7536
  939TIP3    H224309   3.645   5.149  17.326 -0.2377 -1.5202 -0.3485
  940TIP3   OH224310   6.697   6.184  14.058  0.0333  0.1950 -0.2532
  940TIP3    H124311   6.603   6.167  14.060 -0.5763  2.6068 -2.4213
  940TIP3    H224312   6.718   6.212  14.147 -1.1031 -1.0576  0.4560
  941TIP3   OH224313   3.950   5.402  12.594  0.3390 -0.4865 -0.7023
  941TIP3    H124314   3.942   5.473  12.530  1.2036 -0.1857 -0.4882
  941TIP3    H224315   3.980   5.445  12.674 -0.0330 -0.9669 -0.2989
  942TIP3   OH224316   4.212   6.636   6.675  0.1207 -1.2338 -0.6127
  942TIP3    H124317   4.304   6.634   6.703  0.2927 -2.0807 -1.2147
  942TIP3    H224318   4.210   6.583   6.596 -0.8492 -1.0053 -0.7503
  943TIP3   OH224319   1.747   3.956  15.499 -0.5747  0.3215 -0.1123
  943TIP3    H124320   1.785   3.938  15.585  0.0475  1.6165 -0.0988
  943TIP3    H224321   1.820   3.946  15.438 -0.4750  1.6591 -0.2222
  944TIP3   OH224322   2.682   3.488  13.665  0.1054 -0.2796  0.1092
  944TIP3    H124323   2.718   3.416  13.717 -0.7921 -0.8075  0.0178
  944TIP3    H224324   2.712   3.568  13.709  0.5360 -0.7134  0.6060
  945TIP3   OH224325   3.825   3.515  14.286 -0.0863 -0.3279 -0.0067
  945TIP3    H124326   3.772   3.437  14.303 -2.4803  0.6054 -2.5380
  945TIP3    H224327   3.827   3.523  14.191  3.3148  0.6824  0.0084
  946TIP3   OH224328   1.751   0.476  11.586  0.0619 -0.2833 -0.5370
  946TIP3    H124329   1.717   0.387  11.587 -0.7269 -0.0211 -1.9409
  946TIP3    H224330   1.846   0.466  11.584  0.0201 -1.0588  0.6994
  947TIP3   OH224331   5.982   5.102  10.752 -0.0462  0.0856 -0.1130
  947TIP3    H124332   5.940   5.073  10.671 -1.2659  1.2512  0.0804
  947TIP3    H224333   5.935   5.181  10.777 -0.7093 -1.0195  2.5155
  948TIP3   OH224334   6.028   4.947   3.385 -0.3048 -0.3908 -0.1928
  948TIP3    H124335   5.946   4.993   3.368  0.9880  2.5776  0.9046
  948TIP3    H224336   6.018   4.913   3.474 -0.3270 -0.0255 -0.0570
  949TIP3   OH224337   4.826   3.634   1.437 -0.3223  0.2467  0.0938
  949TIP3    H124338   4.741   3.650   1.396 -0.4414 -0.2137  0.1605
  949TIP3    H224339   4.871   3.719   1.432  0.4097 -0.1992 -2.6863
  950TIP3   OH224340   2.517   2.155   6.376  0.3835 -0.1789 -0.2114
  950TIP3    H124341   2.515   2.060   6.370 -0.7869 -0.2629  0.9829
  950TIP3    H224342   2.433   2.184   6.340  0.9568  0.4588 -1.0867
  951TIP3   OH224343   0.342   5.662   3.048 -0.5406 -0.3250 -0.1041
  951TIP3    H124344   0.317   5.570   3.062 -3.2774  0.4491  0.8410
  951TIP3    H224345   0.307   5.683   2.961  1.0431 -0.4236 -0.7939
  952TIP3   OH224346   4.832   1.597   2.152 -0.2163  0.2028  0.3223
  952TIP3    H124347   4.911   1.638   2.188  1.1885 -2.3954  0.4981
  952TIP3    H224348   4.864   1.545   2.078 -1.7618 -0.8894  0.3752
  953TIP3   OH224349   6.702   6.175  17.555  0.1134  0.5258  0.0045
  953TIP3    H124350   6.696   6.162  17.460 -1.1691  3.1206 -0.3557
  953TIP3    H224351   6.688   6.088  17.592 -0.4784 -0.3743 -2.1680
  954TIP3   OH224352   1.788   3.202   0.216 -0.6008 -0.1403  0.8770
  954TIP3    H124353   1.803   3.134   0.150 -1.0522  1.4660 -0.9380
  954TIP3    H224354   1.805   3.157   0.300  0.4780 -2.1012 -0.3109
  955TIP3   OH224355   3.698   6.315  16.938 -0.1116 -0.0070 -0.4698
  955TIP3    H124356   3.670   6.223  16.931 -0.3757  0.0837 -0.6698
  955TIP3    H224357   3.702   6.332  17.032 -0.8045 -0.0096 -0.4297
  956TIP3   OH224358   2.974   3.228   2.712  0.5999  0.2623  0.0615
  956TIP3    H124359   3.008   3.188   2.792 -0.0108 -1.0898 -0.3161
  956TIP3    H224360   2.899   3.173   2.688 -1.3414  2.6110  0.3980
  957TIP3   OH224361   1.580   4.022   2.501  0.3902 -0.0477 -0.1136
  957TIP3    H124362   1.601   4.026   2.594  0.3487  1.2143 -0.1405
  957TIP3    H224363   1.491   4.055   2.494  0.1904 -0.6703 -0.5387
  958TIP3   OH224364   3.940   5.610   0.056  0.2338  0.0486  0.1790
  958TIP3    H124365   3.922   5.697   0.092 -1.3678 -0.8228  1.6478
  958TIP3    H224366   3.967   5.627  -0.035  0.8170  2.1078  0.6783
  959TIP3   OH224367   2.530   4.071  17.685  0.0710 -0.9256  0.2812
  959TIP3    H124368   2.441   4.065  17.651 -0.2635 -1.2312  1.1825
  959TIP3    H224369   2.574   3.993  17.649  0.3208 -0.1882 -1.0860
  960TIP3   OH224370   1.374   0.574   1.860 -0.3167  0.4064 -0.1061
  960TIP3    H124371   1.384   0.570   1.955 -1.8312 -1.6621  0.0295
  960TIP3    H224372   1.311   0.644   1.846 -1.7511 -0.6877  0.6338
  961TIP3   OH224373   0.397   0.505   2.975  0.3450  0.2283  0.2103
  961TIP3    H124374   0.379   0.588   2.931 -0.1987 -0.1729 -0.3491
  961TIP3    H224375   0.369   0.518   3.065 -0.0583  0.5486  0.0395
  962TIP3   OH224376   3.196   1.389  16.182 -0.8225 -0.4112 -0.0710
  962TIP3    H124377   3.201   1.353  16.271 -0.9381 -2.7196 -0.9172
  962TIP3    H224378   3.104   1.379  16.158 -1.3519  2.5597  0.3884
  963TIP3   OH224379   5.842   3.878   1.778  0.3741  0.0623  0.2865
  963TIP3    H124380   5.865   3.914   1.864  0.6943  0.5151  0.0178
  963TIP3    H224381   5.914   3.818   1.758 -0.2227 -0.8413  0.7901
  964TIP3   OH224382   2.166   6.219   3.358 -0.4654 -0.0364 -0.4777
  964TIP3    H124383   2.225   6.291   3.381 -0.3032  0.0257 -1.0726
  964TIP3    H224384   2.079   6.258   3.359 -0.4657 -0.0406  0.0422
  965TIP3   OH224385   0.113   5.259   3.812  0.2728  0.4994  0.2570
  965TIP3    H124386   0.182   5.198   3.786 -1.4640 -1.8888  0.8474
  965TIP3    H224387   0.143   5.295   3.895  0.3106 -1.5117  1.1770
  966TIP3   OH224388   0.348   4.421  16.278 -0.0649 -0.6875 -0.2743
  966TIP3    H124389   0.378   4.500  16.232  1.2151  0.3435  2.1169
  966TIP3    H224390   0.255   4.436  16.294  0.0107  0.0149 -0.4641
  967TIP3   OH224391   2.240   0.194  16.509 -0.3196 -0.0084 -0.2487
  967TIP3    H124392   2.144   0.187  16.515 -0.2577 -0.2433  0.5888
  967TIP3    H224393   2.265   0.122  16.451 -0.7180  0.6166 -1.2277
  968TIP3   OH224394   4.184   4.528  13.815 -0.0002  0.4812 -0.1048
  968TIP3    H124395   4.271   4.551  13.784 -1.1609  2.9179 -1.8811
  968TIP3    H224396   4.157   4.603  13.868 -0.6894 -0.6718  1.2451
  969TIP3   OH224397   2.201   5.808  11.436 -0.7922  0.0702 -0.3277
  969TIP3    H124398   2.132   5.766  11.486 -0.4203 -0.1296  0.0197
  969TIP3    H224399   2.179   5.901  11.439 -0.9292  0.0297 -0.0363
  970TIP3   OH224400   5.848   6.660  14.537 -1.0094  0.1271 -0.1241
  970TIP3    H124401   5.835   6.665  14.443 -0.7520  1.5942 -0.1024
  970TIP3    H224402   5.937   6.627  14.547 -1.0941 -0.1835 -0.3934
  971TIP3   OH224403   6.061   0.796  14.943 -0.4876  0.6225 -0.4104
  971TIP3    H124404   6.088   0.886  14.925 -0.1178  0.3891 -1.0991
  971TIP3    H224405   6.090   0.747  14.865 -0.2115 -0.1757  0.1794
  972TIP3   OH224406   1.492   5.244  14.474  0.0714  0.6700 -0.4451
  972TIP3    H124407   1.507   5.315  14.536  0.7023  0.0938  0.0949
  972TIP3    H224408   1.397   5.233  14.472 -0.0205  1.4647 -0.4642
  973TIP3   OH224409   3.835   1.558   6.534 -0.2211 -0.1027  0.3259
  973TIP3    H124410   3.841   1.466   6.507 -2.9595 -0.6700  1.2938
  973TIP3    H224411   3.880   1.562   6.618  1.2618 -0.1504 -0.4283
  974TIP3   OH224412   4.608   4.361   0.091 -0.5218 -0.0989 -0.6309
  974TIP3    H124413   4.603   4.375  -0.003 -1.2191  0.5682 -0.5079
  974TIP3    H224414   4.528   4.314   0.113 -0.7182  0.3977 -0.2714
  975TIP3   OH224415   4.533   4.689   4.732  0.0220  0.4689  0.7866
  975TIP3    H124416   4.455   4.687   4.787  0.7530  0.5817  1.8632
  975TIP3    H224417   4.522   4.767   4.678 -0.2624  0.8975  1.4533
  976TIP3   OH224418   4.165   4.051  11.478  0.4488 -0.6094  0.3034
  976TIP3    H124419   4.205   4.066  11.392  0.7170 -3.0840 -0.1023
  976TIP3    H224420   4.073   4.032  11.459 -0.1266  1.4470  0.8706
  977TIP3   OH224421   2.266   4.873  14.786  0.1024  0.3201 -0.1069
  977TIP3    H124422   2.299   4.957  14.818 -0.1488  0.1251  0.7080
  977TIP3    H224423   2.188   4.895  14.735  0.9358  0.7032 -1.2473
  978TIP3   OH224424   0.712   3.544   5.109 -0.7506  0.0252  0.1551
  978TIP3    H124425   0.705   3.599   5.031  3.8344 -0.0378 -0.5706
  978TIP3    H224426   0.737   3.458   5.076 -1.7099 -0.8846  1.6355
  979TIP3   OH224427   6.297   1.743  16.560  0.5216 -0.9975 -0.3181
  979TIP3    H124428   6.267   1.805  16.626 -0.4410 -0.2246 -1.4286
  979TIP3    H224429   6.375   1.783  16.522  0.1825 -0.6868 -0.6980
  980TIP3   OH224430   1.281   3.670   3.885 -0.1718  0.3030 -0.2029
  980TIP3    H124431   1.229   3.723   3.946 -1.5751  1.2284 -2.0951
  980TIP3    H224432   1.262   3.580   3.910  1.6626  0.5495  2.6016
  981TIP3   OH224433   3.674   3.974   3.949 -0.8306 -0.0452 -0.2255
  981TIP3    H124434   3.729   3.968   4.028 -1.4159 -0.2403  0.1697
  981TIP3    H224435   3.616   3.898   3.954 -1.4040  0.3739 -0.4357
  982TIP3   OH224436   2.101   0.050  12.572  0.6680  0.3303  0.4749
  982TIP3    H124437   2.150   0.131  12.588 -1.1035  1.3369  1.1003
  982TIP3    H224438   2.103   0.040  12.477  1.2203  0.9086  0.4139
  983TIP3   OH224439   4.919   0.259   4.987 -0.3961 -0.1373  0.1728
  983TIP3    H124440   4.871   0.186   4.947  0.4802 -0.4951 -0.2499
  983TIP3    H224441   4.922   0.326   4.919  0.7915 -0.6123 -0.2801
  984TIP3   OH224442   5.832   3.620  14.816  0.1247  0.1216 -0.2016
  984TIP3    H124443   5.873   3.535  14.829  2.5763  1.4177  1.6314
  984TIP3    H224444   5.871   3.653  14.735  1.3825  0.5548  0.5355
  985TIP3   OH224445   2.569   3.109  13.123  0.5520  0.1475  0.0221
  985TIP3    H124446   2.595   3.085  13.212  1.3896  0.6486 -0.0815
  985TIP3    H224447   2.634   3.068  13.067 -0.1804 -0.4716 -0.4014
  986TIP3   OH224448   2.024   5.880  13.296  0.5383 -0.2218  0.1040
  986TIP3    H124449   2.008   5.971  13.321 -1.0955 -0.2512 -0.6829
  986TIP3    H224450   2.083   5.886  13.221 -0.8650  0.3176 -1.0011
  987TIP3   OH224451   5.099   1.712  15.432  0.0448  0.6003 -0.1399
  987TIP3    H124452   5.024   1.763  15.464 -2.3531 -0.7425 -3.0802
  987TIP3    H224453   5.160   1.776  15.398 -0.6664  1.6813  0.5594
  988TIP3   OH224454   6.181   1.512   4.576  0.0031 -0.0090 -0.1212
  988TIP3    H124455   6.216   1.586   4.527 -0.5903  0.4813  0.1985
  988TIP3    H224456   6.086   1.523   4.574 -0.1709 -1.4554 -1.1643
  989TIP3   OH224457   1.692   3.745   4.873 -0.1477  0.4947 -0.0596
  989TIP3    H124458   1.758   3.814   4.880  1.9611 -1.2803 -1.1800
  989TIP3    H224459   1.681   3.731   4.779 -0.5606 -0.6559  0.1447
  990TIP3   OH224460   0.919   0.994   3.695  0.3208  0.1775 -0.4185
  990TIP3    H124461   0.977   1.029   3.763  0.8136  1.4201 -1.4567
  990TIP3    H224462   0.898   1.068   3.640 -2.3214 -0.2281 -0.0872
  991TIP3   OH224463   4.447   2.967  14.614 -0.1815  0.5407 -0.1940
  991TIP3    H124464   4.446   2.977  14.709 -1.7518 -0.6317 -0.0342
  991TIP3    H224465   4.388   3.036  14.582 -3.9596 -2.1915  0.2059
  992TIP3   OH224466   0.013   2.957  15.152 -0.5775 -0.2978  0.5671
  992TIP3    H124467   0.092   3.011  15.152 -0.6039 -0.2448  1.2571
  992TIP3    H224468  -0.014   2.956  15.244 -0.2410 -1.9678  0.6812
  993TIP3   OH224469   6.426   0.114   3.394  0.3713 -1.1666  0.7209
  993TIP3    H124470   6.376   0.086   3.470  1.9159 -1.3903  1.7096
  993TIP3    H224471   6.501   0.162   3.430  0.1113  0.4635 -0.7488
  994TIP3   OH224472   2.156   4.544   5.124  0.4341 -0.1978 -0.7341
  994TIP3    H124473   2.241   4.537   5.081 -0.1373  0.1808 -1.9634
  994TIP3    H224474   2.111   4.462   5.103  1.6535 -1.9244  2.6600
  995TIP3   OH224475   4.219   0.888   0.843  0.0861 -0.1282 -0.5541
  995TIP3    H124476   4.310   0.906   0.867 -0.3658  0.7869  0.5803
  995TIP3    H224477   4.221   0.878   0.747  1.5652 -1.4452 -0.4258
  996TIP3   OH224478   2.589   2.065  16.597  0.0143  0.0549  0.1053
  996TIP3    H124479   2.549   2.121  16.531 -0.0705 -0.4437 -0.2683
  996TIP3    H224480   2.682   2.064  16.575 -0.1607 -0.9415 -0.6315
  997TIP3   OH224481   4.970   5.616  12.115  0.2179 -0.3614  0.5742
  997TIP3    H124482   4.955   5.682  12.182  0.6770 -0.2525  0.5718
  997TIP3    H224483   5.034   5.557  12.153  0.2807 -0.4508  0.3349
  998TIP3   OH224484   2.312   3.978  12.311  0.5109  0.6111  0.0779
  998TIP3    H124485   2.301   3.883  12.318  1.4574  0.4932  0.0284
  998TIP3    H224486   2.238   4.014  12.361  0.6611 -0.1517  0.8702
  999TIP3   OH224487   2.254   6.060  13.909  0.1063 -0.3158  0.1038
  999TIP3    H124488   2.208   5.996  13.855 -0.3876 -0.3916  0.6047
  999TIP3    H224489   2.248   6.026  13.998 -1.0068  0.8750  0.5318
 1000TIP3   OH224490   2.462   3.569  15.948 -0.2174  0.0305  0.2534
 1000TIP3    H124491   2.502   3.627  16.012 -0.9671 -2.2078  2.9369
 1000TIP3    H224492   2.369   3.568  15.971 -0.3403 -1.6317 -0.1977
 1001TIP3   OH224493   0.569   3.359  11.936 -0.3084  0.0629 -0.2489
 1001TIP3    H124494   0.515   3.402  11.869  0.1879  0.7455 -0.2260
 1001TIP3    H224495   0.558   3.266  11.920 -0.1938  0.2152 -1.2815
 1002TIP3   OH224496   3.000   1.791   2.668  0.4270  0.1684  0.4108
 1002TIP3    H124497   3.034   1.807   2.756  2.9287 -1.2116 -0.1837
 1002TIP3    H224498   3.004   1.876   2.625  2.4529  0.2734  0.6870
 1003TIP3   OH224499   5.142   4.548   1.556 -0.4284  0.8218  0.6085
 1003TIP3    H124500   5.190   4.488   1.499  2.5657  2.3705  1.2908
 1003TIP3    H224501   5.053   4.515   1.556  0.5906 -2.3039 -0.7656
 1004TIP3   OH224502   4.149   2.821  12.677  0.8654 -0.7228  0.3977
 1004TIP3    H124503   4.056   2.830  12.658  1.3674 -1.8908 -3.7290
 1004TIP3    H224504   4.181   2.911  12.682 -0.1482 -0.2624 -0.7958
 1005TIP3   OH224505   3.585   1.575   0.771  0.2857 -0.2103  0.0447
 1005TIP3    H124506   3.506   1.625   0.749  0.6312 -0.2790 -1.4313
 1005TIP3    H224507   3.587   1.504   0.707  1.5067 -0.2608  0.1263
 1006TIP3   OH224508   4.888   5.361   4.316 -0.4404  0.4398  0.0100
 1006TIP3    H124509   4.846   5.411   4.385  0.5624  1.1473  0.1268
 1006TIP3    H224510   4.918   5.280   4.359 -0.4856  0.5412  0.2316
 1007TIP3   OH224511   4.094   5.678  15.594  0.3648 -0.2958  0.6052
 1007TIP3    H124512   4.178   5.653  15.555  0.8688  3.8160 -1.5223
 1007TIP3    H224513   4.034   5.610  15.567  2.6169 -2.4648  0.6965
 1008TIP3   OH224514   5.043   5.883  15.370 -0.4466 -0.6675  0.3284
 1008TIP3    H124515   4.982   5.811  15.357 -0.3583 -0.8956  1.1713
 1008TIP3    H224516   5.095   5.885  15.289 -1.5731 -0.4445 -0.4149
 1009TIP3   OH224517   0.398   2.595  11.138 -0.1979  0.4107  0.5717
 1009TIP3    H124518   0.445   2.512  11.149 -1.2705 -0.3247 -0.2108
 1009TIP3    H224519   0.379   2.599  11.044 -1.0043  1.0642  0.7534
 1010TIP3   OH224520   1.985   4.128  16.385 -0.0040 -0.1010  0.0276
 1010TIP3    H124521   1.890   4.114  16.389 -0.1119  0.1219 -1.2472
 1010TIP3    H224522   2.006   4.116  16.293  1.1138  0.5171  0.1921
 1011TIP3   OH224523   3.559   0.486   4.835 -0.2693  0.3362 -0.0292
 1011TIP3    H124524   3.549   0.536   4.916 -0.5963  1.3257 -0.6661
 1011TIP3    H224525   3.579   0.552   4.768 -1.1215 -0.3290 -0.9749
 1012TIP3   OH224526   5.380   0.391  16.242  0.2236  0.4668 -0.2857
 1012TIP3    H124527   5.408   0.424  16.157  0.2405 -1.1492 -0.9506
 1012TIP3    H224528   5.285   0.377  16.233  0.6699 -2.9445 -1.3169
 1013TIP3   OH224529   0.351   4.021  16.632  0.1953  0.0751 -0.2122
 1013TIP3    H124530   0.286   3.987  16.570 -0.5436 -0.5651  0.8773
 1013TIP3    H224531   0.310   4.099  16.669 -0.3790 -0.8561  1.1672
 1014TIP3   OH224532   4.692   5.899   0.784 -0.2261 -0.5662  0.0603
 1014TIP3    H124533   4.753   5.937   0.720 -1.4401 -0.9047 -1.3522
 1014TIP3    H224534   4.724   5.931   0.868  1.0237  0.4787 -0.7527
 1015TIP3   OH224535   5.896   4.951   4.537 -0.3804 -0.6813  0.7195
 1015TIP3    H124536   5.865   5.016   4.474 -3.0075  0.0905  2.6441
 1015TIP3    H224537   5.892   4.868   4.489  1.3645  0.2515 -1.2352
 1016TIP3   OH224538   6.603   4.335   3.143  0.1482 -0.2173 -0.1534
 1016TIP3    H124539   6.612   4.353   3.050 -0.7805 -3.1144 -0.9102
 1016TIP3    H224540   6.596   4.240   3.148  0.3991 -0.1651  2.9191
 1017TIP3   OH224541   5.239   1.884  16.068  0.0383  0.6812 -0.2363
 1017TIP3    H124542   5.230   1.836  16.150 -0.1672  2.0936  0.5893
 1017TIP3    H224543   5.326   1.924  16.073 -0.6447  2.1808  0.0894
 1018TIP3   OH224544   2.999   2.379   3.213  0.3203  0.0671 -0.0312
 1018TIP3    H124545   2.992   2.426   3.130 -0.8005 -0.4460 -0.2505
 1018TIP3    H224546   2.935   2.420   3.270 -0.6370 -1.1063 -0.2082
 1019TIP3   OH224547   4.990   4.331  15.282  0.0501 -0.0207 -0.0622
 1019TIP3    H124548   4.945   4.360  15.362  1.0431  0.9602  0.1676
 1019TIP3    H224549   4.932   4.264  15.245 -0.1174 -1.0018  1.8358
 1020TIP3   OH224550   2.680   1.031   2.147  0.3908  0.4995 -0.3789
 1020TIP3    H124551   2.759   0.997   2.105  1.3744  0.5397  1.3451
 1020TIP3    H224552   2.711   1.070   2.228 -1.7047 -2.5930  2.1685
 1021TIP3   OH224553   5.875   5.625   3.178 -0.4289  0.9790  0.5089
 1021TIP3    H124554   5.894   5.666   3.094 -0.4145  0.4749  0.2647
 1021TIP3    H224555   5.946   5.563   3.192 -1.6500 -0.7074 -0.2796
 1022TIP3   OH224556   4.224   5.423   3.277  0.2440  0.4352 -0.4895
 1022TIP3    H124557   4.293   5.356   3.273 -0.8213 -0.6814 -0.8093
 1022TIP3    H224558   4.156   5.383   3.331  0.2575  1.9503  0.7422
 1023TIP3   OH224559   3.989   6.326   4.714  0.6363 -0.5966  0.6628
 1023TIP3    H124560   3.977   6.420   4.725 -1.2275 -0.9383  1.9935
 1023TIP3    H224561   3.903   6.293   4.688  0.3346 -2.2992  3.3522
 1024TIP3   OH224562   4.139   4.768  12.686 -0.0130 -0.1983  0.0307
 1024TIP3    H124563   4.096   4.697  12.639  1.8332 -1.5816  0.3067
 1024TIP3    H224564   4.165   4.830  12.618 -0.7345 -0.2792 -0.3256
 1025TIP3   OH224565   3.113   2.945  13.127 -0.0710  0.2216 -0.3518
 1025TIP3    H124566   3.030   2.976  13.164  0.2259 -0.0445  0.5898
 1025TIP3    H224567   3.156   3.024  13.094 -0.7521  0.3430 -0.9595
 1026TIP3   OH224568   3.923   2.832  14.702 -0.5747 -0.0996 -0.4397
 1026TIP3    H124569   3.858   2.781  14.750 -0.6461 -0.3999 -0.8448
 1026TIP3    H224570   3.984   2.864  14.769 -1.4800  0.7016  0.0176
 1027TIP3   OH224571   3.286   2.134  15.493  0.3868  0.3411 -0.1624
 1027TIP3    H124572   3.372   2.165  15.523 -0.1171 -1.7270  4.0797
 1027TIP3    H224573   3.223   2.193  15.535 -0.3314 -0.4130 -0.1576
 1028TIP3   OH224574   2.582   5.302   1.600  0.0946 -0.3420 -0.5822
 1028TIP3    H124575   2.536   5.335   1.677 -0.6512 -2.3398 -0.1340
 1028TIP3    H224576   2.617   5.381   1.558 -1.2116  0.9599  0.6736
 1029TIP3   OH224577   6.515   3.357  11.610  0.3332 -0.2931 -0.3126
 1029TIP3    H124578   6.540   3.405  11.531 -0.8703 -1.8730 -1.7051
 1029TIP3    H224579   6.573   3.281  11.612  0.4960 -0.1583  0.4596
 1030TIP3   OH224580   1.179   1.385  16.097  0.0128  0.0346 -0.2431
 1030TIP3    H124581   1.098   1.419  16.135 -0.0114 -2.3923  2.1611
 1030TIP3    H224582   1.153   1.358  16.008 -2.4707 -2.3910  1.0382
 1031TIP3   OH224583   5.281   6.282  15.657 -0.3613 -0.4228 -0.3362
 1031TIP3    H124584   5.236   6.237  15.585  1.0673 -1.4977 -0.5954
 1031TIP3    H224585   5.217   6.346  15.688 -1.5544 -0.9439 -1.5884
 1032TIP3   OH224586   1.465   6.429  16.020  0.5512 -0.1185 -0.3894
 1032TIP3    H124587   1.371   6.414  16.034  0.7036 -0.7513 -0.0179
 1032TIP3    H224588   1.489   6.367  15.951  0.3826  1.1103 -1.5952
 1033TIP3   OH224589   3.297   1.471  13.312 -0.2807  0.8149  0.1579
 1033TIP3    H124590   3.215   1.521  13.314 -0.5355  0.4763 -0.9998
 1033TIP3    H224591   3.328   1.472  13.402 -2.2432 -0.1640  0.9173
 1034TIP3   OH224592   1.683   2.769  16.635 -0.0125 -0.1334  0.5126
 1034TIP3    H124593   1.712   2.687  16.674 -0.1760 -1.4407 -1.9059
 1034TIP3    H224594   1.734   2.776  16.554 -1.8334  0.8137 -0.6150
 1035TIP3   OH224595   1.742   2.851   2.632  0.0790  0.3456 -0.0315
 1035TIP3    H124596   1.725   2.760   2.653 -0.8720  0.2974 -0.9763
 1035TIP3    H224597   1.736   2.896   2.717 -1.0248 -0.2364  0.2137
 1036TIP3   OH224598   1.335   3.713   1.914  0.3704 -0.4914 -0.0282
 1036TIP3    H124599   1.304   3.640   1.860 -1.0350  0.5296 -0.6492
 1036TIP3    H224600   1.288   3.703   1.997 -0.5121  0.2089 -0.4363
 1037TIP3   OH224601   6.417   3.751  16.751  0.2122 -0.3221  0.2708
 1037TIP3    H124602   6.363   3.821  16.715 -0.4892  0.2214  2.2784
 1037TIP3    H224603   6.507   3.777  16.731 -0.1176  0.3670 -0.3376
 1038TIP3   OH224604   4.545   1.879   6.323 -0.2997 -0.0476 -0.0382
 1038TIP3    H124605   4.606   1.949   6.301  0.9743 -0.8463  0.8683
 1038TIP3    H224606   4.470   1.924   6.361 -0.8174  1.0374 -2.1423
 1039TIP3   OH224607   5.877   2.546  11.252  0.0351 -0.4936 -0.0829
 1039TIP3    H124608   5.931   2.471  11.228  1.4934  0.4742  0.0579
 1039TIP3    H224609   5.788   2.511  11.256  0.9634 -2.9963  3.1458
 1040TIP3   OH224610   5.792   5.025  13.570  0.0062  0.5541 -0.1224
 1040TIP3    H124611   5.747   4.973  13.503  0.1337 -0.5625  0.6399
 1040TIP3    H224612   5.878   5.045  13.531  0.3012 -0.5774 -0.0930
 1041TIP3   OH224613   0.107   2.723   1.984 -0.1717 -0.0101 -0.0817
 1041TIP3    H124614   0.111   2.628   1.984 -0.1711 -0.0312  1.2879
 1041TIP3    H224615   0.092   2.747   2.076  0.5911  1.3327 -0.2701
 1042TIP3   OH224616   6.429   6.237  15.602 -0.0792  0.5686 -0.3146
 1042TIP3    H124617   6.462   6.155  15.564 -1.1817  0.0971 -0.3075
 1042TIP3    H224618   6.350   6.211  15.649 -0.2217  1.5851  0.0321
 1043TIP3   OH224619   1.820   6.015   0.848  0.4239 -0.2439 -0.1172
 1043TIP3    H124620   1.748   6.066   0.884  0.7241 -0.0787  0.2449
 1043TIP3    H224621   1.777   5.947   0.796  0.0202  0.1765 -0.3358
 1044TIP3   OH224622   4.706   0.855  17.197 -0.2461 -0.3581  0.2492
 1044TIP3    H124623   4.687   0.920  17.265 -0.1275 -0.3071  0.2347
 1044TIP3    H224624   4.730   0.776  17.245 -0.9259 -0.5563  0.2681
 1045TIP3   OH224625   6.563   6.287   0.988  0.0192  0.6245 -1.0819
 1045TIP3    H124626   6.523   6.368   0.957 -1.6110 -0.1237 -0.9876
 1045TIP3    H224627   6.555   6.292   1.084 -0.3979  0.1979 -1.0931
 1046TIP3   OH224628   5.620   4.875  14.268  0.3222 -1.1891 -0.5239
 1046TIP3    H124629   5.587   4.786  14.280 -2.6338 -0.0212  1.0453
 1046TIP3    H224630   5.552   4.918  14.216  0.5785  0.6983  0.6125
 1047TIP3   OH224631   5.435   2.986   6.406  0.2765 -0.1637  0.2181
 1047TIP3    H124632   5.375   2.935   6.459 -1.3713  0.8629 -0.5628
 1047TIP3    H224633   5.425   3.076   6.439  0.7200  0.1552 -0.4930
 1048TIP3   OH224634   1.196   3.440   0.275  0.7099  0.1116 -0.6260
 1048TIP3    H124635   1.188   3.473   0.185  2.2879 -2.0169 -1.6399
 1048TIP3    H224636   1.278   3.478   0.307  0.0519  1.0272  0.0477
 1049TIP3   OH224637   0.987   0.424   6.269 -0.5022 -0.3338 -0.3752
 1049TIP3    H124638   1.017   0.337   6.242 -0.7111 -0.5855  0.1732
 1049TIP3    H224639   1.067   0.468   6.299 -0.6411 -1.0218  1.1325
 1050TIP3   OH224640   4.629   1.126  13.766 -0.3232  0.2642  0.3103
 1050TIP3    H124641   4.699   1.156  13.824  1.7208 -0.6700 -1.5136
 1050TIP3    H224642   4.618   1.197  13.703  1.2187 -0.7705 -1.2155
 1051TIP3   OH224643   2.308   2.129   2.049 -0.0935 -0.2380 -0.7002
 1051TIP3    H124644   2.359   2.126   2.130 -1.3661 -1.3059  0.1080
 1051TIP3    H224645   2.364   2.087   1.984  0.9495  0.6432 -0.3967
 1052TIP3   OH224646   5.853   2.346  17.146  0.3857  0.2645  0.4280
 1052TIP3    H124647   5.916   2.275  17.138 -0.9603 -1.1018  1.4226
 1052TIP3    H224648   5.864   2.378  17.235 -0.5691 -0.2574  0.7493
 1053TIP3   OH224649   3.241   1.179  16.932  0.0391 -0.5007  0.0360
 1053TIP3    H124650   3.290   1.221  16.863 -0.3238 -0.7318 -0.3687
 1053TIP3    H224651   3.281   1.092  16.941 -0.4059 -0.7608 -0.4248
 1054TIP3   OH224652   2.831   6.337  12.933 -0.2792 -0.1133 -0.3242
 1054TIP3    H124653   2.743   6.371  12.920  0.1420  0.7513 -0.9702
 1054TIP3    H224654   2.855   6.367  13.021 -0.5437 -0.1592 -0.2363
 1055TIP3   OH224655   1.216   4.356   3.121 -0.1873  0.1835  0.2453
 1055TIP3    H124656   1.195   4.313   3.204 -2.8680 -0.8911 -0.8511
 1055TIP3    H224657   1.180   4.444   3.130  2.1993  1.1260  1.2297
 1056TIP3   OH224658   1.617   2.636  11.704 -0.2529  0.6185 -0.1662
 1056TIP3    H124659   1.616   2.564  11.767 -0.5705  1.1467  0.4317
 1056TIP3    H224660   1.669   2.602  11.631  0.0493 -0.0261  0.3352
 1057TIP3   OH224661   3.683   3.875  14.691 -0.2718 -0.1783 -0.5857
 1057TIP3    H124662   3.728   3.913  14.767 -0.7116  0.8267 -0.8154
 1057TIP3    H224663   3.729   3.910  14.615  0.3455 -1.4070 -0.8013
 1058TIP3   OH224664   1.989   2.293  16.811  0.5344 -0.0817  0.0634
 1058TIP3    H124665   1.930   2.366  16.830 -0.0739 -0.2545 -1.0237
 1058TIP3    H224666   1.943   2.216  16.844  0.3018 -0.1791 -0.4822
 1059TIP3   OH224667   1.416   3.563   4.653 -0.2436 -0.6021 -0.1299
 1059TIP3    H124668   1.416   3.493   4.588  1.4025 -0.8972  0.1380
 1059TIP3    H224669   1.486   3.622   4.625  0.8975 -1.0361  1.6288
 1060TIP3   OH224670   0.598   1.229   0.801 -0.5603  0.1605  0.1362
 1060TIP3    H124671   0.639   1.305   0.842  0.3738 -0.8222  1.1069
 1060TIP3    H224672   0.545   1.190   0.870 -2.6627  1.0104 -0.9139
 1061TIP3   OH224673   2.234   2.767   1.387 -0.0985 -0.0463 -0.2965
 1061TIP3    H124674   2.144   2.796   1.393  0.5487  2.0748 -0.1509
 1061TIP3    H224675   2.266   2.765   1.477 -0.2289 -1.6683 -0.2606
 1062TIP3   OH224676   6.172   2.748   1.504 -0.0791  0.2897  0.2314
 1062TIP3    H124677   6.199   2.657   1.519  1.8264  0.3944 -1.9357
 1062TIP3    H224678   6.098   2.740   1.444 -0.2922  0.1380  0.5154
 1063TIP3   OH224679   5.602   2.541  11.562 -0.1357 -0.0415  0.4012
 1063TIP3    H124680   5.563   2.574  11.481 -1.3017 -0.3833  0.8046
 1063TIP3    H224681   5.691   2.517  11.537 -0.4354 -0.0175 -0.7540
 1064TIP3   OH224682   2.444   2.898  13.390  0.2341  0.0609 -0.0423
 1064TIP3    H124683   2.412   2.818  13.350  1.3740  0.8056 -2.7130
 1064TIP3    H224684   2.367   2.955  13.397 -0.3272 -0.7599  0.6509
 1065TIP3   OH224685   2.451   6.559  16.704  0.4009  0.0772  0.1536
 1065TIP3    H124686   2.458   6.647  16.665 -1.3941  0.5964  0.9259
 1065TIP3    H224687   2.533   6.548  16.752  1.0589  0.9306 -0.7292
 1066TIP3   OH224688   3.832   4.533   5.282 -0.1549 -0.1477 -0.3020
 1066TIP3    H124689   3.920   4.571   5.279  0.3701 -1.3681 -2.4395
 1066TIP3    H224690   3.843   4.450   5.328  0.2097 -1.0984 -2.0200
 1067TIP3   OH224691   0.818   5.248  11.301 -0.2858  0.4893  0.0213
 1067TIP3    H124692   0.757   5.306  11.254 -0.4888 -0.3161 -0.7466
 1067TIP3    H224693   0.904   5.285  11.284 -0.5168  1.3965  0.7568
 1068TIP3   OH224694   1.624   6.090   0.027 -0.0490  0.3212 -0.3131
 1068TIP3    H124695   1.532   6.067   0.037 -0.2207  1.0666 -0.1076
 1068TIP3    H224696   1.638   6.160   0.092  0.5156  0.6071 -0.7380
 1069TIP3   OH224697   2.827   2.264   5.013 -0.2202  0.0831  0.0565
 1069TIP3    H124698   2.771   2.341   5.022 -1.2768 -0.5295 -1.0124
 1069TIP3    H224699   2.848   2.260   4.920  2.3940  0.8016  0.5434
 1070TIP3   OH224700   4.672   3.034   1.605  0.3884  0.0354  0.0582
 1070TIP3    H124701   4.699   3.090   1.678  1.2683  0.0286 -0.2457
 1070TIP3    H224702   4.738   2.964   1.603  0.1190 -0.2085 -0.4649
 1071TIP3   OH224703   2.118   3.386  13.946 -0.3823 -0.1713 -0.2909
 1071TIP3    H124704   2.099   3.324  13.875 -1.4613 -0.5899  0.3442
 1071TIP3    H224705   2.213   3.398  13.942 -0.0856 -2.1108 -0.2642
 1072TIP3   OH224706   4.208   1.939   1.642  0.3148  1.0014 -0.1557
 1072TIP3    H124707   4.238   1.856   1.606 -0.7728  0.5005  0.0798
 1072TIP3    H224708   4.287   1.977   1.681  0.7955 -0.0032 -0.1104
 1073TIP3   OH224709   3.081   4.798   4.560  0.0196  0.0529  0.6968
 1073TIP3    H124710   3.083   4.714   4.514  0.4032  0.7939 -0.7200
 1073TIP3    H224711   3.076   4.775   4.653  0.4236 -1.5235  0.3577
 1074TIP3   OH224712   3.218   5.174  17.353 -0.3526  1.0379 -0.0300
 1074TIP3    H124713   3.208   5.261  17.390  0.4774  1.2590 -0.3042
 1074TIP3    H224714   3.195   5.114  17.425  1.6391  1.4467  1.0242
 1075TIP3   OH224715   4.234   5.073  15.629  0.5841  0.4085  0.3133
 1075TIP3    H124716   4.306   5.067  15.692 -0.2425 -3.1362  1.1334
 1075TIP3    H224717   4.275   5.061  15.544  1.2035  0.9778  0.5156
 1076TIP3   OH224718   4.126   3.006  14.806 -0.3362  0.1410 -0.2814
 1076TIP3    H124719   4.198   2.966  14.855 -0.7239  0.6368  0.7281
 1076TIP3    H224720   4.071   3.046  14.873 -1.0367  0.6119 -1.1162
 1077TIP3   OH224721   1.217   6.465  13.763  0.3489 -0.4778  0.1206
 1077TIP3    H124722   1.153   6.508  13.707  0.0082 -0.3481  0.6053
 1077TIP3    H224723   1.173   6.455  13.848  1.0566 -0.1467  0.5386
 1078TIP3   OH224724   1.700   6.717  13.423 -0.4646  0.7616 -0.0584
 1078TIP3    H124725   1.684   6.797  13.474  0.8336  0.7360  0.4280
 1078TIP3    H224726   1.790   6.726  13.393 -0.4571 -0.3188 -0.3876
 1079TIP3   OH224727   5.847   3.314  16.940  0.8069 -0.3614 -0.4022
 1079TIP3    H124728   5.777   3.361  16.984 -0.5114 -0.8607 -1.8776
 1079TIP3    H224729   5.886   3.259  17.008  1.0745  1.3092  0.8861
 1080TIP3   OH224730   1.476   4.982   4.289  0.2225  0.5599  0.0543
 1080TIP3    H124731   1.502   5.073   4.273  0.5692  0.4643  0.0657
 1080TIP3    H224732   1.506   4.964   4.378 -0.3273  0.6028  0.2493
 1081TIP3   OH224733   6.714   0.242  16.596  0.0467 -0.8245 -0.4978
 1081TIP3    H124734   6.730   0.175  16.662  1.5332 -1.1528 -1.1362
 1081TIP3    H224735   6.754   0.321  16.633 -1.4034 -0.3505  0.1053
 1082TIP3   OH224736   4.194   2.803  16.064  0.4001  0.4556  0.0852
 1082TIP3    H124737   4.172   2.746  16.138 -1.9953  0.9765 -0.1441
 1082TIP3    H224738   4.143   2.883  16.080  0.7375  1.0233 -1.5292
 1083TIP3   OH224739   5.245   4.290  17.206  0.4309 -0.5616  0.3628
 1083TIP3    H124740   5.261   4.255  17.118 -0.5064 -1.0879  0.3938
 1083TIP3    H224741   5.213   4.379  17.191 -2.5219 -1.5913 -0.0192
 1084TIP3   OH224742   0.591   5.360   0.509  0.4914 -0.3564 -0.2976
 1084TIP3    H124743   0.667   5.389   0.560  0.6638 -0.3414 -0.5565
 1084TIP3    H224744   0.519   5.358   0.571  0.9152 -1.3429  0.1876
 1085TIP3   OH224745   0.212   4.786   3.406  0.0452  0.2769  0.5718
 1085TIP3    H124746   0.265   4.864   3.390 -0.1996  0.6808  1.6500
 1085TIP3    H224747   0.123   4.812   3.383 -0.7367  1.6119  4.3861
 1086TIP3   OH224748   6.431   6.319   3.509  0.1638 -0.0941 -0.1467
 1086TIP3    H124749   6.416   6.277   3.425  1.5348 -0.3881 -0.2716
 1086TIP3    H224750   6.459   6.408   3.487  1.0077 -0.3227 -0.0352
 1087TIP3   OH224751   1.234   5.696  14.419  0.9212  0.2932  0.1896
 1087TIP3    H124752   1.204   5.669  14.332 -0.6923  0.7589  0.5785
 1087TIP3    H224753   1.284   5.776  14.402  0.2673  0.6168 -0.2866
 1088TIP3   OH224754   3.613   2.000   3.050  0.3014 -0.3175  0.1779
 1088TIP3    H124755   3.683   1.935   3.055  2.1041  1.5525  0.6871
 1088TIP3    H224756   3.647   2.069   2.993 -1.6803  0.0635 -0.6360
 1089TIP3   OH224757   0.788   0.918  10.690 -0.1362  0.2200 -0.2295
 1089TIP3    H124758   0.758   0.827  10.694 -2.1585  0.8426  0.2550
 1089TIP3    H224759   0.717   0.964  10.644  0.4322  1.6900  0.3010
 1090TIP3   OH224760   6.125   0.716  15.406  0.5626 -0.3850  0.3476
 1090TIP3    H124761   6.156   0.775  15.336  1.1306  1.0035  1.7128
 1090TIP3    H224762   6.099   0.637  15.360  0.2157  0.7520 -1.5277
 1091TIP3   OH224763   6.254   2.172  11.448 -0.2997  0.0849 -0.1555
 1091TIP3    H124764   6.304   2.091  11.437  0.1036  0.4013 -0.7396
 1091TIP3    H224765   6.281   2.227  11.374  0.1851  1.1514  0.7880
 1092TIP3   OH224766   0.247   5.904  13.285  0.0168 -0.1921  0.8167
 1092TIP3    H124767   0.159   5.866  13.291 -0.2398  0.1259 -0.6564
 1092TIP3    H224768   0.232   5.998  13.284  0.3881 -0.1318  0.7270
 1093TIP3   OH224769   1.359   5.975  14.379  0.2393 -0.7719  0.2624
 1093TIP3    H124770   1.412   5.953  14.303 -1.2146  0.2015 -1.1078
 1093TIP3    H224771   1.397   6.056  14.413 -0.3716 -0.0229 -0.7707
 1094TIP3   OH224772   5.518   2.227  16.876 -0.1039 -0.0249  0.1018
 1094TIP3    H124773   5.483   2.257  16.960 -0.0634  1.3998 -0.3610
 1094TIP3    H224774   5.483   2.289  16.812 -0.5751 -1.3920 -1.0269
 1095TIP3   OH224775   3.822   1.945   3.750  0.3894  0.2200  0.0361
 1095TIP3    H124776   3.857   1.939   3.839 -0.4884 -0.1433  0.3682
 1095TIP3    H224777   3.770   1.865   3.739 -1.4347  1.3303  0.0660
 1096TIP3   OH224778   4.622   0.528  11.702  0.6844  0.0920 -0.0229
 1096TIP3    H124779   4.683   0.490  11.639  1.1510  1.2398 -0.2811
 1096TIP3    H224780   4.572   0.592  11.652 -1.1659 -1.1879  0.0432
 1097TIP3   OH224781   4.645   6.618   2.366  0.9411 -0.0233 -0.4951
 1097TIP3    H124782   4.606   6.705   2.376  1.0720  0.4798 -3.5123
 1097TIP3    H224783   4.571   6.558   2.374  0.8636  0.2548  1.7295
 1098TIP3   OH224784   4.592   3.757  16.381 -0.3085  0.2948  0.1117
 1098TIP3    H124785   4.637   3.734  16.300 -0.6836  0.4406 -0.1395
 1098TIP3    H224786   4.655   3.811  16.429  0.0749 -0.1495  0.1103
 1099TIP3   OH224787   1.736   4.846  13.246 -0.3103 -0.2288  0.2674
 1099TIP3    H124788   1.766   4.907  13.314 -1.2412  0.6361 -0.0678
 1099TIP3    H224789   1.678   4.785  13.293  1.7328 -1.8113  0.8855
 1100TIP3   OH224790   0.672   4.947   0.809  0.4664  0.1420  0.0058
 1100TIP3    H124791   0.612   4.876   0.832 -0.5316  1.0796  0.3882
 1100TIP3    H224792   0.615   5.022   0.790  1.4868  0.8191 -0.4868
 1101TIP3   OH224793   0.135   5.607  12.588 -0.2546  0.4050  0.2392
 1101TIP3    H124794   0.199   5.591  12.658  1.5495  3.2924 -0.5559
 1101TIP3    H224795   0.153   5.539  12.523  0.3380 -0.2922  1.1059
 1102TIP3   OH224796   3.205   5.208   0.137  0.2615  0.4709  0.3394
 1102TIP3    H124797   3.121   5.207   0.092  0.6321  0.7374 -0.3769
 1102TIP3    H224798   3.199   5.280   0.200  0.5674  1.6446 -0.9340
 1103TIP3   OH224799   2.489   3.749  13.831  0.1598  0.5946  0.3249
 1103TIP3    H124800   2.428   3.694  13.881  0.4980 -1.7486 -1.6264
 1103TIP3    H224801   2.574   3.734  13.872 -0.1118  1.6682  1.3244
 1104TIP3   OH224802   0.991   5.163  12.795 -0.2274  0.0904  0.4861
 1104TIP3    H124803   0.968   5.127  12.709 -3.3570 -0.7561  1.5459
 1104TIP3    H224804   1.022   5.087  12.845  0.6060  0.3932  0.4527
 1105TIP3   OH224805   4.487   3.538   3.495 -0.1407  0.3274 -0.0407
 1105TIP3    H124806   4.522   3.610   3.442  0.1709 -0.1371 -0.4724
 1105TIP3    H224807   4.393   3.538   3.476 -0.1580  0.6815  0.0364
 1106TIP3   OH224808   5.300   4.493  16.946 -0.0872 -0.3386 -0.1020
 1106TIP3    H124809   5.290   4.418  16.887 -0.6805  0.8883 -1.6397
 1106TIP3    H224810   5.392   4.519  16.935  0.2385 -1.0705  0.7622
 1107TIP3   OH224811   3.098   3.246   4.125 -0.6510  1.0292  0.0279
 1107TIP3    H124812   3.134   3.169   4.169 -1.8619 -0.4129 -1.3940
 1107TIP3    H224813   3.093   3.312   4.194  0.1476 -0.2348  1.3633
 1108TIP3   OH224814   5.936   3.495  13.688 -0.0625 -0.2327  0.2344
 1108TIP3    H124815   5.842   3.483  13.674 -0.3790  2.6563 -0.8175
 1108TIP3    H224816   5.974   3.491  13.600  0.4603  0.6843  0.3985
 1109TIP3   OH224817   3.714   2.884   0.953  0.2332  0.7068  0.4934
 1109TIP3    H124818   3.661   2.963   0.942 -0.0492  0.2795 -1.9541
 1109TIP3    H224819   3.789   2.898   0.896  1.1765 -0.0107  1.5166
 1110TIP3   OH224820   4.194   0.527   3.897  0.5718 -0.1163 -0.6093
 1110TIP3    H124821   4.158   0.440   3.884 -0.5462  0.2844 -0.3222
 1110TIP3    H224822   4.153   0.580   3.828 -1.2831  0.8667  1.1425
 1111TIP3   OH224823   6.674   3.403  13.559  0.6382  0.6043  0.1488
 1111TIP3    H124824   6.586   3.432  13.537 -0.0426 -1.7681 -0.5697
 1111TIP3    H224825   6.727   3.429  13.484  0.2934  0.9210  0.0096
 1112TIP3   OH224826   0.939   2.491  13.183 -0.4972  0.4080 -0.2852
 1112TIP3    H124827   0.906   2.523  13.267  0.7596 -1.9878  1.2386
 1112TIP3    H224828   1.014   2.548  13.163 -0.5643  0.7524  0.4213
 1113TIP3   OH224829   3.806   0.485  15.249 -0.5808 -0.0553 -0.1075
 1113TIP3    H124830   3.722   0.531  15.251 -0.5856  0.0612 -1.7399
 1113TIP3    H224831   3.872   0.553  15.262 -0.6200  0.3507 -1.8504
 1114TIP3   OH224832   2.187   5.846  12.145 -0.3885  0.2495  0.1331
 1114TIP3    H124833   2.235   5.763  12.142 -1.1290 -0.1801 -0.3988
 1114TIP3    H224834   2.199   5.883  12.058  0.2313  0.8871  0.4781
 1115TIP3   OH224835   4.119   5.322   5.534 -0.2304  0.0837 -0.1286
 1115TIP3    H124836   4.154   5.408   5.558 -0.2793 -0.0429  0.3942
 1115TIP3    H224837   4.100   5.279   5.617 -0.0370 -0.5058 -0.3780
 1116TIP3   OH224838   6.127   4.111   3.394 -0.1147 -0.5163  0.1271
 1116TIP3    H124839   6.154   4.202   3.380  0.6588 -1.0261 -2.0663
 1116TIP3    H224840   6.073   4.114   3.474  0.9261  1.6365  0.8308
 1117TIP3   OH224841   6.422   6.614  11.387  0.3382 -0.4837 -0.0365
 1117TIP3    H124842   6.512   6.643  11.371  1.1824 -2.2141  1.3113
 1117TIP3    H224843   6.398   6.565  11.308  0.8189 -0.5636 -0.1380
 1118TIP3   OH224844   5.924   3.894   5.666  0.9320 -0.1544  0.4140
 1118TIP3    H124845   5.874   3.815   5.649  0.5131  0.3058 -0.5248
 1118TIP3    H224846   5.974   3.874   5.746  2.1564 -1.9968 -0.7336
 1119TIP3   OH224847   4.631   5.454  17.367  0.4164  0.0295 -0.6594
 1119TIP3    H124848   4.694   5.394  17.327  1.5511  0.5628  0.2946
 1119TIP3    H224849   4.562   5.463  17.301  0.3689 -2.0570 -0.9703
 1120TIP3   OH224850   5.061   2.400   2.089  0.1968 -0.5991 -0.0897
 1120TIP3    H124851   5.135   2.461   2.089 -0.8779  0.8256 -1.7793
 1120TIP3    H224852   5.084   2.333   2.153  2.5879  0.2119 -0.0163
 1121TIP3   OH224853   5.038   4.506  12.202  0.0961  0.2069 -0.1689
 1121TIP3    H124854   5.095   4.521  12.278 -0.6627 -1.0819  0.6897
 1121TIP3    H224855   5.080   4.434  12.155  0.8434  1.3365 -1.3083
 1122TIP3   OH224856   1.693   0.821  17.276  0.4567  0.0990  0.1347
 1122TIP3    H124857   1.615   0.802  17.225  0.9855 -1.1414 -0.2657
 1122TIP3    H224858   1.665   0.884  17.343 -0.3344  1.4708 -1.4349
 1123TIP3   OH224859   3.209   1.796   4.676 -0.6537 -0.1872  0.3344
 1123TIP3    H124860   3.252   1.832   4.754 -0.4845 -2.1203  1.2043
 1123TIP3    H224861   3.240   1.850   4.604 -1.5849  2.3046  1.6784
 1124TIP3   OH224862   0.053   5.047  15.554 -0.6281  0.3388  0.2343
 1124TIP3    H124863   0.101   5.129  15.565  1.4581 -0.7558 -0.1889
 1124TIP3    H224864  -0.030   5.061  15.601 -0.0332  2.4087  0.7700
 1125TIP3   OH224865   6.390   4.001  12.815 -0.0126  0.2249  0.0320
 1125TIP3    H124866   6.422   3.977  12.903  1.6845  1.6602 -0.1459
 1125TIP3    H224867   6.428   3.935  12.757  1.8200  1.2698 -0.0278
 1126TIP3   OH224868   2.071   2.211   3.483 -0.1659 -0.0958  0.1377
 1126TIP3    H124869   2.079   2.252   3.570  1.0581  1.9722 -0.8666
 1126TIP3    H224870   2.161   2.198   3.454 -0.5627 -1.8385 -0.3773
 1127TIP3   OH224871   4.539   5.903   5.975  1.1958  0.2388  0.0785
 1127TIP3    H124872   4.471   5.862   5.921  2.3380 -1.5046 -0.1408
 1127TIP3    H224873   4.552   5.989   5.936  0.4120 -0.1146 -1.0256
 1128TIP3   OH224874   0.903   0.219  13.830 -0.7122 -0.1139 -0.3927
 1128TIP3    H124875   0.897   0.128  13.860  0.2460 -0.3387 -0.8198
 1128TIP3    H224876   0.813   0.250  13.827 -0.9318 -0.4254  1.6381
 1129TIP3   OH224877   2.292   5.162   2.376 -0.2241 -0.2774 -0.5212
 1129TIP3    H124878   2.321   5.091   2.319  1.1515  0.3447 -0.6196
 1129TIP3    H224879   2.316   5.133   2.464 -1.4509 -0.7923 -0.3343
 1130TIP3   OH224880   5.658   1.034  16.221  0.8416  0.2918 -0.0812
 1130TIP3    H124881   5.706   1.076  16.149 -1.8330  0.8032 -1.7069
 1130TIP3    H224882   5.665   0.940  16.203  2.0111  0.2738  0.3149
 1131TIP3   OH224883   0.932   5.571   1.016 -0.2609 -0.3322  0.6452
 1131TIP3    H124884   0.982   5.569   0.934 -0.1889 -1.7760  0.6904
 1131TIP3    H224885   0.993   5.608   1.080 -0.4268  1.1057 -0.0054
 1132TIP3   OH224886   5.204   1.786  16.932  0.7771 -0.0961 -0.5034
 1132TIP3    H124887   5.277   1.724  16.928  0.9562  0.1548 -1.2529
 1132TIP3    H224888   5.244   1.872  16.920  0.6074  0.2492  1.1262
 1133TIP3   OH224889   3.134   1.071  15.981  0.0471  0.6719 -0.5669
 1133TIP3    H124890   3.215   1.064  15.931 -0.0064 -1.6089 -0.4284
 1133TIP3    H224891   3.085   1.141  15.938  2.1541  2.2981 -0.5010
 1134TIP3   OH224892   3.356   5.596  17.330  0.0213  0.2602 -0.0351
 1134TIP3    H124893   3.381   5.519  17.382  0.8130  1.3216  1.2132
 1134TIP3    H224894   3.439   5.635  17.303 -0.3792  0.1655 -1.4905
 1135TIP3   OH224895   2.574   5.668  14.298  0.5712  0.0654  0.3204
 1135TIP3    H124896   2.482   5.651  14.281  0.1249  2.8325 -0.6101
 1135TIP3    H224897   2.616   5.583  14.290 -1.6054 -0.9559 -1.4676
 1136TIP3   OH224898   5.120   5.825   4.825  0.3504 -0.3997 -0.0618
 1136TIP3    H124899   5.062   5.757   4.857 -1.6941  1.4083  0.3352
 1136TIP3    H224900   5.077   5.859   4.747  2.1298 -0.5781 -1.1794
 1137TIP3   OH224901   2.561   5.594   4.045  0.6363 -0.1258 -0.1669
 1137TIP3    H124902   2.569   5.629   3.957 -0.6863  1.3392  0.2416
 1137TIP3    H224903   2.521   5.507   4.033 -0.7688  0.5998 -0.9569
 1138TIP3   OH224904   1.735   5.610  14.593 -0.2258  0.1713  0.6020
 1138TIP3    H124905   1.779   5.627  14.509 -2.4828 -0.6716 -0.8417
 1138TIP3    H224906   1.715   5.697  14.628 -1.6403  0.5904 -1.1128
 1139TIP3   OH224907   5.939   4.500  12.527 -0.0281  0.1388 -0.1549
 1139TIP3    H124908   5.918   4.590  12.504 -0.5807 -0.0506 -0.4084
 1139TIP3    H224909   6.021   4.482  12.481 -0.1026  0.3998 -0.3911
 1140TIP3   OH224910   5.805   2.256   6.047 -0.3500  0.6827 -0.4689
 1140TIP3    H124911   5.847   2.338   6.022 -2.1040  1.5146 -0.8478
 1140TIP3    H224912   5.857   2.224   6.121  0.5769  1.9468 -0.5423
 1141TIP3   OH224913   0.293   5.903  13.681 -0.3767 -0.3627  0.0190
 1141TIP3    H124914   0.348   5.981  13.682 -2.5712  1.2887 -0.8613
 1141TIP3    H224915   0.221   5.924  13.741 -0.6905 -1.9975  0.2643
 1142TIP3   OH224916   1.574   6.195   1.462 -0.3544  0.0443 -0.0864
 1142TIP3    H124917   1.624   6.272   1.487 -0.1663 -0.0554 -0.1498
 1142TIP3    H224918   1.626   6.121   1.495  0.4710 -0.1464 -1.6894
 1143TIP3   OH224919   1.257   2.857  13.662  0.1998 -0.0214 -0.6952
 1143TIP3    H124920   1.195   2.824  13.597 -0.3109  2.6261 -1.6700
 1143TIP3    H224921   1.340   2.865  13.614  0.8958 -1.7744  0.1119
 1144TIP3   OH224922   2.329   2.257   3.603 -0.1823 -0.4360  0.3191
 1144TIP3    H124923   2.340   2.165   3.625 -0.3364 -0.0952  1.9605
 1144TIP3    H224924   2.349   2.304   3.684 -1.2852  0.9045 -0.1401
 1145TIP3   OH224925   2.112   4.142  12.464  0.6776 -0.1902 -0.3559
 1145TIP3    H124926   2.044   4.105  12.520  0.6152  0.7244  0.1965
 1145TIP3    H224927   2.129   4.229  12.500  1.9320 -0.2809 -0.6636
 1146TIP3   OH224928   0.588   2.581  17.239 -0.3177 -0.4526  0.2323
 1146TIP3    H124929   0.572   2.641  17.167  0.1240 -1.7455 -0.9915
 1146TIP3    H224930   0.684   2.577  17.246 -0.2646 -2.3117 -0.8955
 1147TIP3   OH224931   2.814   6.532  15.166  0.6404  0.1810 -0.2089
 1147TIP3    H124932   2.898   6.489  15.182  0.1967 -1.8281 -2.5975
 1147TIP3    H224933   2.750   6.461  15.168 -0.5850  1.1995 -1.3063
 1148TIP3   OH224934   6.349   3.751  11.343  0.2160  0.4772 -0.3482
 1148TIP3    H124935   6.289   3.824  11.355 -0.6158 -0.3156  0.4790
 1148TIP3    H224936   6.303   3.690  11.284  0.3174 -0.0102  0.0670
 1149TIP3   OH224937   6.403   4.363  13.389  0.0604  0.0567 -0.1030
 1149TIP3    H124938   6.309   4.347  13.383 -0.2120  1.5922 -0.3220
 1149TIP3    H224939   6.427   4.397  13.303 -0.0332  3.5972  1.1304
 1150TIP3   OH224940   3.267   6.176   2.985 -0.0253 -0.1964 -0.1127
 1150TIP3    H124941   3.214   6.122   3.045 -0.5464 -0.3799 -0.7275
 1150TIP3    H224942   3.208   6.245   2.957  0.2737 -0.0075 -0.2795
 1151TIP3   OH224943   5.719   2.808  12.571  0.4630 -0.4228  0.0817
 1151TIP3    H124944   5.626   2.795  12.590  0.0848 -0.4802 -1.5918
 1151TIP3    H224945   5.748   2.873  12.635 -0.2442 -1.7427  1.8191
 1152TIP3   OH224946   3.668   0.969   1.132 -0.1476 -0.4488  0.5479
 1152TIP3    H124947   3.658   0.971   1.227  0.0707  0.7828  0.5603
 1152TIP3    H224948   3.601   1.029   1.099  0.2698 -0.2813 -0.0151
 1153TIP3   OH224949   2.560   1.187   1.845  0.1355 -0.5980  0.0021
 1153TIP3    H124950   2.531   1.192   1.936  0.1127 -0.3588 -0.0194
 1153TIP3    H224951   2.622   1.114   1.844 -0.5165 -1.1629  0.0314
 1154TIP3   OH224952   2.655   6.636  16.975 -0.4786  0.5736 -0.1316
 1154TIP3    H124953   2.617   6.556  17.012 -1.2379  1.5793  1.3600
 1154TIP3    H224954   2.748   6.616  16.965 -1.0337 -1.4005 -2.3651
 1155TIP3   OH224955   5.466   5.020   0.535 -0.4949 -0.4329  1.1056
 1155TIP3    H124956   5.414   5.040   0.457  0.1602 -0.3165  0.6947
 1155TIP3    H224957   5.551   5.059   0.518 -0.2870 -0.5681  1.8060
 1156TIP3   OH224958   2.001   2.293  14.889  0.0691  0.6962 -0.4048
 1156TIP3    H124959   1.914   2.313  14.854 -1.1310 -0.1291  1.8469
 1156TIP3    H224960   2.057   2.283  14.812 -1.4979  2.6247 -1.8744
 1157TIP3   OH224961   6.395   3.660   2.021  0.4630  0.4171  0.6025
 1157TIP3    H124962   6.434   3.637   1.937  0.0622 -1.7456  0.9575
 1157TIP3    H224963   6.467   3.701   2.070  1.2538 -0.1234 -0.0822
 1158TIP3   OH224964   6.724   1.701  13.442 -0.0679  0.1635 -0.4307
 1158TIP3    H124965   6.741   1.642  13.515  1.1836 -1.7350 -2.1397
 1158TIP3    H224966   6.630   1.714  13.442 -0.1783 -0.5333  0.9588
 1159TIP3   OH224967   4.110   5.316  12.358 -0.1139 -0.0306 -0.2376
 1159TIP3    H124968   4.161   5.390  12.391 -0.7125 -0.6276  2.2939
 1159TIP3    H224969   4.089   5.265  12.437 -1.0455 -2.0561 -1.7019
 1160TIP3   OH224970   1.304   0.941   5.518 -0.0726  0.1236  0.4968
 1160TIP3    H124971   1.311   1.036   5.528  0.6171  0.0792  0.4601
 1160TIP3    H224972   1.230   0.916   5.574  1.1410  0.3953  2.2795
 1161TIP3   OH224973   3.042   4.668  16.822 -0.7008  0.3697  0.0749
 1161TIP3    H124974   3.131   4.653  16.853 -0.5559 -1.3320 -1.0141
 1161TIP3    H224975   3.027   4.599  16.756 -2.4521  1.2397 -0.5208
 1162TIP3   OH224976   3.323   5.461   4.481  0.4473 -0.6042  0.2288
 1162TIP3    H124977   3.294   5.543   4.522 -0.6004 -0.7362 -0.2134
 1162TIP3    H224978   3.273   5.393   4.525  0.7887 -0.9433  0.0995
 1163TIP3   OH224979   4.799   5.836   4.438 -0.0458 -0.3683  0.1715
 1163TIP3    H124980   4.714   5.800   4.414  0.5662 -1.3970 -0.5439
 1163TIP3    H224981   4.862   5.785   4.387  0.8356  2.5353 -1.9487
 1164TIP3   OH224982   0.123   1.678   6.437  0.0006  0.4554  0.5486
 1164TIP3    H124983   0.184   1.653   6.507  2.3830  1.0285 -1.2025
 1164TIP3    H224984   0.111   1.598   6.386 -0.3875  0.4500  0.6453
 1165TIP3   OH224985   6.582   1.280  16.121 -0.5458 -0.9052  0.5188
 1165TIP3    H124986   6.631   1.294  16.040 -0.4047  0.7471  0.8429
 1165TIP3    H224987   6.491   1.271  16.093 -0.5517  0.0956  0.1900
 1166TIP3   OH224988   3.018   2.919  12.804  0.1879  0.2198  0.2009
 1166TIP3    H124989   3.003   2.829  12.774  1.5386  0.5095 -1.4684
 1166TIP3    H224990   3.112   2.924  12.821  0.1433  1.3296  0.2130
 1167TIP3   OH224991   0.648   0.935   5.112 -0.1880 -0.0759  0.2417
 1167TIP3    H124992   0.688   1.020   5.129 -1.1100  0.1495  1.4364
 1167TIP3    H224993   0.675   0.881   5.186 -0.2584 -0.5898 -0.1053
 1168TIP3   OH224994   3.318   1.088  16.186 -0.6753  0.9328  0.1414
 1168TIP3    H124995   3.242   1.030  16.183 -0.4011  0.6046 -1.2669
 1168TIP3    H224996   3.343   1.100  16.094  1.3123  0.5755  0.5875
 1169TIP3   OH224997   6.180   2.772   5.979 -0.4178 -0.1511  0.2849
 1169TIP3    H124998   6.271   2.755   6.002  0.4554  1.9076 -1.3323
 1169TIP3    H224999   6.140   2.685   5.973  2.1324 -1.3156 -1.5739
 1170TIP3   OH225000   5.466   1.700  16.182  1.2368  0.0365  0.1133
 1170TIP3    H125001   5.414   1.635  16.231 -0.0927 -0.4309 -1.8082
 1170TIP3    H225002   5.468   1.666  16.092  2.9675  1.2400 -0.3505
 1171TIP3   OH225003   5.213   5.827  11.905  0.4274  0.2128 -0.0423
 1171TIP3    H125004   5.254   5.792  11.985 -2.0722 -1.0897  0.8009
 1171TIP3    H225005   5.152   5.758  11.878 -1.2732  2.0359 -1.1066
 1172TIP3   OH225006   4.299   5.647  17.477 -0.0427  0.1309 -0.2332
 1172TIP3    H125007   4.236   5.587  17.437  0.6495 -0.8764  0.1713
 1172TIP3    H225008   4.245   5.705  17.530 -0.5751 -1.4104  0.9868
 1173TIP3   OH225009   4.778   1.354   3.450 -0.3707  0.0459  0.2852
 1173TIP3    H125010   4.803   1.291   3.518  0.2883  0.1452  0.1404
 1173TIP3    H225011   4.687   1.334   3.431 -1.1866  1.1840  2.5093
 1174TIP3   OH225012   3.857   6.541   5.373 -0.4213 -0.2604 -0.5464
 1174TIP3    H125013   3.866   6.494   5.289 -1.4007 -0.4250 -0.5692
 1174TIP3    H225014   3.861   6.472   5.439  0.4878 -0.1164 -0.4353
 1175TIP3   OH225015   6.587   2.548  12.002 -0.3360  0.0239 -0.0145
 1175TIP3    H125016   6.655   2.586  11.946 -0.0955  1.3361  1.1078
 1175TIP3    H225017   6.506   2.592  11.976 -0.2324  0.6001  0.6101
 1176TIP3   OH225018   4.814   6.673  13.929 -0.6029 -0.8903 -0.1944
 1176TIP3    H125019   4.771   6.672  14.015  1.4909 -1.2711  0.9184
 1176TIP3    H225020   4.895   6.623  13.942 -0.2560 -1.0084 -2.4251
 1177TIP3   OH225021   2.390   4.295   3.077 -0.4992  0.4036 -0.2531
 1177TIP3    H125022   2.328   4.222   3.080 -0.5805  0.5167  1.3887
 1177TIP3    H225023   2.472   4.259   3.110 -0.0487  0.6113 -1.1185
 1178TIP3   OH225024   5.844   3.065  15.122  0.2422 -0.0726 -0.2939
 1178TIP3    H125025   5.883   3.067  15.209  0.6848 -0.1845 -0.4835
 1178TIP3    H225026   5.899   3.125  15.070 -0.9894  1.2855 -0.1100
 1179TIP3   OH225027   6.094   3.817  13.113  0.0758  0.4281 -0.0896
 1179TIP3    H125028   6.097   3.912  13.121  0.7422  0.5592 -1.5536
 1179TIP3    H225029   6.176   3.794  13.070  1.0698 -1.0885  2.3895
 1180TIP3   OH225030   3.869   1.692   1.910 -0.1161 -0.6978 -0.1315
 1180TIP3    H125031   3.848   1.693   2.003 -1.2109 -0.3696 -0.3614
 1180TIP3    H225032   3.959   1.662   1.905 -0.3998 -1.8012  0.9614
 1181TIP3   OH225033   3.663   0.168   0.758 -0.4362 -0.8804 -1.2460
 1181TIP3    H125034   3.630   0.150   0.846 -0.0081 -1.7688 -1.2602
 1181TIP3    H225035   3.698   0.257   0.764 -1.0105 -0.6813 -0.7003
 1182TIP3   OH225036   3.025   4.338   4.238  0.4458  0.1402 -0.2272
 1182TIP3    H125037   3.014   4.255   4.192 -0.9453  0.2058 -0.0368
 1182TIP3    H225038   3.031   4.404   4.168 -0.0701  0.0556 -0.3547
 1183TIP3   OH225039   1.356   3.421  13.150  0.1058  0.1036 -0.3980
 1183TIP3    H125040   1.284   3.408  13.089 -0.2576  0.3968 -0.0303
 1183TIP3    H225041   1.326   3.489  13.210 -0.7102 -2.1398  1.9134
 1184TIP3   OH225042   0.642   4.196  17.655  0.0656  0.0735 -0.3586
 1184TIP3    H125043   0.594   4.279  17.650  0.5261  0.3664  0.1229
 1184TIP3    H225044   0.687   4.198  17.739  2.6045  0.7124 -1.6504
 1185TIP3   OH225045   3.177   4.267  16.076  0.3661 -0.3460  0.3211
 1185TIP3    H125046   3.141   4.237  15.993  0.1538 -0.9028  0.6052
 1185TIP3    H225047   3.224   4.347  16.055  0.9950 -0.9073 -0.4855
 1186TIP3   OH225048   0.657   1.965   0.602  0.1417  0.2981  0.3061
 1186TIP3    H125049   0.646   1.978   0.696  0.5994  2.5611  0.1034
 1186TIP3    H225050   0.748   1.988   0.585 -0.4509  1.9275 -0.9366
 1187TIP3   OH225051   2.433   2.518   4.476 -0.1666  0.0768  0.0455
 1187TIP3    H125052   2.471   2.599   4.510 -1.2752  0.0240  1.4740
 1187TIP3    H225053   2.507   2.469   4.441  0.5443  1.6341 -0.7416
 1188TIP3   OH225054   0.914   2.761   2.012  0.5216 -0.1603  0.2852
 1188TIP3    H125055   0.928   2.676   2.053 -3.8281 -0.7748  1.0282
 1188TIP3    H225056   0.866   2.742   1.932 -1.8445  1.5336  1.1866
 1189TIP3   OH225057   0.003   2.105  15.205  0.1023 -0.2524 -0.4625
 1189TIP3    H125058  -0.021   2.114  15.112  1.0721 -2.2716 -0.9661
 1189TIP3    H225059   0.088   2.148  15.211 -0.6613  1.2775 -0.1105
 1190TIP3   OH225060   0.464   5.490   5.254  0.2313  0.3659 -0.0411
 1190TIP3    H125061   0.404   5.443   5.311  0.8037 -0.0771  0.2000
 1190TIP3    H225062   0.409   5.555   5.209 -1.1420 -2.2504 -2.4272
 1191TIP3   OH225063   4.471   3.926  12.073  0.1022  0.1327  0.3457
 1191TIP3    H125064   4.414   3.858  12.037 -0.6166 -0.7486  2.9574
 1191TIP3    H225065   4.469   3.996  12.007 -3.6514 -0.0574  0.0701
 1192TIP3   OH225066   4.753   3.891   2.889 -0.1529  0.2829  0.6112
 1192TIP3    H125067   4.732   3.970   2.939 -0.6401  0.0238  0.8253
 1192TIP3    H225068   4.817   3.920   2.823 -1.4455  1.1797 -0.2887
 1193TIP3   OH225069   1.746   1.150   6.143 -0.3786  0.5958  0.9313
 1193TIP3    H125070   1.812   1.161   6.074  0.8231 -0.5176  1.8718
 1193TIP3    H225071   1.693   1.077   6.113 -1.2665  1.5163  0.1552
 1194TIP3   OH225072   0.146   6.296   0.625  0.4836 -0.0064  0.2055
 1194TIP3    H125073   0.143   6.340   0.710 -0.7541  1.6253 -0.6028
 1194TIP3    H225074   0.170   6.206   0.645 -0.0247  0.2647  2.3077
 1195TIP3   OH225075   2.014   5.683   0.849  0.7705 -0.4371  0.0155
 1195TIP3    H125076   1.927   5.689   0.810  1.9162  0.5826 -2.6267
 1195TIP3    H225077   2.000   5.639   0.933 -2.2478 -0.3668 -0.3524
 1196TIP3   OH225078   3.696   0.953   3.052 -0.3943  0.0591  0.3257
 1196TIP3    H125079   3.629   0.965   2.984 -1.0996 -2.5717  0.4627
 1196TIP3    H225080   3.668   1.011   3.123 -0.7161  1.3914 -0.8234
 1197TIP3   OH225081   1.232   4.232  12.651 -0.5177  0.2680 -0.5115
 1197TIP3    H125082   1.148   4.253  12.692 -1.6104  0.5353 -2.7322
 1197TIP3    H225083   1.221   4.255  12.559  1.2849 -1.6279 -1.3081
 1198TIP3   OH225084   4.769   1.043  13.059  0.5066 -0.5957  0.0707
 1198TIP3    H125085   4.766   1.001  13.145  1.1360  0.4532  0.6256
 1198TIP3    H225086   4.737   0.976  12.998  0.5317 -1.5232  1.0520
 1199TIP3   OH225087   0.153   3.545   5.479  0.0279 -0.3301  0.4967
 1199TIP3    H125088   0.175   3.637   5.494 -1.8867  0.2547 -0.0274
 1199TIP3    H225089   0.129   3.512   5.566 -2.7877  0.7256  0.2390
 1200TIP3   OH225090   1.488   5.106  15.348  0.0224 -0.2150 -0.3197
 1200TIP3    H125091   1.540   5.137  15.274 -0.4722  0.2313 -0.4853
 1200TIP3    H225092   1.553   5.087  15.417  0.3646  0.8241 -0.3435
 1201TIP3   OH225093   4.162   3.572   1.411 -0.6425 -0.7540  0.1187
 1201TIP3    H125094   4.205   3.645   1.455 -1.4391 -0.6404  0.7395
 1201TIP3    H225095   4.201   3.569   1.324  0.1394 -0.2495  0.4458
 1202TIP3   OH225096   6.693   2.755   1.473 -0.7184 -0.0507  0.0150
 1202TIP3    H125097   6.699   2.693   1.400 -0.7304  0.6193 -0.5616
 1202TIP3    H225098   6.623   2.721   1.528 -1.0508 -0.2897 -0.5490
 1203TIP3   OH225099   6.432   4.625  11.541  0.5341 -0.1494  0.0548
 1203TIP3    H125100   6.357   4.620  11.601 -0.5150 -2.2540 -1.3055
 1203TIP3    H225101   6.396   4.598  11.457  2.4711  0.5527 -1.0444
 1204TIP3   OH225102   2.177   1.683  15.507  0.2452 -0.0446  0.4446
 1204TIP3    H125103   2.179   1.647  15.595  0.8066 -1.4452 -0.1102
 1204TIP3    H225104   2.266   1.711  15.489 -0.1196  1.3816  0.7487
 1205TIP3   OH225105   0.629   5.892   3.379  0.3604  0.4947 -0.5019
 1205TIP3    H125106   0.569   5.880   3.305  0.2258  0.0943 -0.3308
 1205TIP3    H225107   0.679   5.970   3.356  0.9637 -0.1451 -1.4520
 1206TIP3   OH225108   4.489   1.720   0.091 -0.7884 -0.4716  0.9032
 1206TIP3    H125109   4.520   1.751   0.006 -1.5459 -0.1574  0.7252
 1206TIP3    H225110   4.444   1.796   0.129 -2.3533 -1.2075  0.6248
 1207TIP3   OH225111   5.001   1.564  14.958  0.6948  0.3730 -0.7001
 1207TIP3    H125112   4.910   1.535  14.958  0.7304  0.2691 -0.1133
 1207TIP3    H225113   5.014   1.598  14.869 -0.4210  1.9787 -0.3109
 1208TIP3   OH225114   1.496   2.172   5.840  0.0895 -0.2052  0.0948
 1208TIP3    H125115   1.498   2.205   5.750 -2.8171  0.0945  0.0478
 1208TIP3    H225116   1.543   2.089   5.836 -1.0502 -0.8342 -2.0497
 1209TIP3   OH225117   5.053   5.025  14.764  0.2799 -0.4551  0.3146
 1209TIP3    H125118   5.092   4.961  14.704  0.0746  0.9112 -1.3814
 1209TIP3    H225119   4.971   4.985  14.792 -0.6563 -0.3306 -2.0184
 1210TIP3   OH225120   3.140   2.822   3.548 -0.0088 -0.1209  0.2832
 1210TIP3    H125121   3.136   2.744   3.492 -1.4730  0.6080 -0.7137
 1210TIP3    H225122   3.225   2.817   3.591  1.6304 -0.2687 -2.7217
 1211TIP3   OH225123   3.380   1.644  14.567 -0.9473  0.5051 -0.2565
 1211TIP3    H125124   3.474   1.655  14.549 -0.5150 -0.2937  1.3595
 1211TIP3    H225125   3.362   1.552  14.548 -1.0639  0.2979  0.7919
 1212TIP3   OH225126   3.820   5.696  16.694  0.0038  0.1406 -0.0683
 1212TIP3    H125127   3.731   5.688  16.659  0.4170 -0.8090 -0.9789
 1212TIP3    H225128   3.834   5.614  16.742  0.5152  0.1278 -0.2350
 1213TIP3   OH225129   4.242   4.940   0.905 -0.7012 -0.3743  0.0119
 1213TIP3    H125130   4.268   4.990   0.828  0.2892  0.3812  0.8063
 1213TIP3    H225131   4.152   4.968   0.923 -1.0096 -0.6953 -0.9518
 1214TIP3   OH225132   5.186   4.092   4.859  0.0895 -0.1797 -0.2394
 1214TIP3    H125133   5.099   4.070   4.826  0.8549 -4.4663  0.0610
 1214TIP3    H225134   5.236   4.115   4.780 -0.4119 -1.2886 -0.8979
 1215TIP3   OH225135   3.286   4.702  12.598 -0.2968  0.2105  0.2936
 1215TIP3    H125136   3.280   4.775  12.659 -0.1330  0.1729  0.3552
 1215TIP3    H225137   3.308   4.743  12.514 -2.1045  0.4286 -0.1057
 1216TIP3   OH225138   3.184   2.561   1.015 -0.0831 -0.5006 -0.3358
 1216TIP3    H125139   3.145   2.474   1.010  1.3528 -1.1705 -0.5595
 1216TIP3    H225140   3.179   2.595   0.925 -2.6292  0.6179  0.1468
 1217TIP3   OH225141   2.188   2.273   4.509  0.4724  0.0306 -0.0237
 1217TIP3    H125142   2.111   2.258   4.453 -0.2465 -0.2570  1.0087
 1217TIP3    H225143   2.163   2.349   4.563  1.1151  0.2414 -0.0202
 1218TIP3   OH225144   0.642   6.301   5.925 -0.3589  0.1515  0.3885
 1218TIP3    H125145   0.715   6.308   5.864  0.1232 -1.5339  0.7313
 1218TIP3    H225146   0.572   6.353   5.885 -0.4098 -1.6864 -2.1470
 1219TIP3   OH225147   6.000   6.075  13.094  0.6031 -0.0713  0.3123
 1219TIP3    H125148   6.058   6.122  13.033 -0.1083  2.7740  1.6301
 1219TIP3    H225149   6.059   6.046  13.164  0.8097  0.5497  0.4029
 1220TIP3   OH225150   3.609   5.481   6.604 -0.0967  0.5193  0.4469
 1220TIP3    H125151   3.542   5.525   6.656 -0.3922 -0.4554  0.8999
 1220TIP3    H225152   3.628   5.400   6.652 -0.5954 -0.5569 -1.0969
 1221TIP3   OH225153   3.877   1.923  16.539  0.0059  0.4365 -0.3002
 1221TIP3    H125154   3.947   1.878  16.586 -3.5683 -3.8885  1.5875
 1221TIP3    H225155   3.834   1.976  16.605 -0.9840 -0.2889 -0.3470
 1222TIP3   OH225156   2.536   1.560   2.120 -0.3112 -0.4789 -0.1438
 1222TIP3    H125157   2.554   1.504   2.195 -0.0386 -0.3966 -0.1473
 1222TIP3    H225158   2.452   1.601   2.141 -0.5227 -0.9019 -0.1504
 1223TIP3   OH225159   0.575   3.209   4.122 -0.4724  0.1392  0.4797
 1223TIP3    H125160   0.646   3.255   4.078  1.0798 -1.6821  0.9952
 1223TIP3    H225161   0.548   3.269   4.193  0.1675  1.0627 -0.0380
 1224TIP3   OH225162   1.513   4.032  15.210  0.5283  0.3771  0.2211
 1224TIP3    H125163   1.528   4.118  15.248  1.1466  0.0723  0.6926
 1224TIP3    H225164   1.509   3.973  15.286 -1.0346  0.1368 -0.0125
 1225TIP3   OH225165   2.817   4.049  12.485 -0.1206  0.1061  0.6105
 1225TIP3    H125166   2.762   3.999  12.425  0.0143 -0.3684  0.8828
 1225TIP3    H225167   2.904   4.048  12.445 -0.8034  3.2964 -1.3636
 1226TIP3   OH225168   6.601   6.465  12.245  0.3600  0.2727 -0.6197
 1226TIP3    H125169   6.528   6.483  12.303  0.6252 -0.2535 -0.1104
 1226TIP3    H225170   6.666   6.532  12.267 -0.4519  1.5561 -1.9795
 1227TIP3   OH225171   3.109   1.099  13.493 -0.2650  1.2185 -0.3712
 1227TIP3    H125172   3.197   1.080  13.524  0.0559  0.1489 -1.7890
 1227TIP3    H225173   3.122   1.160  13.420 -0.6279  0.6037 -0.9620
 1228TIP3   OH225174   1.829   5.563   5.210 -0.6146  0.1448  0.8947
 1228TIP3    H125175   1.883   5.591   5.284  1.4578  0.9833 -0.7965
 1228TIP3    H225176   1.889   5.511   5.156 -1.8499  0.1514 -0.5497
 1229TIP3   OH225177   3.680   3.992   1.602  0.1103 -0.3280  0.1442
 1229TIP3    H125178   3.690   4.010   1.508  1.6324 -0.7620  0.2050
 1229TIP3    H225179   3.753   4.037   1.644 -0.0000 -0.9255  1.0197
 1230TIP3   OH225180   5.071   1.738   1.877  0.1980  0.2925  0.9205
 1230TIP3    H125181   5.076   1.833   1.865  1.6516  0.0379 -0.8845
 1230TIP3    H225182   5.039   1.704   1.793 -1.9617 -0.7532  2.0666
 1231TIP3   OH225183   0.475   0.326  16.634 -0.0422  0.3903 -0.0837
 1231TIP3    H125184   0.548   0.357  16.579 -0.2551  0.1521 -0.5039
 1231TIP3    H225185   0.400   0.323  16.575 -0.6791  1.7455  0.6162
 1232TIP3   OH225186   2.117   4.416  13.185  0.5712  0.2934 -0.0752
 1232TIP3    H125187   2.041   4.359  13.190  0.9970 -0.2610  0.2968
 1232TIP3    H225188   2.082   4.502  13.162 -0.5608  0.7957  3.0595
 1233TIP3   OH225189   2.973   5.538  15.103  0.3063 -0.1452  0.3597
 1233TIP3    H125190   2.918   5.546  15.025 -0.6505 -1.4761  0.8577
 1233TIP3    H225191   3.000   5.628  15.123 -0.2772  0.3323 -0.8991
 1234TIP3   OH225192   3.701   0.128   1.554  0.1247  0.2023 -0.2047
 1234TIP3    H125193   3.682   0.036   1.567  2.4979 -0.4268 -0.5986
 1234TIP3    H225194   3.679   0.169   1.637  0.4996 -1.0123  0.5194
 1235TIP3   OH225195   4.449   5.722   0.544 -0.5997  0.1142  0.3463
 1235TIP3    H125196   4.423   5.658   0.478 -0.2878 -0.0894  0.4177
 1235TIP3    H225197   4.529   5.686   0.583 -0.1292  0.7893  0.0319
 1236TIP3   OH225198   4.509   4.486   3.260  0.9118 -0.0206  0.6621
 1236TIP3    H125199   4.471   4.530   3.184  0.5122 -0.6919  0.4704
 1236TIP3    H225200   4.455   4.513   3.334  1.9756  1.5572  0.9372
 1237TIP3   OH225201   5.238   4.044  14.219 -0.1304 -0.4709 -0.0354
 1237TIP3    H125202   5.315   4.059  14.274 -0.3474  0.8542 -0.0776
 1237TIP3    H225203   5.204   4.131  14.201 -2.3891 -1.0508  1.0569
 1238TIP3   OH225204   0.022   2.264  17.560 -0.0110 -0.4494 -0.0495
 1238TIP3    H125205   0.036   2.359  17.565  1.6546 -0.5994 -1.2816
 1238TIP3    H225206   0.108   2.227  17.542 -1.1619 -1.8708 -3.2810
 1239TIP3   OH225207   5.578   4.897   2.174  0.2121 -0.1764 -0.2778
 1239TIP3    H125208   5.582   4.877   2.081 -0.2748 -2.3303  0.0957
 1239TIP3    H225209   5.490   4.931   2.189  0.3060  0.2094 -0.6030
 1240TIP3   OH225210   6.230   0.120   1.247 -0.1210  0.0335 -0.2172
 1240TIP3    H125211   6.136   0.118   1.225 -0.0464  0.3878 -0.5777
 1240TIP3    H225212   6.231   0.139   1.341 -0.4227 -0.5913 -0.0803
 1241TIP3   OH225213   5.046   5.902   5.128 -0.1747  0.1677 -0.1543
 1241TIP3    H125214   5.119   5.859   5.084 -1.0085 -2.4171  0.7577
 1241TIP3    H225215   5.085   5.974   5.177  1.7903 -1.1555  0.3357
 1242TIP3   OH225216   3.041   2.905   3.782  0.0723 -0.6003  0.4107
 1242TIP3    H125217   3.116   2.921   3.840  1.3572  0.2585 -1.3914
 1242TIP3    H225218   3.080   2.885   3.697 -1.7550  0.1220 -0.6595
 1243TIP3   OH225219   4.198   0.330  17.225  0.1704  0.1042  0.1316
 1243TIP3    H125220   4.133   0.396  17.247 -0.5155  0.2253 -1.9926
 1243TIP3    H225221   4.152   0.270  17.167  1.2677 -1.2858  0.6531
 1244TIP3   OH225222   0.296   4.722   0.514  1.0458  0.5560 -0.3240
 1244TIP3    H125223   0.324   4.693   0.601 -0.5344  0.0529  0.0420
 1244TIP3    H225224   0.367   4.778   0.483  0.2633  3.4433  2.6311
 1245TIP3   OH225225   6.386   5.491   2.293 -0.5859  0.0972  0.4702
 1245TIP3    H125226   6.314   5.552   2.278 -0.9154 -0.0434  1.4210
 1245TIP3    H225227   6.465   5.541   2.270 -1.0478 -0.6888 -3.6731
 1246TIP3   OH225228   1.778   1.313   5.750 -0.4218  0.2125 -0.1533
 1246TIP3    H125229   1.747   1.401   5.728 -0.2044  0.4462  0.4497
 1246TIP3    H225230   1.868   1.326   5.779 -0.7454 -0.0535  1.0044
 1247TIP3   OH225231   2.018   6.621  16.686  0.3470 -0.0412 -0.0036
 1247TIP3    H125232   1.961   6.546  16.704 -0.6099  1.0489  1.8611
 1247TIP3    H225233   1.962   6.681  16.636  0.9970 -0.3853 -1.1798
 1248TIP3   OH225234   4.252   2.064   3.833  0.0103 -0.1633 -0.1159
 1248TIP3    H125235   4.186   2.132   3.820  0.3257 -0.0410 -1.1875
 1248TIP3    H225236   4.201   1.985   3.851 -0.3812  0.2089  0.4257
 1249TIP3   OH225237   1.434   0.388  17.061 -0.3851  0.1294  0.1614
 1249TIP3    H125238   1.497   0.454  17.032 -0.1504 -0.0107  0.3581
 1249TIP3    H225239   1.477   0.305  17.044 -0.0613  0.0433  1.3229
 1250TIP3   OH225240   5.550   6.175  11.209 -1.2085 -0.5352 -0.3811
 1250TIP3    H125241   5.480   6.209  11.265  0.6857  4.3574 -0.4795
 1250TIP3    H225242   5.598   6.114  11.264 -1.7663  1.0388  1.9705
 1251TIP3   OH225243   4.548   6.178   0.948  0.7188 -0.1114  0.0089
 1251TIP3    H125244   4.482   6.116   0.916 -0.2598  0.6137  0.5472
 1251TIP3    H225245   4.579   6.223   0.869  1.8262 -1.6175 -0.4509
 1252TIP3   OH225246   0.811   2.973  15.486 -0.2819 -0.1904  0.2442
 1252TIP3    H125247   0.863   2.998  15.562  1.1696  0.9049 -1.0464
 1252TIP3    H225248   0.841   2.885  15.465  0.5716  0.1732 -0.0847
 1253TIP3   OH225249   6.029   6.126   4.167  0.3043  0.0631  0.2406
 1253TIP3    H125250   6.035   6.030   4.172  0.5622  0.0835  0.3422
 1253TIP3    H225251   6.113   6.153   4.131 -0.1356  0.1826 -0.7174
 1254TIP3   OH225252   0.166   4.368  15.440  0.0925 -0.3005 -0.1089
 1254TIP3    H125253   0.152   4.335  15.351 -1.8973  0.3587 -0.1048
 1254TIP3    H225254   0.177   4.462  15.429  1.8398 -0.4466  0.2031
 1255TIP3   OH225255   5.092   3.461   2.681 -0.2574 -0.6574 -0.1524
 1255TIP3    H125256   5.182   3.431   2.670 -0.0401  0.2420 -1.0218
 1255TIP3    H225257   5.100   3.540   2.736 -0.5761 -0.8818  0.2235
 1256TIP3   OH225258   2.335   0.556   4.203 -0.3781 -0.4929  0.3604
 1256TIP3    H125259   2.253   0.507   4.192  0.2951 -1.9088  1.3054
 1256TIP3    H225260   2.325   0.632   4.146 -2.1443 -0.8868  0.0779
 1257TIP3   OH225261   1.697   2.265  14.558  0.4272  0.2566  0.1894
 1257TIP3    H125262   1.604   2.243  14.551 -0.0713  0.2817  4.2575
 1257TIP3    H225263   1.738   2.183  14.586  1.1804  0.8326  0.7981
 1258TIP3   OH225264   0.720   0.916  12.040 -0.3540  0.4632  0.1234
 1258TIP3    H125265   0.650   0.854  12.060 -0.0870  0.4599  1.0971
 1258TIP3    H225266   0.759   0.883  11.959  0.0436 -0.8636  0.8329
 1259TIP3   OH225267   3.314   5.283   1.489 -0.5187  0.1629 -0.1182
 1259TIP3    H125268   3.260   5.336   1.548  0.0187  0.6013 -0.0158
 1259TIP3    H225269   3.254   5.215   1.456 -0.7522 -0.2813  1.1647
 1260TIP3   OH225270   2.246   4.913   1.420  0.0130 -0.3647  0.3471
 1260TIP3    H125271   2.278   4.856   1.350  0.2530  0.9620 -0.6499
 1260TIP3    H225272   2.235   4.998   1.379  1.0935  0.7005  2.1267
 1261TIP3   OH225273   3.098   2.774  11.653  0.2718  0.5414 -0.3670
 1261TIP3    H125274   3.097   2.836  11.580  1.4586 -0.3031 -1.1456
 1261TIP3    H225275   3.152   2.701  11.621  1.4904  0.4928  1.6324
 1262TIP3   OH225276   1.524   6.656  12.920  1.0776 -0.1930 -0.3777
 1262TIP3    H125277   1.617   6.647  12.898  1.1784 -1.1795  0.3557
 1262TIP3    H225278   1.523   6.696  13.007  0.7678  0.9520 -0.8914
 1263TIP3   OH225279   6.694   5.957  13.606  0.1241 -0.1712  0.0356
 1263TIP3    H125280   6.753   5.914  13.543  1.2117  0.1038  0.8400
 1263TIP3    H225281   6.670   5.888  13.668  0.5042 -0.0204  0.3515
 1264TIP3   OH225282   1.330   0.147   2.065 -0.3024 -0.6889  0.1797
 1264TIP3    H125283   1.292   0.163   1.979  0.4733  1.1820  0.1453
 1264TIP3    H225284   1.423   0.133   2.048  0.6456  3.4215  0.8775
 1265TIP3   OH225285   6.479   3.844   2.836 -0.0859  0.0706  0.9343
 1265TIP3    H125286   6.434   3.790   2.901  1.9426 -0.9867  1.5542
 1265TIP3    H225287   6.503   3.923   2.884 -2.1900  1.1582  0.2931
 1266TIP3   OH225288   2.484   5.498   2.513  0.0980 -0.4642 -0.2511
 1266TIP3    H125289   2.425   5.471   2.583  0.6330 -0.7046  0.1111
 1266TIP3    H225290   2.460   5.444   2.438 -0.7407  0.0655 -0.3834
 1267TIP3   OH225291   2.388   1.460   0.675  0.1081 -0.4914 -0.8159
 1267TIP3    H125292   2.358   1.511   0.600 -0.7377 -0.9482 -0.8053
 1267TIP3    H225293   2.483   1.452   0.663  0.1911  0.6713 -1.0618
 1268TIP3   OH225294   5.968   1.943   2.409  0.2024  0.2146  0.2473
 1268TIP3    H125295   5.933   1.977   2.326  0.7439  1.2783  0.4394
 1268TIP3    H225296   6.061   1.929   2.392  0.1580 -0.3492  0.4418
 1269TIP3   OH225297   1.553   0.377   2.312 -0.3205 -0.4954  0.5295
 1269TIP3    H125298   1.508   0.340   2.387 -0.3939 -0.0627  0.7023
 1269TIP3    H225299   1.618   0.311   2.287 -0.1373 -0.5383  1.1157
 1270TIP3   OH225300   0.427   5.459  15.674 -0.3275  0.2014  0.0127
 1270TIP3    H125301   0.388   5.373  15.692 -0.5600  0.2887 -0.0664
 1270TIP3    H225302   0.358   5.521  15.697 -1.1525  0.2839 -2.3565
 1271TIP3   OH225303   1.479   4.428   3.214 -0.3947  0.2568 -0.6678
 1271TIP3    H125304   1.408   4.387   3.263  0.6647  1.5110  2.1464
 1271TIP3    H225305   1.440   4.452   3.130 -2.3492 -1.9350 -0.4948
 1272TIP3   OH225306   6.232   5.099   0.681  0.0920 -0.1606  0.3297
 1272TIP3    H125307   6.177   5.082   0.605 -0.8423  0.2041  0.9034
 1272TIP3    H225308   6.322   5.096   0.648 -0.2493 -1.0702 -0.5715
 1273TIP3   OH225309   2.244   3.453   9.142 -0.2200  0.5641 -0.1020
 1273TIP3    H125310   2.152   3.472   9.125 -0.2588  0.8947  0.4326
 1273TIP3    H225311   2.248   3.358   9.148 -0.8595  0.5928  1.5211
 1274TIP3   OH225312   1.500   1.886  14.419  0.0997 -0.3145 -0.0016
 1274TIP3    H125313   1.547   1.884  14.336  0.2631 -1.0433  0.1083
 1274TIP3    H225314   1.422   1.834  14.404  0.4168 -0.9345  0.4728
 1275TIP3   OH225315   1.225   6.437  14.957  0.3558 -0.1677  0.0860
 1275TIP3    H125316   1.169   6.394  14.893  0.1218  0.7788 -0.3602
 1275TIP3    H225317   1.303   6.462  14.908  0.7412 -0.5827  0.4745
 1276TIP3   OH225318   3.889   4.693   1.998 -0.0487  0.0836 -0.1983
 1276TIP3    H125319   3.883   4.745   2.079 -2.1503 -1.7729  0.9690
 1276TIP3    H225320   3.821   4.731   1.941 -1.5680 -1.2337  0.6456
 1277TIP3   OH225321   1.115   5.064  12.090  0.6400 -0.1218  0.5205
 1277TIP3    H125322   1.065   5.143  12.110 -0.0816 -0.8774  1.8814
 1277TIP3    H225323   1.146   5.077  12.000 -1.6925  0.5513 -0.2604
 1278TIP3   OH225324   4.824   0.447  15.982 -0.6703  0.5918 -0.0106
 1278TIP3    H125325   4.757   0.514  15.987 -1.0193  0.2471 -0.0424
 1278TIP3    H225326   4.810   0.393  16.060 -0.8558  0.1196 -0.3713
 1279TIP3   OH225327   6.080   5.067   4.682  0.2264 -0.1129  0.6672
 1279TIP3    H125328   6.094   5.127   4.610  1.3635  0.9414  1.7226
 1279TIP3    H225329   6.004   5.015   4.656  0.4630  0.4071 -1.1519
 1280TIP3   OH225330   2.400   5.844  16.040 -0.7698  0.0072 -0.3733
 1280TIP3    H125331   2.374   5.899  16.114 -1.4357 -0.4636 -0.2553
 1280TIP3    H225332   2.371   5.756  16.063 -0.1929 -0.3056 -0.8040
 1281TIP3   OH225333   5.410   1.474   4.874 -0.0550  0.0034 -0.1447
 1281TIP3    H125334   5.431   1.381   4.866  0.5705  0.2137 -1.0341
 1281TIP3    H225335   5.348   1.491   4.803  0.6500  0.4941 -0.6532
 1282TIP3   OH225336   5.054   2.923   4.184 -0.7046  0.2090  0.1313
 1282TIP3    H125337   4.979   2.972   4.148 -1.7002 -0.4282  1.2595
 1282TIP3    H225338   5.103   2.894   4.107 -1.2401  1.2057 -0.6147
 1283TIP3   OH225339   2.594   6.736  13.234 -0.2896  0.0858 -0.0218
 1283TIP3    H125340   2.580   6.802  13.166 -1.5877 -0.4002 -0.2370
 1283TIP3    H225341   2.539   6.765  13.307  1.3185  0.7716  0.9737
 1284TIP3   OH225342   4.982   4.711  11.981  0.2410  0.1984  0.6084
 1284TIP3    H125343   4.983   4.652  12.056  1.2067 -1.0545 -0.3440
 1284TIP3    H225344   5.000   4.798  12.018 -3.0899  0.3052  2.2869
 1285TIP3   OH225345   2.917   4.616   4.151  0.4370 -0.3121  0.3176
 1285TIP3    H125346   2.961   4.687   4.104  0.1343  0.4434  1.1532
 1285TIP3    H225347   2.841   4.596   4.096 -0.1308  0.8308  0.6432
 1286TIP3   OH225348   5.597   5.228   2.985  0.0982 -0.5751  0.4321
 1286TIP3    H125349   5.606   5.272   3.070 -2.2231 -1.1966  1.0846
 1286TIP3    H225350   5.682   5.239   2.943  1.5532 -0.7865  3.0941
 1287TIP3   OH225351   1.781   3.793   0.363 -0.0696 -0.1590 -0.0751
 1287TIP3    H125352   1.821   3.725   0.308 -0.0290  0.0632 -0.3206
 1287TIP3    H225353   1.797   3.763   0.452 -0.9099 -0.9819 -0.1818
 1288TIP3   OH225354   5.433   5.280   0.862 -0.0187 -0.3298  0.3068
 1288TIP3    H125355   5.481   5.357   0.833 -0.1796 -0.4129 -0.1807
 1288TIP3    H225356   5.355   5.315   0.906  0.3738 -0.1996  0.9080
 1289TIP3   OH225357   2.892   4.383   3.155  0.1863  0.0710 -0.6088
 1289TIP3    H125358   2.946   4.434   3.216  0.4187 -1.5005  0.5625
 1289TIP3    H225359   2.818   4.441   3.136 -0.1702  0.4412  1.6083
 1290TIP3   OH225360   5.078   0.167  12.374 -0.5211  0.2143 -0.4204
 1290TIP3    H125361   5.010   0.102  12.394 -0.8321  0.9068  0.8916
 1290TIP3    H225362   5.137   0.164  12.450  0.6184  0.0156 -1.2909
 1291TIP3   OH225363   3.741   1.167   6.128  0.2850  0.0797 -1.0954
 1291TIP3    H125364   3.824   1.190   6.087  0.7174 -0.3818 -0.5053
 1291TIP3    H225365   3.718   1.244   6.180  0.5565  0.0593 -0.9399
 1292TIP3   OH225366   4.263   5.927  11.081  0.6363  0.3430 -1.4190
 1292TIP3    H125367   4.208   5.922  11.003 -1.3407 -0.1919 -0.0741
 1292TIP3    H225368   4.246   5.845  11.128  0.8906  1.1215  0.1248
 1293TIP3   OH225369   0.530   6.020   2.790  0.0309 -0.4795  0.4438
 1293TIP3    H125370   0.494   6.108   2.803 -0.6055 -0.2495 -2.2845
 1293TIP3    H225371   0.543   5.986   2.879 -0.9684  1.8423  1.5649
 1294TIP3   OH225372   2.462   1.759   5.031 -0.8966  0.1835  0.2418
 1294TIP3    H125373   2.375   1.781   5.063 -1.2254 -0.1462 -0.4016
 1294TIP3    H225374   2.451   1.675   4.987 -1.0501  1.7524 -2.9974
 1295TIP3   OH225375   3.903   5.501   4.003  0.6948  0.1875 -0.4981
 1295TIP3    H125376   3.868   5.497   4.092  0.4637  0.7070 -0.5615
 1295TIP3    H225377   3.969   5.570   4.006  0.3076  0.5808 -0.8555
 1296TIP3   OH225378   2.800   5.696  13.983 -0.6222 -0.0853  0.7826
 1296TIP3    H125379   2.854   5.617  13.985  0.9426  0.9053  0.0677
 1296TIP3    H225380   2.746   5.687  13.905  1.5959  0.7556 -0.9607
 1297TIP3   OH225381   3.284   0.241  15.257  0.0903 -0.2910 -0.4831
 1297TIP3    H125382   3.283   0.263  15.351 -1.0493 -0.6270 -0.4062
 1297TIP3    H225383   3.372   0.207  15.242  0.2920 -0.2334  0.4635
 1298TIP3   OH225384   4.978   1.740   0.581 -0.3908  0.1113 -0.3833
 1298TIP3    H125385   5.008   1.687   0.655 -1.4384  0.3223  0.2186
 1298TIP3    H225386   4.984   1.682   0.505  1.1401  0.0365 -0.2382
 1299TIP3   OH225387   3.503   1.935   6.535  0.2439  0.1868  0.0112
 1299TIP3    H125388   3.526   1.908   6.446 -0.7154  0.7498 -0.4271
 1299TIP3    H225389   3.411   1.910   6.543  0.8344 -1.7474  1.5929
 1300TIP3   OH225390   5.698   3.296  17.536 -0.5107 -0.4836  0.7093
 1300TIP3    H125391   5.656   3.248  17.464 -1.7871  1.8690 -0.1979
 1300TIP3    H225392   5.774   3.242  17.558 -0.5189 -1.7281 -1.8502
 1301TIP3   OH225393   0.345   5.587   4.384  0.3816 -0.0074  0.2464
 1301TIP3    H125394   0.435   5.611   4.408  0.2446  0.1209  0.6382
 1301TIP3    H225395   0.320   5.521   4.448  0.5550 -0.7978 -0.4869
 1302TIP3   OH225396   1.434   5.968  17.146  0.0439  0.1967 -0.0614
 1302TIP3    H125397   1.513   6.007  17.109  1.5093 -2.0169  0.6061
 1302TIP3    H225398   1.415   6.021  17.223  1.6332  0.0004  0.4884
 1303TIP3   OH225399   3.867   3.665  14.005  0.0436 -0.2315  0.1023
 1303TIP3    H125400   3.874   3.756  13.977  1.5636  0.1768  1.6096
 1303TIP3    H225401   3.867   3.615  13.924  0.9127  1.0364 -0.7315
 1304TIP3   OH225402   0.328   1.174  14.923 -0.6467 -0.4024 -0.6743
 1304TIP3    H125403   0.375   1.256  14.937 -1.2875  0.2001 -1.8743
 1304TIP3    H225404   0.369   1.112  14.984  2.7344 -0.3354 -2.5913
 1305TIP3   OH225405   0.775   5.040   3.274  0.1871 -0.3679  0.4133
 1305TIP3    H125406   0.843   5.012   3.335  0.0144  0.2035  0.8687
 1305TIP3    H225407   0.774   5.136   3.281 -1.4861 -0.4134  1.3113
 1306TIP3   OH225408   6.707   3.061   6.861 -0.7313 -0.0349 -0.0791
 1306TIP3    H125409   6.649   3.012   6.918 -2.4697  0.8513 -0.9817
 1306TIP3    H225410   6.767   2.996   6.824 -1.2890 -1.0164  0.7192
 1307TIP3   OH225411   3.311   5.596  15.053 -0.0217  0.0839 -0.2369
 1307TIP3    H125412   3.314   5.646  14.972 -0.8712 -0.2880 -0.5065
 1307TIP3    H225413   3.322   5.505  15.025 -0.9595 -0.1107 -0.0171
 1308TIP3   OH225414   4.205   1.141  16.277  0.4069 -0.6147  0.4141
 1308TIP3    H125415   4.260   1.220  16.281  0.0969 -0.3088 -0.9983
 1308TIP3    H225416   4.230   1.098  16.195 -1.2956 -0.5961 -0.1470
 1309TIP3   OH225417   2.376   0.340   0.166  0.6141  0.3036 -0.1645
 1309TIP3    H125418   2.296   0.288   0.168  1.4230 -0.9972  2.0513
 1309TIP3    H225419   2.444   0.278   0.136  0.8555  1.3499 -1.8914
 1310TIP3   OH225420   0.524   6.513   2.773  1.1302 -0.3273 -0.4014
 1310TIP3    H125421   0.590   6.450   2.744 -1.1050 -2.5231 -1.0691
 1310TIP3    H225422   0.494   6.555   2.693  1.2586  0.1714 -0.1879
 1311TIP3   OH225423   3.618   2.556  17.087 -0.3053  0.2497 -0.0195
 1311TIP3    H125424   3.634   2.477  17.138  0.7629  0.4813  0.0371
 1311TIP3    H225425   3.697   2.609  17.100  1.2462 -0.7729 -3.9846
 1312TIP3   OH225426   5.936   5.351   0.061 -0.3850  0.3525 -0.0130
 1312TIP3    H125427   5.918   5.343   0.155 -2.6916  1.2047 -0.3263
 1312TIP3    H225428   5.877   5.287   0.020  2.3155 -1.7940 -0.8221
 1313TIP3   OH225429   5.506   1.342  15.478 -0.6164 -0.3489  0.3635
 1313TIP3    H125430   5.582   1.289  15.501  0.3553  0.4368 -0.9021
 1313TIP3    H225431   5.443   1.280  15.442  0.4159 -0.7038 -0.8984
 1314TIP3   OH225432   0.614   3.033   2.701 -0.0665 -0.5135  0.0302
 1314TIP3    H125433   0.669   3.111   2.697 -1.5328  0.4905 -1.1806
 1314TIP3    H225434   0.618   2.996   2.613 -0.2711 -1.1900  0.3006
 1315TIP3   OH225435   1.964   6.419   0.485  0.1059  0.5777  0.3741
 1315TIP3    H125436   1.986   6.366   0.562  0.2531 -1.7762 -1.1801
 1315TIP3    H225437   2.031   6.487   0.482  2.0774 -1.2515  0.5544
 1316TIP3   OH225438   4.510   5.658   4.385 -0.2710 -0.3457  0.1673
 1316TIP3    H125439   4.426   5.621   4.359 -0.2518  0.3011 -0.8544
 1316TIP3    H225440   4.540   5.707   4.309 -0.6438  2.4110  1.6891
 1317TIP3   OH225441   0.296   2.390  17.417 -0.2879  0.4303  0.5255
 1317TIP3    H125442   0.312   2.372  17.324  0.3616 -1.6983  1.0003
 1317TIP3    H225443   0.206   2.422  17.420 -0.4274  0.2239 -0.8045
 1318TIP3   OH225444   6.711   4.543   4.605 -0.0466  0.0105 -0.4466
 1318TIP3    H125445   6.679   4.462   4.643 -0.2944  1.2045  2.1300
 1318TIP3    H225446   6.805   4.544   4.627 -0.2488  0.8442  0.4528
 1319TIP3   OH225447   4.263   3.365  15.622 -0.1943 -0.3172  0.1650
 1319TIP3    H125448   4.171   3.379  15.599 -0.2507 -1.8311 -0.6877
 1319TIP3    H225449   4.265   3.278  15.662  0.9057 -0.4090 -0.0559
 1320TIP3   OH225450   1.537   5.910   1.293  0.1023  0.5190  0.0694
 1320TIP3    H125451   1.587   5.897   1.374  1.0072 -2.1250 -0.7880
 1320TIP3    H225452   1.462   5.963   1.319  1.7692  2.0671  2.0371
 1321TIP3   OH225453   1.142   2.188  13.711 -0.3984 -0.2766 -0.3027
 1321TIP3    H125454   1.224   2.236  13.719 -0.1338 -0.5846 -1.0750
 1321TIP3    H225455   1.142   2.125  13.783 -0.5422  0.5687  0.4498
 1322TIP3   OH225456   1.188   6.047  12.425  0.4141 -0.0026 -0.1389
 1322TIP3    H125457   1.156   6.113  12.486 -0.7406 -0.2628 -0.4520
 1322TIP3    H225458   1.112   6.025  12.371  0.7275 -1.7332  0.0891
 1323TIP3   OH225459   1.410   0.216   2.585  0.3479 -0.8626  0.2835
 1323TIP3    H125460   1.470   0.184   2.653  0.7738 -1.8279 -0.5106
 1323TIP3    H225461   1.415   0.150   2.516  1.8387  1.2565 -1.8021
 1324TIP3   OH225462   5.996   4.652  14.800  0.2785  0.5670 -0.2785
 1324TIP3    H125463   5.991   4.748  14.803 -1.9256  0.5339 -0.9978
 1324TIP3    H225464   5.971   4.630  14.710 -0.9345 -0.7289  0.3459
 1325TIP3   OH225465   5.203   0.285   6.351 -0.0803 -0.8297 -0.2595
 1325TIP3    H125466   5.271   0.352   6.349  1.4243 -2.2968 -0.3587
 1325TIP3    H225467   5.164   0.294   6.438  1.2959 -0.9408  0.4016
 1326TIP3   OH225468   5.973   0.895  13.911  0.1557 -0.1810 -0.1873
 1326TIP3    H125469   6.020   0.815  13.936 -0.1368  0.3229  2.3009
 1326TIP3    H225470   6.042   0.954  13.880  0.1966 -1.8593 -3.8687
 1327TIP3   OH225471   2.816   1.475   4.307 -0.6309 -0.3399 -0.4633
 1327TIP3    H125472   2.745   1.538   4.297 -0.5261 -0.0405  0.5109
 1327TIP3    H225473   2.881   1.521   4.360 -0.5289 -1.2397  0.2133
 1328TIP3   OH225474   6.126   1.637   1.164 -0.9262  0.1227  0.0241
 1328TIP3    H125475   6.186   1.583   1.112 -0.8818 -0.8460  1.0415
 1328TIP3    H225476   6.178   1.714   1.188 -0.5009 -0.0938 -0.1890
 1329TIP3   OH225477   0.895   5.487  16.381  0.1572  0.9655 -0.0641
 1329TIP3    H125478   0.854   5.402  16.398 -0.5051  1.4226  0.7653
 1329TIP3    H225479   0.976   5.466  16.336  1.2396 -0.2995  2.2636
 1330TIP3   OH225480   6.324   0.542   6.855  0.2820  0.2902 -0.1289
 1330TIP3    H125481   6.343   0.452   6.884  0.4275  0.4934  0.4160
 1330TIP3    H225482   6.333   0.538   6.760 -1.2214 -0.6297 -0.2638
 1331TIP3   OH225483   6.151   1.320   3.254 -0.0813 -0.0288  0.5988
 1331TIP3    H125484   6.061   1.351   3.252  0.6053  2.1060 -0.4999
 1331TIP3    H225485   6.197   1.385   3.307  1.1511  0.0585 -0.5183
 1332TIP3   OH225486   3.070   0.373   2.710  0.5630 -0.2093 -0.1433
 1332TIP3    H125487   3.121   0.422   2.775  0.7978 -1.2058  0.4401
 1332TIP3    H225488   3.044   0.439   2.646  3.9542  0.1639 -1.3727
 1333TIP3   OH225489   1.917   4.553  16.781  0.4329  0.7867  0.4638
 1333TIP3    H125490   1.826   4.523  16.789  0.5989  0.7172  2.9923
 1333TIP3    H225491   1.910   4.637  16.737 -0.9258  0.9551  0.9329
 1334TIP3   OH225492   1.683   5.142   3.299  0.2161  0.4236 -0.2159
 1334TIP3    H125493   1.629   5.136   3.221 -0.0262  0.0652 -0.0217
 1334TIP3    H225494   1.632   5.199   3.358  0.5435  0.9505 -0.4366
 1335TIP3   OH225495   3.362   1.043   3.782 -0.0031  0.4917  0.5679
 1335TIP3    H125496   3.395   1.024   3.694 -1.3359 -1.0912  0.3649
 1335TIP3    H225497   3.419   1.113   3.814  0.5570  1.0734 -1.5186
 1336TIP3   OH225498   1.186   1.802   2.120 -0.3556  0.0730  0.0980
 1336TIP3    H125499   1.173   1.798   2.025  0.3718  0.0635 -0.0074
 1336TIP3    H225500   1.101   1.779   2.157 -0.3070 -1.2871 -0.5503
 1337TIP3   OH225501   3.852   5.177  17.006 -0.5865 -0.1430  0.0952
 1337TIP3    H125502   3.797   5.099  17.016  1.3614 -1.4131  1.5943
 1337TIP3    H225503   3.896   5.165  16.922 -0.7166 -0.3906  0.0609
 1338TIP3   OH225504   6.604   5.556   3.312 -0.5644  0.1572 -0.4565
 1338TIP3    H125505   6.590   5.496   3.386 -4.3858 -1.2356 -2.0287
 1338TIP3    H225506   6.630   5.638   3.352  0.7669 -1.3917  2.1369
 1339TIP3   OH225507   1.066   2.349  17.282 -0.1442  0.0165 -0.2452
 1339TIP3    H125508   1.033   2.269  17.241 -0.0816 -0.5718  0.8120
 1339TIP3    H225509   1.157   2.329  17.305 -0.6158 -0.2688  1.5788
 1340TIP3   OH225510   1.856   0.943   5.817 -0.5887 -0.2619 -0.4209
 1340TIP3    H125511   1.784   0.925   5.877 -0.2089 -1.0336 -0.1781
 1340TIP3    H225512   1.903   1.017   5.856 -1.1351  0.1191 -0.4854
 1341TIP3   OH225513   3.985   2.834  17.345 -0.5375  0.3387 -0.2398
 1341TIP3    H125514   4.080   2.820  17.337 -0.5920 -1.3154  1.2057
 1341TIP3    H225515   3.964   2.900  17.280  1.1849 -1.1609 -2.4566
 1342TIP3   OH225516   4.698   5.533   5.588 -0.5232 -0.4187 -0.0281
 1342TIP3    H125517   4.633   5.469   5.615 -0.7430 -0.5460 -0.8265
 1342TIP3    H225518   4.713   5.515   5.496 -0.5307  0.6220 -0.2534
 1343TIP3   OH225519   6.595   0.259  15.918 -0.3961 -0.0806  0.5585
 1343TIP3    H125520   6.679   0.302  15.905 -0.2182 -0.0333  1.7342
 1343TIP3    H225521   6.616   0.166  15.921 -0.5999 -0.1741 -0.6561
 1344TIP3   OH225522   5.866   4.176  13.311  0.4909 -0.4392 -0.6301
 1344TIP3    H125523   5.798   4.191  13.376  0.8782 -0.2643 -0.2642
 1344TIP3    H225524   5.819   4.141  13.235  0.0466 -0.6700 -0.2517
 1345TIP3   OH225525   3.831   0.526   6.104  0.1440  0.5332 -0.4810
 1345TIP3    H125526   3.904   0.581   6.133  1.1077 -1.0313  0.1816
 1345TIP3    H225527   3.871   0.444   6.079 -1.3661 -0.2652 -0.3997
 1346TIP3   OH225528   3.613   0.286   4.347 -0.1144  0.3201 -0.2198
 1346TIP3    H125529   3.671   0.347   4.302 -1.0112  1.1127 -0.3487
 1346TIP3    H225530   3.586   0.223   4.280 -0.9508  1.1257 -0.6625
 1347TIP3   OH225531   5.220   3.248   2.969 -0.4229  0.1006  0.0198
 1347TIP3    H125532   5.293   3.298   2.930 -1.4365  0.6867 -1.2035
 1347TIP3    H225533   5.159   3.315   2.999 -2.1109 -0.2999 -2.2311
 1348TIP3   OH225534   5.416   5.417  12.309 -0.0526 -0.3736  0.3706
 1348TIP3    H125535   5.499   5.443  12.348  0.7057 -0.0346 -1.4254
 1348TIP3    H225536   5.431   5.329  12.277 -1.5591 -1.8577  3.2781
 1349TIP3   OH225537   4.749   4.697   5.650  0.3832  0.3689  0.3749
 1349TIP3    H125538   4.688   4.663   5.716  0.1785  1.3066  0.6826
 1349TIP3    H225539   4.701   4.688   5.567  0.6555 -0.8420  0.3289
 1350TIP3   OH225540   5.344   0.504   0.209  0.2437  0.8978 -0.0191
 1350TIP3    H125541   5.305   0.439   0.268 -1.4039  0.0507 -1.9131
 1350TIP3    H225542   5.269   0.552   0.174  1.1292  1.1835 -1.6186
 1351TIP3   OH225543   2.091   3.222   6.433  0.1786  0.2696 -0.0853
 1351TIP3    H125544   2.105   3.299   6.488  1.2777  0.4606 -0.5913
 1351TIP3    H225545   1.998   3.223   6.413 -0.0733  0.7022  1.0194
 1352TIP3   OH225546   5.889   4.178   4.474  0.3834 -0.6621  0.3558
 1352TIP3    H125547   5.978   4.203   4.500  0.5546  0.5131 -1.1735
 1352TIP3    H225548   5.901   4.110   4.408  0.1430 -0.5342  0.1787
 1353TIP3   OH225549   3.675   0.662   4.148 -0.0615 -0.1967  0.2124
 1353TIP3    H125550   3.687   0.745   4.102 -0.1598  0.1244  0.7608
 1353TIP3    H225551   3.596   0.675   4.200 -0.4748 -0.8804 -0.2424
 1354TIP3   OH225552   2.162   3.282  11.719 -0.2630  0.4359  0.1484
 1354TIP3    H125553   2.145   3.230  11.797 -2.5170  0.3816 -0.2933
 1354TIP3    H225554   2.225   3.231  11.669 -0.0790 -0.3482  1.1566
 1355TIP3   OH225555   4.059   1.007  17.009 -0.1560 -0.3554 -0.0297
 1355TIP3    H125556   4.004   0.973  17.079  0.4927  0.1473  0.7467
 1355TIP3    H225557   4.013   0.983  16.929 -2.0385  0.9170  0.5944
 1356TIP3   OH225558   0.040   3.947  12.643 -0.3113  0.3296  0.1017
 1356TIP3    H125559   0.084   3.869  12.610 -0.9108  0.4217 -0.9655
 1356TIP3    H225560  -0.044   3.915  12.677 -0.0107  0.3389  0.8694
 1357TIP3   OH225561   3.898   3.521   0.600 -0.2734  0.2120 -0.1356
 1357TIP3    H125562   3.886   3.448   0.539 -1.8763 -1.7213  2.2755
 1357TIP3    H225563   3.821   3.576   0.587  0.1714  0.6755 -0.8915
 1358TIP3   OH225564   2.672   3.265   6.844 -0.0448 -0.0860 -0.2975
 1358TIP3    H125565   2.626   3.318   6.909  1.0483  0.3946  0.1044
 1358TIP3    H225566   2.659   3.175   6.873 -3.2185 -0.2339 -1.8244
 1359TIP3   OH225567   0.188   6.468  13.005  0.0178 -0.3438  0.4451
 1359TIP3    H125568   0.259   6.404  13.010 -1.1832 -1.9429 -1.5604
 1359TIP3    H225569   0.227   6.543  12.959  1.0323 -0.1873  1.5068
 1360TIP3   OH225570   3.201   1.734   5.165  0.6821 -0.4321  0.0234
 1360TIP3    H125571   3.229   1.825   5.157 -0.3845 -0.0693  0.2824
 1360TIP3    H225572   3.113   1.739   5.201 -0.2292 -1.4843 -1.9197
 1361TIP3   OH225573   6.735   2.254   1.520 -0.0726  0.2064 -0.3325
 1361TIP3    H125574   6.643   2.282   1.523 -0.8092 -1.7125 -2.2726
 1361TIP3    H225575   6.779   2.311   1.582 -2.7941  0.3093  1.6871
 1362TIP3   OH225576   6.657   0.549   3.040  0.4993  0.5565  0.2563
 1362TIP3    H125577   6.658   0.457   3.066  0.9956  0.8397  1.2502
 1362TIP3    H225578   6.702   0.550   2.955 -0.9823 -0.3397 -0.5890
 1363TIP3   OH225579   3.971   6.337  17.664  0.2764 -0.1949  0.0655
 1363TIP3    H125580   3.953   6.429  17.684  0.0744 -0.1185 -0.4563
 1363TIP3    H225581   4.066   6.328  17.677  0.1965 -0.0741  0.7396
 1364TIP3   OH225582   4.713   1.262  13.246  0.0670 -0.2237  0.1771
 1364TIP3    H125583   4.747   1.239  13.159 -1.8563  0.2232 -0.7517
 1364TIP3    H225584   4.773   1.220  13.307  1.5170 -0.4974 -1.3665
 1365TIP3   OH225585   2.103   0.447   1.423  0.1972 -0.2772  0.2057
 1365TIP3    H125586   2.152   0.502   1.485 -1.4532  0.9563  0.4672
 1365TIP3    H225587   2.118   0.488   1.338  0.2026 -0.3306  0.1810
 1366TIP3   OH225588   4.249   1.448  12.642 -0.7550  0.0006 -0.0865
 1366TIP3    H125589   4.341   1.470  12.634 -0.8242 -0.1034 -1.3358
 1366TIP3    H225590   4.246   1.386  12.716  0.3645 -0.9959 -0.8304
 1367TIP3   OH225591   4.283   4.494   1.551 -0.0739  0.1033  0.3581
 1367TIP3    H125592   4.346   4.533   1.490  1.7538  0.4565  2.3433
 1367TIP3    H225593   4.198   4.516   1.515  0.8339 -1.6389 -3.2687
 1368TIP3   OH225594   5.271   1.814  15.801 -0.4265  0.0805 -0.2391
 1368TIP3    H125595   5.315   1.879  15.747  0.5811 -1.0297 -0.7932
 1368TIP3    H225596   5.283   1.845  15.891 -0.2697  0.8252 -0.5100
 1369TIP3   OH225597   5.456   5.342   0.086  0.1718 -0.1511 -0.2937
 1369TIP3    H125598   5.527   5.314   0.144 -0.7671  1.3942  1.7265
 1369TIP3    H225599   5.500   5.381   0.011  1.6057  2.6183  1.8143
 1370TIP3   OH225600   2.058   4.756   0.620  0.2593 -0.3643  0.0681
 1370TIP3    H125601   2.127   4.801   0.668  0.2518  0.6767 -0.8844
 1370TIP3    H225602   2.015   4.701   0.687  1.2106 -0.1050  0.9177
 1371TIP3   OH225603   0.814   2.694  14.841  0.0162 -0.3965 -0.0071
 1371TIP3    H125604   0.853   2.607  14.849  0.1034 -0.3094  0.5969
 1371TIP3    H225605   0.742   2.694  14.905  0.7268  0.3467  0.8363
 1372TIP3   OH225606   2.477   4.715  14.836  0.0920 -0.0529 -0.2079
 1372TIP3    H125607   2.390   4.753  14.821 -1.1547 -1.8227  1.9274
 1372TIP3    H225608   2.538   4.777  14.796 -2.0002  2.4472  0.2370
 1373TIP3   OH225609   1.721   1.157   2.173 -0.2152 -0.0051  0.5503
 1373TIP3    H125610   1.690   1.188   2.258  0.2638 -0.0823  0.7565
 1373TIP3    H225611   1.713   1.062   2.177  0.3529 -0.0513  0.7330
 1374TIP3   OH225612   5.646   3.772   2.607  0.2502 -0.4305  0.4751
 1374TIP3    H125613   5.677   3.728   2.686  3.2542  0.1754 -0.2397
 1374TIP3    H225614   5.679   3.719   2.535 -0.5641  0.2009 -0.3912
 1375TIP3   OH225615   5.978   5.758  11.399 -0.0407 -0.3926  0.6058
 1375TIP3    H125616   6.006   5.670  11.426 -0.5709 -1.0020 -0.7143
 1375TIP3    H225617   6.046   5.787  11.339  0.3110  0.2697  1.3095
 1376TIP3   OH225618   3.891   3.586   3.234 -0.0651 -0.3344 -0.6113
 1376TIP3    H125619   3.859   3.596   3.144  3.0011  0.0506 -1.7484
 1376TIP3    H225620   3.813   3.599   3.288 -1.8238  0.4230 -3.1523
 1377TIP3   OH225621   1.118   2.694   0.035 -0.0884  0.1818  0.0477
 1377TIP3    H125622   1.186   2.699  -0.033  0.9383 -1.4754  0.8882
 1377TIP3    H225623   1.070   2.776   0.026  0.3481  0.2731 -2.3192
 1378TIP3   OH225624   2.021   0.426   3.416  0.1970 -0.1454  1.1814
 1378TIP3    H125625   2.024   0.520   3.398 -0.7065 -0.0077  1.7275
 1378TIP3    H225626   1.966   0.417   3.494 -0.8700 -1.2387  0.3498
 1379TIP3   OH225627   1.042   6.611   5.579  0.0586  0.2501 -1.0436
 1379TIP3    H125628   0.968   6.598   5.639 -0.4391  0.4612 -1.5957
 1379TIP3    H225629   1.107   6.659   5.630  1.5805 -3.3542  0.7978
 1380TIP3   OH225630   2.333   1.134  16.535  0.2409  0.5536 -0.3071
 1380TIP3    H125631   2.352   1.223  16.565 -1.0359  0.1728  1.9120
 1380TIP3    H225632   2.415   1.086  16.550  0.2516  0.8634  0.7216
 1381TIP3   OH225633   1.880   6.559  15.991 -0.0356  0.6895  0.1887
 1381TIP3    H125634   1.890   6.645  15.950 -1.2659  0.3854 -0.7874
 1381TIP3    H225635   1.816   6.573  16.061 -0.5829  0.4680 -0.2687
 1382TIP3   OH225636   6.042   1.195  16.799  0.3799 -0.4653  0.1251
 1382TIP3    H125637   6.030   1.140  16.721  0.6786  0.6285 -0.7138
 1382TIP3    H225638   5.953   1.214  16.828  0.2580 -0.6065 -0.1505
 1383TIP3   OH225639   2.964   4.965   0.492  0.7221  0.4563 -0.8540
 1383TIP3    H125640   3.018   4.913   0.432 -1.0887  2.2359 -4.3120
 1383TIP3    H225641   3.008   5.050   0.496  0.3523  0.6318 -0.3043
 1384TIP3   OH225642   0.198   6.190  16.024  0.5312  0.3682 -0.2743
 1384TIP3    H125643   0.228   6.100  16.016 -0.5485 -0.1734  1.3753
 1384TIP3    H225644   0.152   6.208  15.942  3.4037  0.5467 -1.9931
 1385TIP3   OH225645   0.673   0.190   1.591 -0.8966 -0.4284 -0.2495
 1385TIP3    H125646   0.746   0.187   1.652 -0.7761  0.1141 -0.3604
 1385TIP3    H225647   0.714   0.183   1.505 -0.7797  1.6829 -0.4178
 1386TIP3   OH225648   0.346   3.529   4.238  0.7023  0.1294 -0.5762
 1386TIP3    H125649   0.296   3.545   4.157  0.6567 -0.2819 -0.6329
 1386TIP3    H225650   0.286   3.479   4.293  0.2109  1.6129  0.2906
 1387TIP3   OH225651   3.391   2.916  17.669 -0.2760  0.8370  0.1074
 1387TIP3    H125652   3.481   2.923  17.700 -0.3176  0.4875  0.3130
 1387TIP3    H225653   3.345   2.989  17.710 -0.2621  0.5570  0.6222
 1388TIP3   OH225654   2.528   6.306  12.474  0.9126 -0.0452 -0.8779
 1388TIP3    H125655   2.496   6.396  12.478  0.0475 -0.2676 -2.2144
 1388TIP3    H225656   2.475   6.264  12.406  0.3660 -1.9572  0.6401
 1389TIP3   OH225657   6.012   2.513  12.308  0.2628  0.0954 -0.0679
 1389TIP3    H125658   6.055   2.520  12.222 -0.2665  0.5146 -0.2997
 1389TIP3    H225659   6.019   2.420  12.330  0.2739 -0.0436 -0.6350
 1390TIP3   OH225660   5.710   2.205   2.688 -0.9535 -0.0153  0.1880
 1390TIP3    H125661   5.647   2.272   2.662  0.5392  1.7020  0.8272
 1390TIP3    H225662   5.747   2.237   2.770 -0.0909 -1.5762  0.4469
 1391TIP3   OH225663   2.721   5.111  15.915 -0.1400  0.4128  0.3391
 1391TIP3    H125664   2.637   5.065  15.919 -0.4957  1.1340  1.7370
 1391TIP3    H225665   2.729   5.138  15.823 -2.3056  1.8680  0.4923
 1392TIP3   OH225666   2.144   3.785   5.571  0.1527  0.6556 -0.4889
 1392TIP3    H125667   2.197   3.776   5.650  0.2928  1.0398 -0.5389
 1392TIP3    H225668   2.065   3.734   5.589  1.6518 -2.2771 -1.4353
 1393TIP3   OH225669   4.775   2.898  16.698  0.7768  0.2165 -0.0020
 1393TIP3    H125670   4.765   2.991  16.675 -0.2126  0.2654  0.5738
 1393TIP3    H225671   4.814   2.858  16.620  0.3060  0.9400 -0.6196
 1394TIP3   OH225672   4.463   4.565   0.301 -0.6122  0.5234  0.1357
 1394TIP3    H125673   4.392   4.506   0.328 -0.2756  0.0811  0.0731
 1394TIP3    H225674   4.513   4.514   0.237  0.0909  0.6174  0.5996
 1395TIP3   OH225675   6.303   6.678   6.623  0.0068  0.3705 -0.2089
 1395TIP3    H125676   6.305   6.587   6.654  1.9665  0.3885 -0.1597
 1395TIP3    H225677   6.228   6.681   6.564 -0.2686 -1.2147  0.0081
 1396TIP3   OH225678   2.614   5.850  16.897 -0.2136 -0.4369  0.0619
 1396TIP3    H125679   2.686   5.844  16.960 -0.0431  0.1906 -0.0633
 1396TIP3    H225680   2.643   5.799  16.822 -0.3483 -1.0552  0.4286
 1397TIP3   OH225681   1.000   1.519  12.956  0.0575  0.3117  0.0534
 1397TIP3    H125682   1.089   1.500  12.927 -0.1687 -0.0902 -0.3913
 1397TIP3    H225683   1.011   1.572  13.036  0.6907  1.1121 -0.5463
 1398TIP3   OH225684   6.558   0.537  12.000 -0.3704  0.3325  0.0401
 1398TIP3    H125685   6.518   0.557  11.915  0.3239  1.9272  0.0580
 1398TIP3    H225686   6.504   0.583  12.064  0.2716  0.7962  0.2595
 1399TIP3   OH225687   4.041   3.419  16.179 -0.7408 -0.1199 -0.6713
 1399TIP3    H125688   4.104   3.387  16.244 -0.2406  0.7861 -0.6886
 1399TIP3    H225689   4.022   3.509  16.207 -1.2126 -0.0316 -1.2645
 1400TIP3   OH225690   3.302   4.301   0.174 -0.0088  0.1648  0.6305
 1400TIP3    H125691   3.239   4.231   0.154 -1.6404  1.4669  0.9770
 1400TIP3    H225692   3.299   4.310   0.269 -1.4696  2.0845  0.4735
 1401TIP3   OH225693   1.343   1.076   4.850  0.0178  0.4322  0.3244
 1401TIP3    H125694   1.382   0.994   4.879  0.8472  0.7737  0.2020
 1401TIP3    H225695   1.256   1.077   4.891 -0.0219 -0.5211  0.2822
 1402TIP3   OH225696   3.177   0.682   0.944  0.3056  0.4677  0.4877
 1402TIP3    H125697   3.175   0.591   0.914 -1.2206  1.1362 -1.7044
 1402TIP3    H225698   3.269   0.697   0.968  0.7894 -1.3683 -0.0218
 1403TIP3   OH225699   4.805   3.378   2.982 -0.3046  0.1777 -0.3234
 1403TIP3    H125700   4.711   3.365   2.988 -0.7568  2.4122 -1.5992
 1403TIP3    H225701   4.822   3.387   2.888  1.1692 -0.0162 -0.1081
 1404TIP3   OH225702   2.069   0.321   2.129  0.0715 -0.1865  0.4471
 1404TIP3    H125703   2.111   0.285   2.207  0.5309 -0.8952 -0.1044
 1404TIP3    H225704   2.140   0.363   2.081  0.1705 -1.2906 -0.4340
 1405TIP3   OH225705   1.067   4.224   4.587  0.4661 -0.0656 -0.5461
 1405TIP3    H125706   1.153   4.187   4.571  0.7449  0.4712 -0.3289
 1405TIP3    H225707   1.077   4.317   4.568  0.1801  0.1627  0.3470
 1406TIP3   OH225708   0.004   3.420  14.702  0.0611  0.1858 -0.4464
 1406TIP3    H125709   0.045   3.354  14.757 -0.1814 -0.0818 -0.5820
 1406TIP3    H225710  -0.006   3.496  14.759  0.0414 -0.0047 -0.1937
 1407TIP3   OH225711   4.562   3.082   0.423  0.1366 -0.3820 -0.5295
 1407TIP3    H125712   4.633   3.090   0.360 -0.5046 -0.5762 -1.2966
 1407TIP3    H225713   4.583   3.144   0.493  0.8319 -0.1375 -0.9558
 1408TIP3   OH225714   0.781   3.820   1.747  0.3490 -0.0945 -0.0218
 1408TIP3    H125715   0.860   3.784   1.788  0.2234 -1.3023 -0.7956
 1408TIP3    H225716   0.712   3.807   1.812  0.4725 -0.5490  0.0269
 1409TIP3   OH225717   6.441   5.783  15.268 -0.5649  0.0001  0.4543
 1409TIP3    H125718   6.371   5.840  15.300  0.4893  2.3726 -1.1334
 1409TIP3    H225719   6.404   5.742  15.189 -1.3125 -1.5993  1.5791
 1410TIP3   OH225720   1.968   5.534  14.747 -0.6584  0.1296 -0.5342
 1410TIP3    H125721   1.925   5.474  14.808  0.3013  0.1958  0.2271
 1410TIP3    H225722   1.900   5.556  14.684 -0.9077 -2.1474 -1.1401
 1411TIP3   OH225723   0.658   0.615   4.780 -0.0539  0.3004 -0.5681
 1411TIP3    H125724   0.688   0.692   4.829 -0.3052  0.5263 -0.7673
 1411TIP3    H225725   0.718   0.546   4.806 -0.5553  0.2524  0.5628
 1412TIP3   OH225726   6.634   4.219  16.623 -0.1532  0.5981  0.5218
 1412TIP3    H125727   6.571   4.275  16.669  0.1247  1.1782  0.2095
 1412TIP3    H225728   6.719   4.255  16.645  0.0451  0.1410  0.5124
 1413TIP3   OH225729   2.028   1.799  15.182  0.1541 -0.1562 -0.5471
 1413TIP3    H125730   1.986   1.817  15.266  0.8875 -1.5230  0.1544
 1413TIP3    H225731   2.091   1.870  15.170  1.6771 -1.1232  1.2163
 1414TIP3   OH225732   5.757   0.992   3.658  0.3288 -0.0188  0.6313
 1414TIP3    H125733   5.696   0.919   3.672 -0.4443  1.1345  4.4505
 1414TIP3    H225734   5.704   1.071   3.671  1.1746  1.4056 -3.1895
 1415TIP3   OH225735   2.977   3.583   6.089 -0.2008 -0.4718  0.6799
 1415TIP3    H125736   2.994   3.489   6.094 -1.3444 -0.6863  0.8038
 1415TIP3    H225737   2.967   3.611   6.180  1.5217  0.0680  0.7457
 1416TIP3   OH225738   3.710   6.577   1.554  0.6941  0.0725  0.0797
 1416TIP3    H125739   3.657   6.575   1.474  2.5952 -3.5806 -1.3435
 1416TIP3    H225740   3.659   6.525   1.616 -0.6745  2.7232  1.3344
 1417TIP3   OH225741   3.413   3.781  14.763  0.1299  0.2479  0.4288
 1417TIP3    H125742   3.338   3.840  14.760  0.1824  0.3810  1.6125
 1417TIP3    H225743   3.489   3.838  14.763  0.2379  0.1202 -0.3785
 1418TIP3   OH225744   5.016   5.899  12.950 -0.1176 -0.7803 -0.4481
 1418TIP3    H125745   5.023   5.935  12.862 -1.2222  0.3033 -0.1171
 1418TIP3    H225746   5.017   5.804  12.937  1.4126 -0.6486 -1.4604
 1419TIP3   OH225747   0.350   5.258  14.346  0.2558 -0.0902  0.1388
 1419TIP3    H125748   0.335   5.167  14.322  0.7156  0.1666 -1.2227
 1419TIP3    H225749   0.440   5.259  14.379  0.9057  0.1523 -1.5494
 1420TIP3   OH225750   4.344   2.368  17.065 -0.2687 -0.2223  0.0834
 1420TIP3    H125751   4.394   2.322  16.998 -1.2627 -0.3425 -0.6073
 1420TIP3    H225752   4.273   2.308  17.087 -0.9919  0.5479 -0.0844
 1421TIP3   OH225753   5.802   0.073   4.300  0.0559  0.0991  0.5106
 1421TIP3    H125754   5.820  -0.021   4.294  0.3605  0.0988  1.3228
 1421TIP3    H225755   5.820   0.095   4.392 -2.5084  0.4172  1.0307
 1422TIP3   OH225756   0.817   3.505   0.810 -0.1812 -0.5915  1.4837
 1422TIP3    H125757   0.730   3.497   0.850 -0.9313  0.6392  0.1640
 1422TIP3    H225758   0.802   3.493   0.716  1.1392 -0.7437  1.2725
 1423TIP3   OH225759   0.079   0.549  11.469 -0.1300  0.6960  0.1033
 1423TIP3    H125760   0.133   0.491  11.414 -0.0809  0.5292  0.3236
 1423TIP3    H225761   0.009   0.492  11.501 -1.2722  1.2394 -1.3167
 1424TIP3   OH225762   4.404   0.035   4.493 -0.2093 -0.4350 -0.1763
 1424TIP3    H125763   4.360   0.117   4.470  0.7495 -0.1536 -1.1072
 1424TIP3    H225764   4.412   0.039   4.589 -2.7109 -0.8032  0.1048
 1425TIP3   OH225765   2.346   3.032  13.985  0.3164 -0.0787  0.0285
 1425TIP3    H125766   2.329   2.956  13.928  0.9821  0.5597 -1.0708
 1425TIP3    H225767   2.289   3.020  14.060 -1.7498 -0.1745 -1.4907
 1426TIP3   OH225768   1.751   3.215   0.850 -0.5282  0.6548  0.1616
 1426TIP3    H125769   1.819   3.280   0.832 -0.4297  0.4116 -0.3659
 1426TIP3    H225770   1.698   3.214   0.770 -0.2263 -0.2766 -0.0370
 1427TIP3   OH225771   6.545   5.410  13.624  0.3276 -0.6307  0.2805
 1427TIP3    H125772   6.594   5.463  13.561 -0.1383 -0.1798  0.2905
 1427TIP3    H225773   6.583   5.435  13.709  0.8296 -1.1024  0.1983
 1428TIP3   OH225774   2.790   2.662   0.318 -0.2841  0.5425  0.1076
 1428TIP3    H125775   2.727   2.591   0.303  1.6568 -1.5948  1.3449
 1428TIP3    H225776   2.829   2.678   0.232 -0.1487 -0.5396 -0.0514
 1429TIP3   OH225777   2.386   1.872   1.178 -0.0340 -0.0631  0.1582
 1429TIP3    H125778   2.447   1.941   1.154  1.1434 -0.6102  1.4765
 1429TIP3    H225779   2.320   1.873   1.108  0.5667  1.6267 -0.4210
 1430TIP3   OH225780   6.118   3.162   1.089 -0.0923 -0.0410 -0.1788
 1430TIP3    H125781   6.182   3.183   1.157 -0.0680 -1.0911  0.1456
 1430TIP3    H225782   6.161   3.187   1.007  0.6351 -0.4868  0.0601
 1431TIP3   OH225783   3.522   2.670   7.031 -0.0798 -0.4691 -0.3679
 1431TIP3    H125784   3.433   2.646   7.007  0.6420 -2.6742 -1.1202
 1431TIP3    H225785   3.577   2.624   6.968  1.6518 -0.4695  1.0469
 1432TIP3   OH225786   0.428   0.944  15.585 -0.2262 -0.0135 -0.0300
 1432TIP3    H125787   0.493   1.010  15.562  0.3067 -0.5068  0.0243
 1432TIP3    H225788   0.440   0.931  15.679  1.4372 -1.9957 -0.4432
 1433TIP3   OH225789   4.765   5.193   4.861 -0.9388 -0.2378  0.0919
 1433TIP3    H125790   4.778   5.268   4.919  0.5209 -0.2171 -0.2343
 1433TIP3    H225791   4.846   5.143   4.868 -0.5926 -0.0850 -2.1183
 1434TIP3   OH225792   5.937   1.731  17.036 -0.1717  0.1624  0.3794
 1434TIP3    H125793   5.924   1.693  16.949  0.2394  2.1773 -0.6263
 1434TIP3    H225794   5.852   1.724  17.078 -0.8521  0.6598 -0.8477
 1435TIP3   OH225795   2.921   5.633  11.832 -0.4126 -0.7731 -0.2977
 1435TIP3    H125796   2.906   5.543  11.803 -0.7070 -0.6092 -0.6569
 1435TIP3    H225797   3.010   5.653  11.805  0.1272 -1.4062  0.9550
 1436TIP3   OH225798   3.958   4.322  14.989 -0.1852 -0.2242 -0.3149
 1436TIP3    H125799   3.972   4.388  15.057 -0.7925 -0.5881  0.1788
 1436TIP3    H225800   4.017   4.251  15.012  1.3906  0.6303 -1.5504
 1437TIP3   OH225801   1.820   2.477  11.546  0.4003  0.3029  0.2022
 1437TIP3    H125802   1.854   2.531  11.475  0.9334 -0.4460 -0.1248
 1437TIP3    H225803   1.784   2.400  11.502  0.4162 -0.0063  0.7227
 1438TIP3   OH225804   1.823   1.952  13.411  0.1681  0.0923 -0.2432
 1438TIP3    H125805   1.874   1.901  13.474 -0.0270 -1.4010 -1.2474
 1438TIP3    H225806   1.734   1.949  13.445 -0.2645 -2.1669 -1.3913
 1439TIP3   OH225807   4.987   0.985  11.309  0.0146  0.6441 -0.1811
 1439TIP3    H125808   4.905   1.003  11.263 -2.8388 -1.3618  3.5074
 1439TIP3    H225809   4.996   0.890  11.307  1.3145  0.7137  0.8732
 1440TIP3   OH225810   4.864   3.417   2.301  0.2885  0.0089  0.1875
 1440TIP3    H125811   4.839   3.437   2.391 -0.9163  0.3705 -0.2120
 1440TIP3    H225812   4.816   3.481   2.248  0.4937 -0.6005 -0.7485
 1441TIP3   OH225813   2.451   3.244  13.519 -0.3982 -0.2982 -0.0410
 1441TIP3    H125814   2.471   3.306  13.589 -0.5572  0.5332 -0.7149
 1441TIP3    H225815   2.382   3.189  13.556 -0.1377 -0.1885  0.6281
 1442TIP3   OH225816   4.189   4.940   4.794 -0.3407  0.0352 -0.0599
 1442TIP3    H125817   4.165   5.031   4.782 -0.1388  0.0133 -0.6810
 1442TIP3    H225818   4.110   4.897   4.825 -0.6620  0.2631 -0.5619
 1443TIP3   OH225819   6.562   5.781   2.515  0.0081 -0.1589 -0.0506
 1443TIP3    H125820   6.609   5.814   2.591  0.3923 -1.0285  0.0957
 1443TIP3    H225821   6.620   5.799   2.441 -0.3085  0.5670 -0.1329
 1444TIP3   OH225822   0.674   1.294  14.094  0.2410 -0.2755 -0.4971
 1444TIP3    H125823   0.728   1.268  14.169  1.9786 -1.8961 -2.1971
 1444TIP3    H225824   0.725   1.361  14.049 -0.6524  0.4799 -0.4104
 1445TIP3   OH225825   0.987   1.732  13.113  0.6191  0.0993  0.5067
 1445TIP3    H125826   0.908   1.729  13.058  1.6657  1.6921 -1.2048
 1445TIP3    H225827   1.005   1.825  13.124  2.1266 -0.2239  1.0467
 1446TIP3   OH225828   2.246   4.463   4.817 -0.3499  0.0475 -0.4573
 1446TIP3    H125829   2.256   4.558   4.809  0.4325 -0.0343 -0.6146
 1446TIP3    H225830   2.312   4.437   4.882 -1.5659 -0.2176  0.7218
 1447TIP3   OH225831   5.827   3.098  14.527 -0.2595  0.2375 -0.1160
 1447TIP3    H125832   5.906   3.058  14.490 -0.4572  1.4900 -2.0784
 1447TIP3    H225833   5.853   3.129  14.614  0.8223 -1.1194  0.0633
 1448TIP3   OH225834   0.306   1.328   5.453  0.3333 -0.1851  0.3538
 1448TIP3    H125835   0.343   1.267   5.518  1.2228 -0.0159  0.0164
 1448TIP3    H225836   0.263   1.271   5.389 -0.5204 -0.3564  1.0594
 1449TIP3   OH225837   5.786   0.188  17.587  0.2221 -0.1356 -0.4254
 1449TIP3    H125838   5.832   0.263  17.625 -0.6695 -0.2775  1.0294
 1449TIP3    H225839   5.752   0.219  17.504  0.5807  0.8207 -0.2194
 1450TIP3   OH225840   5.231   1.197   2.221 -0.7107  0.5478  0.4337
 1450TIP3    H125841   5.282   1.219   2.298  0.0619 -1.5109  0.5640
 1450TIP3    H225842   5.296   1.177   2.154 -1.2540 -2.0537  0.5784
 1451TIP3   OH225843   1.966   1.012   4.792 -0.4611 -0.2677 -0.4878
 1451TIP3    H125844   1.943   1.008   4.699 -1.1760  0.6229 -0.3628
 1451TIP3    H225845   1.939   1.100   4.819  1.1580  0.0517  0.1884
 1452TIP3   OH225846   2.689   3.385  14.534  0.7746 -0.1663 -0.1297
 1452TIP3    H125847   2.757   3.451  14.521  0.5311 -0.0649 -0.9490
 1452TIP3    H225848   2.690   3.333  14.454 -1.0080  0.6781 -0.7671
 1453TIP3   OH225849   0.495   4.834  16.713 -0.0712  0.1881  0.3254
 1453TIP3    H125850   0.470   4.744  16.691 -0.9560  0.6277 -0.5365
 1453TIP3    H225851   0.559   4.824  16.784 -0.5313 -1.0978  0.5937
 1454TIP3   OH225852   3.038   6.313  11.248 -0.5267 -0.7736  0.2744
 1454TIP3    H125853   3.038   6.391  11.194  0.1975 -0.8479  0.1588
 1454TIP3    H225854   3.089   6.249  11.198  1.9967 -0.1961  1.9118
 1455TIP3   OH225855   2.254   6.034  12.563 -0.1635  0.1493 -0.1825
 1455TIP3    H125856   2.330   6.082  12.597 -1.3106  2.2044 -0.3524
 1455TIP3    H225857   2.265   6.034  12.468  0.0953 -0.4356 -0.1600
 1456TIP3   OH225858   2.429   0.743  15.995  0.1741  0.3087  0.7981
 1456TIP3    H125859   2.381   0.752  15.913 -0.4603  1.1893  1.2581
 1456TIP3    H225860   2.362   0.748  16.064  0.8742  1.3309  1.4395
 1457TIP3   OH225861   2.068   1.113  14.330 -0.0160  0.4567  0.6501
 1457TIP3    H125862   2.021   1.039  14.290  1.8798 -0.2012 -0.4602
 1457TIP3    H225863   2.144   1.127  14.273  1.8184  0.7012  3.0237
 1458TIP3   OH225864   2.533   4.809  16.527 -0.7746 -0.0102 -0.4931
 1458TIP3    H125865   2.549   4.880  16.589  2.5779 -0.4940 -0.6198
 1458TIP3    H225866   2.541   4.729  16.579 -1.5432 -0.3688 -0.9056
 1459TIP3   OH225867   2.629   6.305   2.116  0.3564 -0.3784  0.1791
 1459TIP3    H125868   2.536   6.319   2.138  0.6896 -0.1708  1.5991
 1459TIP3    H225869   2.646   6.367   2.045 -0.8325 -1.1473 -0.8180
 1460TIP3   OH225870   1.449   6.731  12.297  0.0673  0.0955 -0.1028
 1460TIP3    H125871   1.517   6.708  12.234 -0.9995 -2.0565 -0.5518
 1460TIP3    H225872   1.381   6.773  12.245  1.0931  2.5741  0.3978
 1461TIP3   OH225873   4.386   4.964  17.440 -0.8891  0.0745  0.2102
 1461TIP3    H125874   4.414   4.884  17.397 -1.2503 -0.1526  0.3970
 1461TIP3    H225875   4.291   4.965  17.431 -0.8300  0.8899 -0.5028
 1462TIP3   OH225876   4.243   3.078  15.625  0.4888 -0.2190  0.0453
 1462TIP3    H125877   4.232   2.987  15.596 -0.2034  0.1750 -0.9725
 1462TIP3    H225878   4.168   3.093  15.683 -0.6287  0.3406 -1.4807
 1463TIP3   OH225879   3.957   4.136  11.236 -0.4475 -0.5606 -0.1905
 1463TIP3    H125880   3.904   4.057  11.224 -0.7564 -0.5538  0.9938
 1463TIP3    H225881   3.919   4.200  11.176 -0.9842 -0.9360 -0.2580
 1464TIP3   OH225882   6.084   3.881  11.820 -0.0308  0.0792  0.1135
 1464TIP3    H125883   6.030   3.960  11.828 -1.2899 -0.8165  0.8878
 1464TIP3    H225884   6.137   3.880  11.899 -1.9656 -1.2041  1.4750
 1465TIP3   OH225885   1.351   4.604  13.840  0.0455  0.0478 -0.3110
 1465TIP3    H125886   1.285   4.613  13.909  1.5245  0.7355  1.1086
 1465TIP3    H225887   1.407   4.533  13.870  0.1843 -0.2685 -1.2910
 1466TIP3   OH225888   6.218   4.509   0.817 -0.4240  0.3893 -0.1185
 1466TIP3    H125889   6.297   4.486   0.866 -0.9465 -0.7784  0.2072
 1466TIP3    H225890   6.224   4.604   0.806  1.0415  0.3168 -0.1521
 1467TIP3   OH225891   6.408   1.722  12.048  0.1748 -0.1438 -0.5368
 1467TIP3    H125892   6.466   1.768  12.108  0.4544  0.5768 -1.3349
 1467TIP3    H225893   6.321   1.759  12.065  0.6471  2.0449 -2.3704
 1468TIP3   OH225894   1.283   2.784   5.793 -0.2923  0.0984  0.1776
 1468TIP3    H125895   1.278   2.879   5.785  0.7370  0.1785  0.4145
 1468TIP3    H225896   1.229   2.764   5.870 -0.1968  0.5345  0.3647
 1469TIP3   OH225897   3.679   5.565   0.350  0.1350  0.1333 -0.0147
 1469TIP3    H125898   3.679   5.638   0.288  2.4824  0.7534  0.5943
 1469TIP3    H225899   3.664   5.487   0.296  1.4366  0.7227 -1.3138
 1470TIP3   OH225900   4.606   2.547  12.827 -0.0671 -0.7394 -0.1271
 1470TIP3    H125901   4.682   2.512  12.874  0.0092 -0.4450 -0.0280
 1470TIP3    H225902   4.530   2.515  12.876 -0.0916 -2.6564 -1.3251
 1471TIP3   OH225903   4.660   5.305   1.750 -0.4549  0.2483  0.5353
 1471TIP3    H125904   4.623   5.352   1.676 -0.5404  0.2813  0.5985
 1471TIP3    H225905   4.737   5.261   1.715 -0.6822 -0.0057  0.3474
 1472TIP3   OH225906   4.323   1.624   3.759 -0.2611  0.7621  0.5078
 1472TIP3    H125907   4.336   1.575   3.840  0.7631 -1.3703 -0.8489
 1472TIP3    H225908   4.405   1.612   3.710 -1.4585  0.4625 -1.5642
 1473TIP3   OH225909   0.191   6.334   1.536 -0.0097  0.2755 -0.3183
 1473TIP3    H125910   0.200   6.423   1.571  1.9840 -0.2249  0.6408
 1473TIP3    H225911   0.218   6.277   1.609 -0.1535 -1.0521 -1.2584
 1474TIP3   OH225912   6.522   3.018  13.103  0.2909 -0.2544  0.3038
 1474TIP3    H125913   6.600   3.038  13.052 -1.0940 -0.7168 -2.1570
 1474TIP3    H225914   6.485   3.104  13.125 -0.2615  0.0193 -1.4938
 1475TIP3   OH225915   0.128   4.679  13.847  0.4640 -0.2972 -0.0236
 1475TIP3    H125916   0.112   4.593  13.887  1.2702  0.7817  2.8502
 1475TIP3    H225917   0.070   4.738  13.895 -1.3836  0.6045 -3.1300
 1476TIP3   OH225918   5.774   1.264   6.554  0.4577 -0.1392 -0.2033
 1476TIP3    H125919   5.693   1.298   6.592  0.7363  0.2846  0.0161
 1476TIP3    H225920   5.814   1.212   6.624  0.5511 -0.0593 -0.1979
 1477TIP3   OH225921   0.390   1.763  16.456  0.1062 -0.2790  0.2533
 1477TIP3    H125922   0.311   1.712  16.474 -0.3734  0.0600 -0.8284
 1477TIP3    H225923   0.385   1.784  16.363  1.6368 -0.5197  0.0885
 1478TIP3   OH225924   2.350   6.055   2.565 -0.2622  0.0435  0.1424
 1478TIP3    H125925   2.432   6.014   2.536 -0.9240 -0.8099 -0.5788
 1478TIP3    H225926   2.345   6.137   2.516 -0.3312 -0.3808 -0.5711
 1479TIP3   OH225927   3.284   6.097   5.458  0.3554  0.4082  0.1306
 1479TIP3    H125928   3.285   6.111   5.363 -1.6296  0.9027  0.1307
 1479TIP3    H225929   3.374   6.112   5.485  1.1405 -0.4840 -1.7589
 1480TIP3   OH225930   4.978   4.260  12.395 -0.0968  0.1486 -0.5266
 1480TIP3    H125931   5.011   4.337  12.441 -0.6692 -0.2510  0.5751
 1480TIP3    H225932   5.057   4.217  12.361  0.2205  1.2483 -1.2389
 1481TIP3   OH225933   0.939   4.259  15.175  0.4798  0.6263 -0.2240
 1481TIP3    H125934   1.034   4.269  15.177  0.3296  2.2154  0.4764
 1481TIP3    H225935   0.921   4.187  15.235  1.1631  1.2663  0.7790
 1482TIP3   OH225936   1.076   2.841   6.519 -0.6479  0.0037  0.5365
 1482TIP3    H125937   1.000   2.783   6.517 -0.6319 -0.0044  0.1979
 1482TIP3    H225938   1.043   2.922   6.559 -0.5543 -0.3940  1.4542
 1483TIP3   OH225939   0.169   4.707   7.025 -0.8594 -0.1765  0.1485
 1483TIP3    H125940   0.260   4.700   6.997 -0.4405 -0.2337  1.4441
 1483TIP3    H225941   0.125   4.632   6.986 -0.1417 -0.6517  0.2494
 1484TIP3   OH225942   2.713   0.277   1.541 -0.0037  0.2031  0.2908
 1484TIP3    H125943   2.768   0.241   1.472 -2.4131  0.3796 -1.9128
 1484TIP3    H225944   2.722   0.372   1.532  1.1173  0.2299  1.5238
 1485TIP3   OH225945   4.575   3.746   3.352 -0.3831  0.0645  0.6031
 1485TIP3    H125946   4.584   3.779   3.263 -1.7675 -1.0980 -0.0075
 1485TIP3    H225947   4.559   3.824   3.405  2.8578  1.0717  0.2938
 1486TIP3   OH225948   2.695   1.100   6.649  0.1234  0.1628  0.3517
 1486TIP3    H125949   2.688   1.195   6.649 -0.0691  0.1472  0.2590
 1486TIP3    H225950   2.699   1.076   6.556  0.2299  0.0844  0.3756
 1487TIP3   OH225951   4.897   0.346   0.887 -0.4548  0.0229  0.0558
 1487TIP3    H125952   4.840   0.415   0.852  0.3571  0.5434 -0.2753
 1487TIP3    H225953   4.849   0.265   0.872 -0.4222  0.2851 -1.7211
 1488TIP3   OH225954   5.572   2.591  17.292 -0.2424  0.0865  0.6570
 1488TIP3    H125955   5.664   2.563  17.301  0.3383  2.0927  1.4645
 1488TIP3    H225956   5.525   2.536  17.355  0.6608  0.0811  1.3502
 1489TIP3   OH225957   0.880   0.580  15.612  0.2619 -0.6610 -0.0054
 1489TIP3    H125958   0.820   0.507  15.628 -0.1261 -0.6497 -1.2583
 1489TIP3    H225959   0.841   0.654  15.659 -0.2081 -0.8868 -0.0316
 1490TIP3   OH225960   5.388   3.250   2.293 -0.1428 -0.6315 -0.5659
 1490TIP3    H125961   5.294   3.271   2.294 -0.3852 -1.6033 -1.3215
 1490TIP3    H225962   5.425   3.310   2.229 -0.1251  0.2050  0.2133
 1491TIP3   OH225963   5.403   1.144  14.901 -0.0276 -0.2046 -0.2734
 1491TIP3    H125964   5.445   1.205  14.841  0.0349  0.6399  0.6037
 1491TIP3    H225965   5.418   1.181  14.988 -1.0711 -0.8175  0.1940
 1492TIP3   OH225966   1.826   4.128   0.786  0.5243  0.5126  0.1278
 1492TIP3    H125967   1.804   4.048   0.833 -1.3104  1.0533  0.2658
 1492TIP3    H225968   1.900   4.103   0.730 -2.0226 -2.3173 -2.3989
 1493TIP3   OH225969   3.981   2.587  16.998  0.4231 -0.5066  0.7944
 1493TIP3    H125970   4.069   2.568  17.031  0.9582 -0.2707 -0.4689
 1493TIP3    H225971   3.924   2.568  17.073  1.6424  0.5855  2.0646
 1494TIP3   OH225972   0.957   5.237   3.424  0.2610  0.2127  0.4672
 1494TIP3    H125973   0.968   5.329   3.449  1.3277 -0.2103  1.6726
 1494TIP3    H225974   1.046   5.204   3.415 -0.0554 -0.0736 -2.6215
 1495TIP3   OH225975   4.647   2.591  15.973 -0.0143  0.4301  0.3094
 1495TIP3    H125976   4.568   2.644  15.962 -1.6332 -2.1107 -1.3428
 1495TIP3    H225977   4.634   2.547  16.057 -0.7655 -0.5163 -0.2775
 1496TIP3   OH225978   6.133   6.455  13.719  0.6922 -0.3311  0.1632
 1496TIP3    H125979   6.203   6.520  13.731  1.7432 -1.2313 -0.9023
 1496TIP3    H225980   6.178   6.377  13.686 -1.1076 -0.1351 -3.1191
 1497TIP3   OH225981   1.071   4.308  17.549 -0.2293  0.1782  0.1378
 1497TIP3    H125982   0.997   4.248  17.540  0.5738 -0.9559  0.7558
 1497TIP3    H225983   1.079   4.349  17.463 -2.0750  0.9763  0.2961
 1498TIP3   OH225984   5.427   3.449  11.678  0.3524  0.5590  0.2543
 1498TIP3    H125985   5.480   3.387  11.627 -2.6559 -0.7142 -1.5685
 1498TIP3    H225986   5.372   3.394  11.733  1.1604  1.8668  2.5184
 1499TIP3   OH225987   3.310   5.415  12.201  0.2202  0.5297 -0.3410
 1499TIP3    H125988   3.249   5.441  12.270 -0.3391  0.6655 -0.8758
 1499TIP3    H225989   3.386   5.471  12.213 -0.4565  1.5383 -0.7086
 1500TIP3   OH225990   2.594   5.731   3.801 -0.4644  0.7718  0.2879
 1500TIP3    H125991   2.608   5.824   3.783 -0.8322  0.5804 -1.1071
 1500TIP3    H225992   2.661   5.686   3.749  0.4242  0.2811  1.8043
 1501TIP3   OH225993   4.752   3.563   2.102 -0.2595 -0.1862 -0.1452
 1501TIP3    H125994   4.685   3.512   2.057 -0.9004  0.9135 -0.4552
 1501TIP3    H225995   4.710   3.646   2.124  0.7964  0.2715  0.2414
 1502TIP3   OH225996   6.116   1.098  12.680 -0.5875 -0.1395  0.0820
 1502TIP3    H125997   6.029   1.106  12.718 -0.7724  0.2820 -0.4077
 1502TIP3    H225998   6.101   1.063  12.592 -0.3522  0.7417 -0.3274
 1503TIP3   OH225999   0.943   6.513   6.076 -0.0617 -0.2238 -0.2403
 1503TIP3    H126000   1.001   6.552   6.141  0.2447  0.8212 -1.1096
 1503TIP3    H226001   0.876   6.467   6.127 -0.2649  1.1881  0.8265
 1504TIP3   OH226002   6.283   0.796   3.120  0.5579  0.4564  0.3411
 1504TIP3    H126003   6.255   0.875   3.167  2.4594  0.3935  1.6747
 1504TIP3    H226004   6.377   0.791   3.135  0.3412 -2.7309  1.4150
 1505TIP3   OH226005   0.246   1.378   0.065 -0.2359 -0.5313 -1.2373
 1505TIP3    H126006   0.154   1.352   0.060 -0.0909 -1.6371  0.8629
 1505TIP3    H226007   0.243   1.473   0.077 -1.2856 -0.7929  1.2182
 1506TIP3   OH226008   3.798   3.319   1.653 -0.0546 -0.2102 -0.2200
 1506TIP3    H126009   3.810   3.253   1.721  1.7614 -3.1361 -3.0545
 1506TIP3    H226010   3.729   3.284   1.597 -0.5839  1.4216 -0.6294
 1507TIP3   OH226011   6.656   3.732  14.059 -0.5556 -0.0468 -0.0475
 1507TIP3    H126012   6.732   3.677  14.077 -1.2971 -0.9705  0.3722
 1507TIP3    H226013   6.612   3.690  13.985 -1.3236 -0.2404  0.5028
 1508TIP3   OH226014   0.438   0.319  13.503  0.1942 -0.8293 -0.3931
 1508TIP3    H126015   0.369   0.293  13.564 -0.8998  0.4353 -1.0147
 1508TIP3    H226016   0.414   0.276  13.420 -0.0620 -0.1182 -0.6979
 1509TIP3   OH226017   5.669   5.313  13.427 -0.0416 -0.0084  0.0636
 1509TIP3    H126018   5.627   5.397  13.407  0.6460  0.6943  1.3519
 1509TIP3    H226019   5.692   5.321  13.520 -1.2099 -2.1926  0.5921
 1510TIP3   OH226020   0.893   3.308  12.913 -0.0676 -0.2968  0.0721
 1510TIP3    H126021   0.929   3.396  12.921  1.4179 -0.7460 -1.1106
 1510TIP3    H226022   0.968   3.254  12.886 -1.3182 -1.5802 -0.9881
 1511TIP3   OH226023   4.122   0.321  11.977 -0.1113  0.2831  0.3106
 1511TIP3    H126024   4.168   0.283  11.902 -1.0719  1.0460 -0.6940
 1511TIP3    H226025   4.191   0.358  12.031  0.6117 -0.3822 -0.1260
 1512TIP3   OH226026   5.527   1.396   0.141  0.4686 -0.3847 -0.7254
 1512TIP3    H126027   5.509   1.490   0.138  3.3903  0.2791 -1.1881
 1512TIP3    H226028   5.442   1.355   0.157 -0.5041  2.4937  2.7446
 1513TIP3   OH226029   1.885   4.917   2.523 -0.0119  0.6392  0.2864
 1513TIP3    H126030   1.968   4.882   2.488  0.4916  1.4614  0.6254
 1513TIP3    H226031   1.841   4.841   2.560  0.9367  0.2995  0.7681
 1514TIP3   OH226032   1.780   5.892   5.121  0.4275  0.6517  0.4611
 1514TIP3    H126033   1.869   5.893   5.155  0.0915  0.2099  1.3902
 1514TIP3    H226034   1.772   5.807   5.077 -0.0497 -0.0734  1.8715
 1515TIP3   OH226035   5.696   5.472   4.814 -0.0130 -0.2890  0.4737
 1515TIP3    H126036   5.653   5.502   4.733 -0.3125 -1.0647  0.3333
 1515TIP3    H226037   5.754   5.402   4.785  0.6435  0.1148  0.8017
 1516TIP3   OH226038   2.409   2.368   3.844  0.2416  0.2874  0.0758
 1516TIP3    H126039   2.479   2.311   3.874  0.3857  1.1357  1.4635
 1516TIP3    H226040   2.446   2.456   3.847 -1.0390  0.8383  1.5326
 1517TIP3   OH226041   0.940   4.552   6.454 -0.7408 -0.2103  0.2287
 1517TIP3    H126042   0.938   4.457   6.443 -2.1443 -0.0463 -1.4154
 1517TIP3    H226043   0.900   4.568   6.539 -0.6812 -1.0627  0.4234
 1518TIP3   OH226044   4.286   3.799   1.533  0.1852  0.2221  0.0186
 1518TIP3    H126045   4.333   3.824   1.613  0.2143  0.0800  0.0461
 1518TIP3    H226046   4.215   3.863   1.526 -0.1830 -0.1231  0.4924
 1519TIP3   OH226047   1.172   2.923   1.418  0.1943 -0.1643  0.2194
 1519TIP3    H126048   1.127   2.866   1.480  0.2040 -0.3750  0.0370
 1519TIP3    H226049   1.210   2.993   1.471  0.4770 -0.5181  0.4850
 1520TIP3   OH226050   3.850   0.772  13.584  0.3404 -0.2790 -0.3132
 1520TIP3    H126051   3.907   0.788  13.660  1.4821 -0.4339 -1.1062
 1520TIP3    H226052   3.910   0.773  13.510 -0.3295 -2.7863 -0.9718
 1521TIP3   OH226053   1.789   4.271  13.952  0.1222  0.0965  0.3242
 1521TIP3    H126054   1.790   4.345  14.013 -3.0979  0.2535  0.3801
 1521TIP3    H226055   1.875   4.273  13.911  0.0076  4.3621 -0.2014
 1522TIP3   OH226056   1.498   3.868  15.454  1.1673 -0.6041 -0.0890
 1522TIP3    H126057   1.592   3.872  15.469  1.1117 -0.7173  0.3113
 1522TIP3    H226058   1.461   3.928  15.519  0.7926 -2.3664  1.4003
 1523TIP3   OH226059   1.496   1.950  17.258  0.0394 -0.3457  0.0237
 1523TIP3    H126060   1.408   1.967  17.224  0.1508  0.1467 -0.0259
 1523TIP3    H226061   1.495   1.984  17.348  0.5151  0.7272 -0.3557
 1524TIP3   OH226062   6.684   0.615   2.046 -0.2503 -0.0701  0.4728
 1524TIP3    H126063   6.732   0.568   1.978 -1.7404  1.6052 -1.8471
 1524TIP3    H226064   6.595   0.579   2.043 -1.2239  2.2804 -0.8517
 1525TIP3   OH226065   5.472   0.468   4.362  0.4200 -0.4823 -0.0437
 1525TIP3    H126066   5.522   0.399   4.319  1.7954 -0.3211  1.2039
 1525TIP3    H226067   5.528   0.545   4.357 -0.6052  0.2612 -0.4112
 1526TIP3   OH226068   1.977   1.332   1.545 -0.1829 -0.5553  0.3628
 1526TIP3    H126069   1.959   1.410   1.492  3.1039 -0.2974 -0.5701
 1526TIP3    H226070   1.989   1.366   1.634  1.6492  0.1640 -0.1088
 1527TIP3   OH226071   5.043   6.207   6.751  0.3276  0.0937 -0.4023
 1527TIP3    H126072   5.075   6.160   6.673  1.5400  1.5690 -0.8554
 1527TIP3    H226073   4.949   6.215   6.737  0.2022 -1.4666 -0.6816
 1528TIP3   OH226074   5.179   4.592  13.745  0.0717  0.4210 -0.5518
 1528TIP3    H126075   5.159   4.499  13.760  0.3714  0.2671 -1.0876
 1528TIP3    H226076   5.125   4.638  13.810  1.5003 -0.2199  1.1721
 1529TIP3   OH226077   0.406   1.561   3.036 -0.4080  0.2548 -0.2782
 1529TIP3    H126078   0.327   1.529   3.080 -0.6738  1.0476 -0.1598
 1529TIP3    H226079   0.450   1.616   3.101 -1.1961  2.0665 -1.1688
 1530TIP3   OH226080   1.661   0.534   1.298  0.6068 -0.2676 -0.2973
 1530TIP3    H126081   1.598   0.535   1.225  0.9151 -1.6398 -0.6075
 1530TIP3    H226082   1.667   0.442   1.323  1.4781  0.0270  0.6293
 1531TIP3   OH226083   6.702   0.183   2.806 -0.6530 -0.6780  0.5699
 1531TIP3    H126084   6.697   0.203   2.712  1.4938 -2.7492 -0.0811
 1531TIP3    H226085   6.627   0.125   2.822 -1.8697  0.8253  0.5198
 1532TIP3   OH226086   5.284   3.690  11.717  0.0528  0.1640  0.7042
 1532TIP3    H126087   5.327   3.765  11.675  0.2727 -0.3065  0.0663
 1532TIP3    H226088   5.349   3.620  11.711  0.0180  0.0345  1.6910
 1533TIP3   OH226089   5.487   4.549   2.976 -0.2964  0.0235  0.1949
 1533TIP3    H126090   5.463   4.517   3.063  1.6318  1.8841  1.5256
 1533TIP3    H226091   5.487   4.472   2.920 -2.6381 -1.0630  1.5657
 1534TIP3   OH226092   1.635   1.952  15.900 -0.0837  0.1027 -0.5523
 1534TIP3    H126093   1.635   1.901  15.982 -0.4835  1.5805  0.4126
 1534TIP3    H226094   1.585   1.899  15.839 -0.5973 -0.6067  0.4470
 1535TIP3   OH226095   2.622   3.537  14.089 -0.3190  0.3252  0.2781
 1535TIP3    H126096   2.640   3.612  14.145  2.1591  2.9555 -3.5519
 1535TIP3    H226097   2.692   3.538  14.024 -1.7377 -3.7192 -1.6760
 1536TIP3   OH226098   4.963   5.104   1.303 -0.2954 -0.2134  0.2038
 1536TIP3    H126099   4.928   5.092   1.391 -0.4168 -1.0905  0.0500
 1536TIP3    H226100   5.051   5.065   1.306 -0.1568  0.0803  0.0359
 1537TIP3   OH226101   3.991   4.792  16.582  0.1478  0.0570 -0.4146
 1537TIP3    H126102   3.985   4.781  16.487  1.3007 -0.3471 -0.4512
 1537TIP3    H226103   3.951   4.877  16.598  0.4354  0.3834 -1.3291
 1538TIP3   OH226104   2.193   5.877   3.664  0.0772  0.2141  1.1920
 1538TIP3    H126105   2.230   5.906   3.747 -0.3048  1.7604  0.8581
 1538TIP3    H226106   2.103   5.853   3.685  0.2369 -0.2256  1.3765
 1539TIP3   OH226107   1.789   0.528   0.456  0.5082 -0.5047  0.4433
 1539TIP3    H126108   1.756   0.591   0.392  2.4675  0.8801  0.6941
 1539TIP3    H226109   1.718   0.518   0.519 -0.4248  0.2456 -0.4582
 1540TIP3   OH226110   6.734   0.671   1.373 -0.0432  0.4107  0.0096
 1540TIP3    H126111   6.650   0.642   1.408  0.1431  0.5085  0.5542
 1540TIP3    H226112   6.795   0.601   1.396  0.0021  0.2844 -0.4903
 1541TIP3   OH226113   5.321   2.997  13.990 -0.5900  0.2543 -0.1649
 1541TIP3    H126114   5.274   2.953  14.061  0.4412  1.3154  1.2305
 1541TIP3    H226115   5.303   2.944  13.913 -0.6643 -1.7109  1.1336
 1542TIP3   OH226116   3.136   2.799   5.998  0.1370  0.3403 -0.8313
 1542TIP3    H126117   3.075   2.770   5.930  0.0370  0.5746 -0.8425
 1542TIP3    H226118   3.083   2.801   6.078 -0.0248  1.1239 -0.9524
 1543TIP3   OH226119   6.585   4.931   4.443 -0.4166  0.2401 -0.6548
 1543TIP3    H126120   6.490   4.938   4.442 -0.3012  3.3879 -0.8939
 1543TIP3    H226121   6.611   4.948   4.352  0.3815  1.3167 -0.2588
 1544TIP3   OH226122   1.588   3.059  14.290 -0.5447 -0.7998 -0.3349
 1544TIP3    H126123   1.550   2.972  14.286  0.8774 -1.4562 -0.4184
 1544TIP3    H226124   1.586   3.091  14.200  0.9578 -1.7133 -0.7437
 1545TIP3   OH226125   2.282   4.741   4.774 -0.2316 -0.3529  0.5704
 1545TIP3    H126126   2.368   4.784   4.777  0.0609 -0.9419  1.2248
 1545TIP3    H226127   2.228   4.790   4.836 -0.1310 -0.4436  0.7323
 1546TIP3   OH226128   5.102   5.678   0.457 -0.0394  0.1352  0.9439
 1546TIP3    H126129   5.046   5.748   0.423  0.4324  0.6554  1.2194
 1546TIP3    H226130   5.042   5.605   0.474 -0.1291 -0.8579 -2.6916
 1547TIP3   OH226131   0.911   1.535  17.190 -0.3539  0.0273 -0.1194
 1547TIP3    H126132   0.942   1.606  17.134 -0.2724  0.8358  0.9185
 1547TIP3    H226133   0.841   1.574  17.242 -1.6970 -1.2116 -0.9309
 1548TIP3   OH226134   0.094   2.637  12.980  0.0457 -0.0679 -0.2802
 1548TIP3    H126135   0.030   2.671  12.917 -1.1024  1.0790  1.4135
 1548TIP3    H226136   0.166   2.605  12.926 -2.1955 -2.0677 -2.3504
 1549TIP3   OH226137   1.100   4.710   4.020  0.5800 -0.8038 -0.4531
 1549TIP3    H126138   1.051   4.789   4.041 -2.2944 -2.7796  0.8767
 1549TIP3    H226139   1.145   4.687   4.101 -1.2261 -2.2097  0.2079
 1550TIP3   OH226140   5.747   4.229   6.708 -0.5547  0.0479  0.3953
 1550TIP3    H126141   5.660   4.226   6.668 -0.9265 -0.2277  1.2045
 1550TIP3    H226142   5.774   4.137   6.715  0.8096  0.1816 -1.9375
 1551TIP3   OH226143   4.987   2.878  15.141  0.0385  0.1097  0.6164
 1551TIP3    H126144   4.970   2.931  15.063  1.1722 -0.6763 -0.1977
 1551TIP3    H226145   5.082   2.864  15.140 -0.2252 -1.9076  0.8108
 1552TIP3   OH226146   5.968   4.046   0.076 -0.6880  0.3951  0.0995
 1552TIP3    H126147   5.933   4.072  -0.009  0.1380  1.0095 -0.0700
 1552TIP3    H226148   6.045   3.994   0.054 -1.6140 -1.1912  0.4578
 1553TIP3   OH226149   2.316   4.137  14.022 -0.0368  0.0493 -0.5641
 1553TIP3    H126150   2.254   4.084  14.071  1.6602 -0.8193  0.7633
 1553TIP3    H226151   2.301   4.227  14.052 -1.3190  0.0204 -1.0577
 1554TIP3   OH226152   0.471   0.576  15.861  0.7716  0.3700  0.5406
 1554TIP3    H126153   0.417   0.563  15.939 -0.0234 -0.7208 -0.1613
 1554TIP3    H226154   0.421   0.535  15.790  1.8420  0.6417 -0.3937
 1555TIP3   OH226155   0.781   3.313   5.007 -0.0854  0.5852 -0.1207
 1555TIP3    H126156   0.774   3.296   4.913 -1.4113  0.7694 -0.0743
 1555TIP3    H226157   0.780   3.226   5.046  2.5027  0.3934 -0.3498
 1556TIP3   OH226158   4.169   2.409  10.813  0.0591  0.1415 -0.1822
 1556TIP3    H126159   4.121   2.329  10.835  1.1330  0.1165  2.4676
 1556TIP3    H226160   4.122   2.478  10.860  1.9701  0.2472  1.7220
 1557TIP3   OH226161   1.926   4.055   0.362 -0.1908 -0.7164  0.2275
 1557TIP3    H126162   1.938   4.032   0.454  1.7134 -0.6099  0.0393
 1557TIP3    H226163   1.907   3.972   0.319 -0.5971 -0.8374  0.6258
 1558TIP3   OH226164   5.360   0.699   0.432  0.0989 -0.2112  0.2814
 1558TIP3    H126165   5.340   0.616   0.389 -0.2193 -1.1413  2.1325
 1558TIP3    H226166   5.274   0.738   0.450  0.2236  0.0628  0.2886
 1559TIP3   OH226167   5.719   1.539   3.260  0.2387  0.0958  0.0410
 1559TIP3    H126168   5.640   1.536   3.207  0.6380 -0.3142 -0.5524
 1559TIP3    H226169   5.728   1.631   3.285 -0.1000  0.2490 -0.3836
 1560TIP3   OH226170   4.670   0.691  15.629  0.6760 -0.5882  0.1344
 1560TIP3    H126171   4.702   0.615  15.581  0.8903  0.0009 -0.6815
 1560TIP3    H226172   4.649   0.755  15.561 -1.8180 -0.7684  0.6580
 1561TIP3   OH226173   5.349   5.930   1.080 -0.0674 -0.6219  0.1341
 1561TIP3    H126174   5.412   5.932   1.008 -0.3029 -0.0314 -0.0630
 1561TIP3    H226175   5.403   5.936   1.159  0.0586  1.9117 -0.0745
 1562TIP3   OH226176   4.467   1.439  11.029 -0.0099  0.3168 -0.2511
 1562TIP3    H126177   4.377   1.416  11.006 -0.1038 -0.1207  0.5156
 1562TIP3    H226178   4.516   1.427  10.948 -0.3900 -0.8588 -0.3354
 1563TIP3   OH226179   0.303   4.844  12.288 -0.0131  0.1863  0.2402
 1563TIP3    H126180   0.311   4.761  12.335 -0.3792 -0.4026 -0.7207
 1563TIP3    H226181   0.229   4.888  12.329  0.0481 -0.0530  0.6121
 1564TIP3   OH226182   2.285   0.606   2.247  0.0484  0.7531 -0.0896
 1564TIP3    H126183   2.266   0.596   2.153 -0.3428 -0.5086  0.0917
 1564TIP3    H226184   2.377   0.581   2.256 -0.5963 -1.8581  0.1798
 1565TIP3   OH226185   4.633   0.481  12.736 -0.0313 -0.3378 -0.2673
 1565TIP3    H126186   4.580   0.452  12.662  0.3600 -0.4598 -0.4977
 1565TIP3    H226187   4.667   0.566  12.710  1.1320 -0.9323 -0.7503
 1566TIP3   OH226188   4.022   4.049  12.894 -0.5438  0.1001  0.1283
 1566TIP3    H126189   4.116   4.056  12.906 -0.4106 -1.5572  0.2693
 1566TIP3    H226190   4.010   3.972  12.839 -1.8011  0.5362 -0.2535
 1567TIP3   OH226191   3.824   3.853  11.092 -0.3773 -0.5226 -0.1168
 1567TIP3    H126192   3.848   3.786  11.156 -1.1955  0.0591  0.8248
 1567TIP3    H226193   3.881   3.836  11.017 -0.1861 -1.9156  0.3193
 1568TIP3   OH226194   2.385   2.876  13.729 -0.0585 -0.2917  0.5925
 1568TIP3    H126195   2.420   2.843  13.646  0.8857  2.3587 -0.1568
 1568TIP3    H226196   2.294   2.848  13.730  0.5776 -2.6057 -0.0640
 1569TIP3   OH226197   2.633   2.842   3.691  0.2309  0.2117  0.1678
 1569TIP3    H126198   2.655   2.750   3.680 -0.6970 -0.2048  1.6240
 1569TIP3    H226199   2.714   2.888   3.669  1.1940 -1.0419  0.9330
 1570TIP3   OH226200   0.604   1.595  16.082  0.0137 -0.1846  0.0540
 1570TIP3    H126201   0.560   1.674  16.112  0.3396 -0.1358  0.4098
 1570TIP3    H226202   0.667   1.626  16.017 -1.0004 -0.3384 -1.0329
 1571TIP3   OH226203   4.079   4.438   2.328  0.0798 -0.0167 -0.3213
 1571TIP3    H126204   4.054   4.351   2.296  1.0994  0.1988 -1.8014
 1571TIP3    H226205   4.168   4.451   2.296  0.2798  1.2332  0.6339
 1572TIP3   OH226206   1.571   4.678  13.398  0.4808  0.2429 -0.8737
 1572TIP3    H126207   1.508   4.618  13.359  0.6159 -0.6338  0.2243
 1572TIP3    H226208   1.526   4.715  13.474  0.6460  1.0046 -1.1411
 1573TIP3   OH226209   2.814   5.951  12.306  0.1096 -0.1666 -0.5743
 1573TIP3    H126210   2.879   5.887  12.276  3.4227  1.4978  2.2232
 1573TIP3    H226211   2.840   6.033  12.265 -1.0175  0.3091 -0.3653
 1574TIP3   OH226212   4.660   3.191  15.397 -0.3300 -0.3136  0.3745
 1574TIP3    H126213   4.624   3.177  15.485  0.0402  1.1843  0.7938
 1574TIP3    H226214   4.721   3.264  15.408 -0.7387  0.3032 -1.2654
 1575TIP3   OH226215   2.910   0.840  16.560  0.6969 -0.4861  0.0498
 1575TIP3    H126216   2.833   0.816  16.509 -0.1390 -1.3032  1.6067
 1575TIP3    H226217   2.942   0.920  16.519  1.6647 -2.4325 -3.3774
 1576TIP3   OH226218   5.993   3.419   1.677 -0.2653 -0.1583 -0.0078
 1576TIP3    H126219   5.914   3.469   1.697 -1.3026 -1.9567  0.6384
 1576TIP3    H226220   6.046   3.426   1.757 -0.5990 -0.4433  0.2405
 1577TIP3   OH226221   1.145   3.316   1.134 -0.1515 -0.0152 -0.5124
 1577TIP3    H126222   1.147   3.241   1.074 -0.4641 -0.0274 -0.5082
 1577TIP3    H226223   1.204   3.291   1.205 -0.8165 -0.5716 -0.1454
 1578TIP3   OH226224   2.514   0.601   1.699 -0.1467 -0.1706 -0.7401
 1578TIP3    H126225   2.532   0.665   1.630 -0.8557 -1.9231 -2.6738
 1578TIP3    H226226   2.599   0.562   1.719  0.0079  0.0913 -0.8814
 1579TIP3   OH226227   0.280   4.161   3.204 -0.4900  0.2380 -0.1377
 1579TIP3    H126228   0.311   4.209   3.281  0.1442  0.6831 -0.6610
 1579TIP3    H226229   0.354   4.106   3.179 -0.8368 -0.2084 -0.1885
 1580TIP3   OH226230   2.642   5.995   3.789  0.2806 -0.3133  0.1612
 1580TIP3    H126231   2.647   6.058   3.862  0.7983 -0.9147  0.6554
 1580TIP3    H226232   2.560   6.017   3.745  0.5753  0.8845  0.1573
 1581TIP3   OH226233   0.820   6.315  12.622  0.1862  0.0652 -0.0287
 1581TIP3    H126234   0.757   6.387  12.618  0.4116  0.2672 -0.0027
 1581TIP3    H226235   0.894   6.346  12.570 -0.0227 -0.4633 -0.6587
 1582TIP3   OH226236   2.660   5.702  10.923 -0.1305  0.6453 -0.2547
 1582TIP3    H126237   2.643   5.794  10.900  1.8047  0.9768 -0.5213
 1582TIP3    H226238   2.724   5.673  10.858 -0.6227 -0.8713 -0.0863
 1583TIP3   OH226239   5.457   3.124   5.149 -0.3537 -0.3216 -0.1649
 1583TIP3    H126240   5.367   3.109   5.177 -0.6081 -2.4525 -1.8621
 1583TIP3    H226241   5.455   3.113   5.054  1.6323 -0.0604 -0.2809
 1584TIP3   OH226242   3.075   1.416   2.622  0.0681 -0.1217  0.0104
 1584TIP3    H126243   3.089   1.382   2.711 -1.2276 -0.6424  0.0369
 1584TIP3    H226244   3.162   1.441   2.592  0.4361  0.7933  1.7134
 1585TIP3   OH226245   1.753   4.027   1.296 -0.3401 -0.7754 -0.8661
 1585TIP3    H126246   1.802   3.964   1.348 -1.4718 -0.5018  0.5913
 1585TIP3    H226247   1.805   4.039   1.216  1.6377 -0.9428  0.3484
 1586TIP3   OH226248   1.337   6.052  12.197 -0.0116  0.0090 -0.1307
 1586TIP3    H126249   1.289   6.062  12.279 -0.2421  0.4145 -0.3109
 1586TIP3    H226250   1.333   6.138  12.156 -4.3691 -1.2668 -3.0523
 1587TIP3   OH226251   6.549   1.687   0.928 -0.0733 -0.1303 -0.0126
 1587TIP3    H126252   6.541   1.676   1.023  2.5265  1.4482  0.4703
 1587TIP3    H226253   6.601   1.612   0.899 -0.1079 -0.1430 -0.0415
 1588TIP3   OH226254   4.432   1.276   5.580 -0.0352  0.2345 -0.1352
 1588TIP3    H126255   4.370   1.237   5.642 -0.6349  0.8085 -0.3532
 1588TIP3    H226256   4.383   1.281   5.498  0.5859 -0.0625 -0.5237
 1589TIP3   OH226257   3.440   0.884  12.674  0.0490 -0.4283  0.1283
 1589TIP3    H126258   3.390   0.813  12.714 -0.7047 -0.4798 -0.9024
 1589TIP3    H226259   3.397   0.901  12.591  1.3142  0.0095 -0.4650
 1590TIP3   OH226260   5.691   3.081  10.725 -0.2874 -0.8022 -0.1455
 1590TIP3    H126261   5.758   3.021  10.692 -0.2190  0.0441 -1.6340
 1590TIP3    H226262   5.739   3.158  10.753 -0.6225  0.0344 -1.7288
 1591TIP3   OH226263   0.609   2.689  12.567 -0.4891  0.0982 -0.0029
 1591TIP3    H126264   0.696   2.720  12.591  0.3001 -1.2786 -0.9278
 1591TIP3    H226265   0.549   2.745  12.616  0.9050  1.1177  0.6116
 1592TIP3   OH226266   1.143   1.471   6.017 -0.4475 -0.3571 -0.1565
 1592TIP3    H126267   1.070   1.533   6.022  1.4235  2.2089 -2.2557
 1592TIP3    H226268   1.188   1.479   6.101 -3.2817 -3.2260  1.9058
 1593TIP3   OH226269   4.417   0.422   6.536 -0.4286  0.0043 -0.4226
 1593TIP3    H126270   4.343   0.455   6.484 -0.2301 -0.1770 -0.8218
 1593TIP3    H226271   4.437   0.493   6.597 -0.0194  0.6229 -1.2612
 1594TIP3   OH226272   2.606   0.908   0.564 -0.4361  0.3446  0.2342
 1594TIP3    H126273   2.636   0.822   0.537 -2.7364 -0.6866  0.7076
 1594TIP3    H226274   2.588   0.954   0.481  0.3370  0.2033 -0.0167
 1595TIP3   OH226275   4.842   2.587   2.026 -0.3216 -0.4239 -0.3412
 1595TIP3    H126276   4.915   2.529   2.007 -0.6705 -0.8654 -0.3367
 1595TIP3    H226277   4.790   2.587   1.946 -0.7687 -0.7753 -0.0507
 1596TIP3   OH226278   6.405   4.549   4.859 -0.7094 -0.0385  0.3390
 1596TIP3    H126279   6.425   4.522   4.949 -2.0278  1.3561  1.0985
 1596TIP3    H226280   6.439   4.478   4.805  3.2525  0.6128  1.6491
 1597TIP3   OH226281   0.395   3.909   5.087  0.3796  0.1310  0.1644
 1597TIP3    H126282   0.391   3.845   5.158  0.6544  1.5049  1.4763
 1597TIP3    H226283   0.458   3.974   5.117 -2.1937  2.7447  0.4401
 1598TIP3   OH226284   2.884   4.397   1.814 -0.0293  0.2634 -0.1649
 1598TIP3    H126285   2.944   4.471   1.806 -0.0821  0.3052 -0.1687
 1598TIP3    H226286   2.941   4.322   1.833 -0.1573  0.6655  1.9771
 1599TIP3   OH226287   5.306   4.373  10.876 -0.2736 -0.6100 -0.2250
 1599TIP3    H126288   5.252   4.383  10.954  3.0058 -0.2237  2.2476
 1599TIP3    H226289   5.309   4.461  10.837 -1.5978 -0.7164 -0.6019
 1600TIP3   OH226290   1.566   2.739  15.520 -0.3256 -0.0470 -0.3609
 1600TIP3    H126291   1.599   2.701  15.601  1.0681  0.7045 -0.5499
 1600TIP3    H226292   1.567   2.668  15.457  2.5953  0.2743 -0.8131
 1601TIP3   OH226293   6.122   5.622  12.082 -0.5912  0.3678 -0.3057
 1601TIP3    H126294   6.046   5.563  12.077 -0.8325  0.6109  0.3201
 1601TIP3    H226295   6.170   5.606  12.001 -0.9364 -0.3084 -0.3895
 1602TIP3   OH226296   4.156   4.281  15.305 -0.2320  0.4839 -0.6352
 1602TIP3    H126297   4.245   4.284  15.271 -0.7563 -0.2878 -2.2091
 1602TIP3    H226298   4.115   4.360  15.270 -0.4116  0.3706 -0.6845
 1603TIP3   OH226299   5.973   3.693   5.276  0.0654  0.4834 -1.0638
 1603TIP3    H126300   5.901   3.750   5.302 -1.0803 -1.3753  0.1404
 1603TIP3    H226301   5.934   3.606   5.271  1.4873 -0.1061 -3.9075
 1604TIP3   OH226302   5.039   1.392   0.021 -0.3829 -0.4394 -0.5193
 1604TIP3    H126303   5.126   1.414  -0.013 -0.6929 -0.2524 -1.2165
 1604TIP3    H226304   5.015   1.467   0.076  0.0765 -0.6907  0.0307
 1605TIP3   OH226305   2.408   5.290  12.638  0.1230 -0.3351  0.3851
 1605TIP3    H126306   2.419   5.368  12.693  2.2108 -0.2026 -0.1190
 1605TIP3    H226307   2.389   5.220  12.700  3.3168 -0.3814  1.5428
 1606TIP3   OH226308   0.109   4.389  15.003  0.1218 -0.3601 -0.2407
 1606TIP3    H126309   0.145   4.364  14.918 -2.5365  1.7324 -2.1750
 1606TIP3    H226310   0.125   4.483  15.009  1.6456 -0.6971  2.4265
 1607TIP3   OH226311   2.618   4.953  12.250 -0.7788 -0.2783 -0.7176
 1607TIP3    H126312   2.651   4.959  12.340 -0.4475 -1.1293 -0.7764
 1607TIP3    H226313   2.679   4.894  12.206 -1.5342 -0.6887 -1.2279
 1608TIP3   OH226314   5.108   5.303  14.741  0.4982  0.2514  0.7732
 1608TIP3    H126315   5.073   5.214  14.733 -0.3950  0.5836  0.8164
 1608TIP3    H226316   5.146   5.305  14.829  0.3669 -0.0380  0.8400
 1609TIP3   OH226317   5.655   2.614  15.571 -0.0245  0.1805  0.2204
 1609TIP3    H126318   5.675   2.704  15.545 -2.2789  0.7499  0.2259
 1609TIP3    H226319   5.592   2.584  15.505  0.8098 -1.4728  0.1390
 1610TIP3   OH226320   1.499   6.493   1.788 -0.3234  0.1822 -0.0381
 1610TIP3    H126321   1.427   6.549   1.819  1.1951  1.1232  1.9852
 1610TIP3    H226322   1.524   6.442   1.865  2.1038  0.9425 -0.2613
 1611TIP3   OH226323   0.845   2.366   0.340  0.3413 -0.4372 -0.0332
 1611TIP3    H126324   0.918   2.372   0.401 -0.2746  0.7905  0.6014
 1611TIP3    H226325   0.871   2.420   0.265  0.9479 -1.6671 -0.7561
 1612TIP3   OH226326   0.633   5.232  16.873 -0.8004 -0.0470 -0.0150
 1612TIP3    H126327   0.546   5.252  16.906  0.0019  1.0171  1.5673
 1612TIP3    H226328   0.668   5.316  16.844  0.1370 -0.2313  0.5194
 1613TIP3   OH226329   3.400   2.123  13.289 -0.3916  0.1472  0.3438
 1613TIP3    H126330   3.343   2.048  13.271 -0.0103 -0.2390  0.7153
 1613TIP3    H226331   3.387   2.181  13.214 -0.0594 -0.6779 -0.3736
 1614TIP3   OH226332   3.713   3.621   0.984  0.9910 -0.1806 -0.0503
 1614TIP3    H126333   3.771   3.679   0.936 -1.4819  3.7398  1.2225
 1614TIP3    H226334   3.724   3.645   1.076 -2.2607  0.6167  0.2747
 1615TIP3   OH226335   4.586   0.243   4.911 -0.4244 -0.3334  0.1249
 1615TIP3    H126336   4.560   0.179   4.977  2.0897 -0.9225  0.6701
 1615TIP3    H226337   4.578   0.328   4.955  2.1514 -0.7757  1.6632
 1616TIP3   OH226338   4.343   6.057   1.261 -0.1896 -0.0877 -0.2627
 1616TIP3    H126339   4.410   6.125   1.268 -0.4740  0.1070  0.7949
 1616TIP3    H226340   4.270   6.090   1.314 -0.2204 -1.3398  0.5169
 1617TIP3   OH226341   3.761   5.429  13.088 -0.2180 -0.1473  0.0047
 1617TIP3    H126342   3.748   5.336  13.071 -0.5132 -0.2187  0.6021
 1617TIP3    H226343   3.743   5.472  13.004  0.8548 -0.7014 -0.5216
 1618TIP3   OH226344   1.303   3.614  16.610  0.7228 -0.0583  0.9263
 1618TIP3    H126345   1.330   3.622  16.701  1.5262 -0.9384  0.7902
 1618TIP3    H226346   1.384   3.630  16.560  0.3517  0.1513  0.3861
 1619TIP3   OH226347   5.796   4.451   4.559 -0.0291  0.0474 -0.1965
 1619TIP3    H126348   5.850   4.389   4.511  1.7443  1.0469  0.3950
 1619TIP3    H226349   5.838   4.457   4.646 -1.9661 -0.2153  0.8003
 1620TIP3   OH226350   3.731   4.591   3.932 -0.0747  0.0208 -0.2178
 1620TIP3    H126351   3.671   4.634   3.871  0.7419 -0.2770 -1.2513
 1620TIP3    H226352   3.722   4.640   4.014 -2.8061 -0.8822  0.1359
 1621TIP3   OH226353   0.558   1.575   2.027  0.0020  0.1033 -0.4452
 1621TIP3    H126354   0.540   1.658   1.984 -1.4234 -0.5007 -1.0774
 1621TIP3    H226355   0.636   1.592   2.080 -0.7945  2.1092  0.1761
 1622TIP3   OH226356   6.363   5.967   5.187  0.2888 -0.2973 -0.3800
 1622TIP3    H126357   6.411   5.884   5.186  0.6474 -0.1205  0.7579
 1622TIP3    H226358   6.275   5.944   5.217  0.7739 -0.1113  1.3136
 1623TIP3   OH226359   2.504   0.224  14.743 -0.2357  0.1294  0.4871
 1623TIP3    H126360   2.482   0.276  14.821 -0.2239  1.0647 -0.1182
 1623TIP3    H226361   2.427   0.169  14.728 -0.9187  1.1364  0.2023
 1624TIP3   OH226362   6.400   3.811   5.179  0.2361  0.0689 -0.3006
 1624TIP3    H126363   6.412   3.759   5.100  1.4880 -2.5217  1.4381
 1624TIP3    H226364   6.305   3.826   5.183 -0.0859 -1.4254 -1.3158
 1625TIP3   OH226365   0.151   4.377  12.515 -0.2420 -0.3035  0.8145
 1625TIP3    H126366   0.143   4.296  12.464 -0.1820  1.4191 -2.1873
 1625TIP3    H226367   0.079   4.373  12.577  1.1385 -3.6573  2.4431
 1626TIP3   OH226368   2.840   3.413   2.863  0.5300  0.2977 -0.1281
 1626TIP3    H126369   2.906   3.355   2.825  1.1555  1.7078 -1.3215
 1626TIP3    H226370   2.837   3.389   2.955  1.4970 -0.9224 -0.3859
 1627TIP3   OH226371   3.673   2.368   1.076 -0.0054  0.3002 -0.2718
 1627TIP3    H126372   3.753   2.330   1.114  1.2090  2.2208 -0.7928
 1627TIP3    H226373   3.687   2.364   0.982 -0.8930 -0.0620 -0.3954
 1628TIP3   OH226374   0.715   0.719  15.805  0.3091  0.3700  0.2137
 1628TIP3    H126375   0.650   0.661  15.843  1.2772 -0.8656  0.0396
 1628TIP3    H226376   0.710   0.799  15.858 -1.0765  0.1643  0.4177
 1629TIP3   OH226377   2.375   5.207  14.514  0.3744 -0.7743  0.0432
 1629TIP3    H126378   2.279   5.204  14.524  0.2633  1.7288  0.3182
 1629TIP3    H226379   2.402   5.281  14.568  2.3364 -0.6933 -0.9815
 1630TIP3   OH226380   6.142   1.586  15.368  0.0911  0.3002 -0.2740
 1630TIP3    H126381   6.078   1.648  15.404 -0.7905 -0.3942 -0.6279
 1630TIP3    H226382   6.090   1.513  15.336  1.0207  0.0079 -1.1662
 1631TIP3   OH226383   6.693   6.468   5.113  0.1043  0.1628 -0.1994
 1631TIP3    H126384   6.739   6.468   5.029 -2.9406  0.6999 -2.0101
 1631TIP3    H226385   6.704   6.557   5.147 -0.3620  0.5573 -1.0664
 1632TIP3   OH226386   1.053   3.271  12.081 -0.0495  0.2670  0.5668
 1632TIP3    H126387   0.992   3.343  12.063 -0.6049 -0.0882  0.9767
 1632TIP3    H226388   1.127   3.313  12.124 -0.1809  0.6529  0.4270
 1633TIP3   OH226389   5.517   1.461   5.495  0.5488 -0.1755  0.6611
 1633TIP3    H126390   5.515   1.547   5.538  0.5850  0.9193 -1.3838
 1633TIP3    H226391   5.442   1.463   5.436  1.6791 -0.7319 -0.8572
 1634TIP3   OH226392   5.050   1.011  12.607 -0.0188 -0.1782 -0.4349
 1634TIP3    H126393   5.144   1.001  12.588  0.3973  1.2281  0.6836
 1634TIP3    H226394   5.006   0.976  12.529  1.4079 -1.4891 -0.6962
 1635TIP3   OH226395   4.113   4.149  12.123 -0.3193  0.3192 -0.6345
 1635TIP3    H126396   4.116   4.154  12.218  3.0397  1.2724 -0.6396
 1635TIP3    H226397   4.061   4.071  12.104 -0.0831 -0.5728  2.0115
 1636TIP3   OH226398   4.164   1.893  16.813 -0.4933 -0.4112 -0.3103
 1636TIP3    H126399   4.083   1.911  16.860 -0.2843 -2.1033  0.7765
 1636TIP3    H226400   4.138   1.837  16.740 -0.4218 -0.1068 -0.5760
 1637TIP3   OH226401   4.466   5.216  17.487  0.1873 -0.1627 -0.3520
 1637TIP3    H126402   4.450   5.265  17.406  1.9616 -0.7195 -1.0897
 1637TIP3    H226403   4.448   5.125  17.464 -0.5692 -0.1809  0.2749
 1638TIP3   OH226404   6.295   5.705   3.655  0.7259  0.3878 -0.0272
 1638TIP3    H126405   6.332   5.618   3.665 -1.0020 -0.3771  0.0032
 1638TIP3    H226406   6.296   5.743   3.743 -0.8223 -0.6075  0.4585
 1639TIP3   OH226407   0.131   2.533  15.988 -0.1246 -0.0481  0.2792
 1639TIP3    H126408   0.051   2.524  16.040 -0.2912 -3.1573 -0.3709
 1639TIP3    H226409   0.103   2.575  15.907 -0.8734 -0.0976  0.5077
 1640TIP3   OH226410   5.501   3.412   1.848  0.1418  0.5041  0.4472
 1640TIP3    H126411   5.545   3.340   1.802  0.2853  0.8120  0.1033
 1640TIP3    H226412   5.439   3.447   1.784  0.4583  1.0407  0.4242
 1641TIP3   OH226413   0.276   0.745  11.578 -0.2477  0.3141  0.0377
 1641TIP3    H126414   0.213   0.684  11.540 -0.5326 -0.2552  1.3456
 1641TIP3    H226415   0.357   0.694  11.587 -0.4056  0.1988  0.8752
 1642TIP3   OH226416   6.275   1.450  15.696  0.2263 -0.8938 -0.2491
 1642TIP3    H126417   6.337   1.401  15.642  1.6349 -1.0096  1.4010
 1642TIP3    H226418   6.191   1.409  15.678  0.3532 -0.0922 -3.3202
 1643TIP3   OH226419   1.838   6.140  12.573 -0.2147 -0.3841 -0.1643
 1643TIP3    H126420   1.875   6.115  12.657  0.1731 -1.5581 -0.6584
 1643TIP3    H226421   1.815   6.057  12.531  0.0151  0.1431 -1.3941
 1644TIP3   OH226422   3.363   4.785  16.762 -0.1049 -0.2465 -0.2238
 1644TIP3    H126423   3.339   4.850  16.827 -2.1581  0.2098 -1.3523
 1644TIP3    H226424   3.357   4.701  16.809 -0.9949  0.1115  0.3255
 1645TIP3   OH226425   0.666   1.182   5.914 -0.3354 -0.0692 -0.1994
 1645TIP3    H126426   0.698   1.195   6.003 -2.0051 -1.3959  0.6518
 1645TIP3    H226427   0.704   1.254   5.864  1.7981 -0.0972  1.2447
 1646TIP3   OH226428   4.240   4.933   4.526  0.4005  0.0871  0.0288
 1646TIP3    H126429   4.250   4.946   4.620  1.8555 -0.0537 -0.0829
 1646TIP3    H226430   4.270   5.015   4.487  0.3254 -0.0527 -0.3301
 1647TIP3   OH226431   1.407   1.660  14.190 -0.3409  0.0124  0.5569
 1647TIP3    H126432   1.385   1.577  14.148 -1.9330  0.4089  0.5738
 1647TIP3    H226433   1.416   1.722  14.118 -0.9315  0.2142  0.6535
 1648TIP3   OH226434   4.456   2.386   4.385 -0.4548 -0.2252 -0.2564
 1648TIP3    H126435   4.456   2.479   4.410 -0.0021  0.0839 -1.3331
 1648TIP3    H226436   4.424   2.386   4.295  0.7989 -0.9667 -0.7177
 1649TIP3   OH226437   6.538   1.266   5.845  0.0176  0.6776  0.3261
 1649TIP3    H126438   6.627   1.241   5.823 -0.0323  0.8794 -0.1310
 1649TIP3    H226439   6.545   1.357   5.876  0.2391  0.0465  2.2640
 1650TIP3   OH226440   2.336   1.544  14.070 -0.5429 -0.4513  0.2010
 1650TIP3    H126441   2.288   1.622  14.096 -0.1547 -0.5812  1.3706
 1650TIP3    H226442   2.338   1.489  14.148  1.0215 -0.6886  0.0477
 1651TIP3   OH226443   0.064   5.379  15.298 -0.2229  0.0951  0.1614
 1651TIP3    H126444   0.046   5.439  15.370 -0.1545  1.5578 -0.9807
 1651TIP3    H226445   0.032   5.425  15.220 -0.2350 -1.3975 -0.7634
 1652TIP3   OH226446   4.863   6.174  14.785 -0.5028  0.3301  0.2293
 1652TIP3    H126447   4.778   6.205  14.754 -0.0969 -0.8694 -2.3598
 1652TIP3    H226448   4.926   6.236  14.746 -0.0647 -0.2304  0.0340
 1653TIP3   OH226449   0.893   6.099   5.272  0.1161 -0.5450 -0.4752
 1653TIP3    H126450   0.851   6.030   5.219  0.8789 -0.7975 -0.7675
 1653TIP3    H226451   0.885   6.178   5.218 -0.9655 -0.3442 -0.0384
 1654TIP3   OH226452   0.356   6.161   5.766  0.3488  0.5107 -0.3922
 1654TIP3    H126453   0.311   6.137   5.847  0.2204 -1.4111 -0.9791
 1654TIP3    H226454   0.398   6.245   5.785 -0.8391  0.7814  1.1910
 1655TIP3   OH226455   2.748   6.670   5.009 -0.0083 -0.4350  0.7347
 1655TIP3    H126456   2.746   6.637   4.919  0.2315 -0.3159  0.6866
 1655TIP3    H226457   2.659   6.655   5.042 -0.5946  1.1020 -0.0786
 1656TIP3   OH226458   6.480   4.537  12.043  0.1495 -0.3034  0.0985
 1656TIP3    H126459   6.472   4.542  11.947  0.1395 -1.9094 -0.0039
 1656TIP3    H226460   6.548   4.471  12.058 -1.2696 -1.5787  1.2023
 1657TIP3   OH226461   1.161   1.763   3.931  0.0155  0.5864  0.1701
 1657TIP3    H126462   1.096   1.726   3.871  0.3754 -0.4014  0.3836
 1657TIP3    H226463   1.181   1.849   3.893  1.3873 -0.6285 -2.0283
 1658TIP3   OH226464   6.236   2.130  12.539 -0.4947  0.0807  0.1501
 1658TIP3    H126465   6.231   2.216  12.580 -1.0449 -0.4722  1.3222
 1658TIP3    H226466   6.329   2.116  12.521 -0.3836  0.8378  0.1288
 1659TIP3   OH226467   4.711   1.900   0.286  0.6652 -0.2561 -0.2020
 1659TIP3    H126468   4.748   1.822   0.245 -1.1916 -0.6148 -1.3327
 1659TIP3    H226469   4.636   1.867   0.336  1.1418  0.5601  1.0799
 1660TIP3   OH226470   6.546   3.409  12.789 -0.0395  0.3790  0.3500
 1660TIP3    H126471   6.469   3.449  12.748  0.5898  0.6241 -0.6063
 1660TIP3    H226472   6.509   3.351  12.857 -1.0821  0.2215 -0.3294
 1661TIP3   OH226473   0.341   1.914  13.517 -0.1576  0.2806 -0.2507
 1661TIP3    H126474   0.275   1.870  13.463 -1.8982  0.5231  1.5494
 1661TIP3    H226475   0.295   1.989  13.554  1.7067  1.5398 -0.3746
 1662TIP3   OH226476   2.567   5.444   0.293 -0.1793 -0.3481 -0.0609
 1662TIP3    H126477   2.626   5.369   0.285 -0.0706 -0.3031  0.3007
 1662TIP3    H226478   2.516   5.425   0.371  0.9884  0.7453  1.0110
 1663TIP3   OH226479   5.991   4.551  16.735  0.2577 -0.1484  0.3156
 1663TIP3    H126480   5.903   4.583  16.754 -0.1906 -1.0284 -0.2210
 1663TIP3    H226481   5.998   4.553  16.640  1.2847  1.0873  0.3830
 1664TIP3   OH226482   3.679   6.388   4.992 -0.1315 -0.2208  0.1430
 1664TIP3    H126483   3.696   6.459   4.929  0.0218 -0.6084 -0.2555
 1664TIP3    H226484   3.586   6.399   5.014 -0.1363  0.0448  0.0067
 1665TIP3   OH226485   6.430   6.685   3.147 -0.4763  0.2578  0.1404
 1665TIP3    H126486   6.407   6.762   3.198 -0.9223  1.4208 -1.6969
 1665TIP3    H226487   6.496   6.716   3.085  1.2661 -1.4936  1.0381
 1666TIP3   OH226488   3.824   0.755  14.587  0.1859  0.1844 -0.1120
 1666TIP3    H126489   3.767   0.826  14.556 -0.2537 -0.2972 -0.4250
 1666TIP3    H226490   3.836   0.699  14.510  0.9113  0.1638  0.0070
 1667TIP3   OH226491   4.484   6.276   2.656  0.4230  0.5474  0.6528
 1667TIP3    H126492   4.578   6.289   2.671  0.8577 -0.4530 -0.9120
 1667TIP3    H226493   4.459   6.347   2.597  0.6204 -0.2017 -0.3480
 1668TIP3   OH226494   4.683   0.094  12.653 -0.5127  0.4514  0.0858
 1668TIP3    H126495   4.759   0.138  12.615  1.0671 -0.9766  1.4046
 1668TIP3    H226496   4.611   0.155  12.641  0.8844  1.9671 -1.0118
 1669TIP3   OH226497   0.862   2.155  15.683  0.3575  0.4173  0.2123
 1669TIP3    H126498   0.809   2.229  15.653 -2.0341 -1.5794 -0.8694
 1669TIP3    H226499   0.911   2.127  15.606  0.5435  0.3249  0.3634
 1670TIP3   OH226500   2.080   5.795  15.263  0.0806 -0.0424 -0.0317
 1670TIP3    H126501   2.012   5.843  15.311 -1.1174 -2.2593  0.6129
 1670TIP3    H226502   2.144   5.770  15.330 -0.6850 -1.5948  0.1737
 1671TIP3   OH226503   4.044   0.334   2.059 -0.5147  0.1235  0.5275
 1671TIP3    H126504   4.137   0.356   2.050 -1.0087  2.6099  0.6815
 1671TIP3    H226505   4.032   0.320   2.153 -0.6298  1.7447  0.7787
 1672TIP3   OH226506   2.210   6.020   4.622  0.2391  0.4199 -0.5444
 1672TIP3    H126507   2.225   5.927   4.601  0.2393 -0.0798  1.5007
 1672TIP3    H226508   2.296   6.052   4.649 -0.1650  0.4600  0.7206
 1673TIP3   OH226509   5.898   5.626   5.553  0.2040 -0.9120  0.3051
 1673TIP3    H126510   5.949   5.683   5.496 -0.7985 -0.7543 -0.4573
 1673TIP3    H226511   5.960   5.597   5.620  1.4180 -1.1899 -0.9142
 1674TIP3   OH226512   5.852   5.555  11.647  0.0416  0.1501 -0.0298
 1674TIP3    H126513   5.773   5.553  11.700  0.3544  1.6531  0.5505
 1674TIP3    H226514   5.831   5.612  11.574  0.6547  0.7591  0.2600
 1675TIP3   OH226515   4.096   0.635   3.303 -0.2068 -0.3505  0.1474
 1675TIP3    H126516   4.169   0.668   3.250 -0.2768 -0.0704  0.2236
 1675TIP3    H226517   4.032   0.602   3.240 -0.0243 -0.5788  0.0789
 1676TIP3   OH226518   5.683   5.535   5.083 -0.1887 -0.2185  0.0556
 1676TIP3    H126519   5.707   5.513   4.993 -0.2969  0.8571 -0.2581
 1676TIP3    H226520   5.705   5.457   5.133  2.1206 -0.0289 -0.5225
 1677TIP3   OH226521   2.190   2.374   2.025 -0.1542 -0.2114  0.0643
 1677TIP3    H126522   2.098   2.370   2.052 -0.9960 -0.6685 -2.5597
 1677TIP3    H226523   2.224   2.286   2.039  0.0893  0.0981  1.5649
 1678TIP3   OH226524   5.853   1.651  11.673  0.3082 -0.4850 -0.6497
 1678TIP3    H126525   5.816   1.563  11.683  1.1095 -0.7685 -0.1346
 1678TIP3    H226526   5.837   1.672  11.581  0.0321 -1.1297 -0.7592
 1679TIP3   OH226527   5.959   3.040   1.415  0.2548 -0.0872 -0.1120
 1679TIP3    H126528   5.864   3.046   1.402  0.4976  1.8055 -1.7172
 1679TIP3    H226529   5.976   3.095   1.491 -0.0450 -1.5671  1.0509
 1680TIP3   OH226530   3.907   0.690  14.312  0.2804 -0.6382 -0.1597
 1680TIP3    H126531   3.869   0.713  14.227  0.4672  0.4358  0.0310
 1680TIP3    H226532   3.960   0.767  14.336 -1.3767 -0.0426  1.8756
 1681TIP3   OH226533   6.182   6.687   1.012  0.6337  0.0672 -0.6949
 1681TIP3    H126534   6.253   6.653   1.066  1.2569  0.2006 -1.4063
 1681TIP3    H226535   6.103   6.677   1.066  1.4876  2.0613  1.0786
 1682TIP3   OH226536   4.939   1.120   0.548  0.2052  0.3399 -0.3307
 1682TIP3    H126537   5.018   1.069   0.565  0.6919  1.5789  1.4831
 1682TIP3    H226538   4.882   1.101   0.622 -1.6474 -1.2378 -2.0644
 1683TIP3   OH226539   5.913   1.850   6.593  0.4499 -0.4251 -0.2230
 1683TIP3    H126540   5.915   1.914   6.522 -1.0627 -0.0823  0.0064
 1683TIP3    H226541   5.895   1.903   6.672  0.9422 -0.9359  0.2384
 1684TIP3   OH226542   2.726   3.943   5.121  0.1205 -0.0550  0.0690
 1684TIP3    H126543   2.636   3.911   5.129 -0.1161  0.6578  0.3843
 1684TIP3    H226544   2.740   3.952   5.027  0.7591 -2.5909 -0.1399
 1685TIP3   OH226545   3.341   1.863  14.359  0.1398 -0.1553 -0.2187
 1685TIP3    H126546   3.348   1.929  14.291 -0.5535  0.0095 -0.1302
 1685TIP3    H226547   3.282   1.796  14.323 -0.6624  0.1929  0.4181
 1686TIP3   OH226548   0.146   6.013   4.583  0.3622 -0.3978  0.3092
 1686TIP3    H126549   0.154   5.950   4.655 -0.6678 -0.8100  0.0805
 1686TIP3    H226550   0.054   6.009   4.557  0.8786 -0.9958 -1.6679
 1687TIP3   OH226551   1.933   1.274   4.925  0.3443  0.6786  0.2782
 1687TIP3    H126552   2.022   1.310   4.931  0.7923 -0.2899 -0.3432
 1687TIP3    H226553   1.921   1.226   5.007  1.4423 -1.4323 -0.7070
 1688TIP3   OH226554   0.911   1.316  11.399  0.5453 -0.3608 -0.1024
 1688TIP3    H126555   0.999   1.337  11.429  0.7693  1.0885 -1.6060
 1688TIP3    H226556   0.857   1.389  11.430 -0.4105 -1.7348  1.7149
 1689TIP3   OH226557   6.034   5.224   6.150  0.0740  0.2635 -0.4193
 1689TIP3    H126558   6.093   5.193   6.082  0.2495  4.5580 -2.5888
 1689TIP3    H226559   6.088   5.283   6.204 -1.0761  0.2496  0.8113
 1690TIP3   OH226560   3.039   1.612  16.464 -0.3442  0.0114  0.4338
 1690TIP3    H126561   2.977   1.680  16.437 -1.0284 -1.2319 -1.2524
 1690TIP3    H226562   3.125   1.654  16.458 -0.7351  0.6846 -0.7769
 1691TIP3   OH226563   1.829   6.447  15.298  0.2418 -0.2166 -0.2668
 1691TIP3    H126564   1.850   6.480  15.386 -0.5546 -0.6711  0.1024
 1691TIP3    H226565   1.901   6.478  15.243  2.4527 -2.5349  1.1142
 1692TIP3   OH226566   1.528   1.425   0.802 -0.0062 -0.1396 -0.6277
 1692TIP3    H126567   1.541   1.349   0.858 -1.1956 -0.2060 -0.4244
 1692TIP3    H226568   1.436   1.420   0.775  0.0574  0.9004 -1.0809
 1693TIP3   OH226569   1.989   3.494   9.023 -0.2564  0.0425 -0.3863
 1693TIP3    H126570   1.977   3.565   8.959 -3.7509 -0.5947 -0.6619
 1693TIP3    H226571   1.936   3.422   8.989 -0.7007 -0.9952  2.2815
 1694TIP3   OH226572   4.367   5.728   6.113 -0.1180  0.2132  0.0129
 1694TIP3    H126573   4.399   5.812   6.081 -0.8564  0.8065  0.7968
 1694TIP3    H226574   4.314   5.694   6.041 -3.9010  2.7032  1.3473
 1695TIP3   OH226575   2.155   6.113  14.857 -0.0076 -0.0908  0.3894
 1695TIP3    H126576   2.216   6.144  14.790  0.1685 -0.2101  0.4935
 1695TIP3    H226577   2.116   6.034  14.820 -0.0386 -0.0599  0.3557
 1696TIP3   OH226578   5.251   0.417  11.414 -0.2781 -0.4527  0.1245
 1696TIP3    H126579   5.183   0.405  11.480 -1.2160 -0.3158 -0.7840
 1696TIP3    H226580   5.203   0.418  11.331  1.0685 -2.8088 -0.7671
 1697TIP3   OH226581   3.037   6.343   3.019  0.0334  0.0238 -0.5648
 1697TIP3    H126582   3.027   6.328   3.113  0.4204 -0.5118 -0.6014
 1697TIP3    H226583   3.053   6.437   3.011  1.3265 -0.1127  0.0438
 1698TIP3   OH226584   1.774   4.115   4.912  0.4249 -0.1560 -0.8542
 1698TIP3    H126585   1.808   4.031   4.941 -0.8966 -1.1508 -2.0362
 1698TIP3    H226586   1.783   4.173   4.988 -0.2430 -1.8367  0.5639
 1699TIP3   OH226587   5.578   2.457   5.253  0.2755 -0.1758  0.1397
 1699TIP3    H126588   5.656   2.500   5.217 -0.6668  1.7834  0.3145
 1699TIP3    H226589   5.604   2.428   5.340  0.7333  0.7358  0.3126
 1700TIP3   OH226590   6.720   3.320   1.196 -0.0422  0.0682 -0.1749
 1700TIP3    H126591   6.672   3.293   1.118 -0.6820 -0.7539  0.4908
 1700TIP3    H226592   6.741   3.238   1.241 -1.6626  0.6031  1.6728
 1701TIP3   OH226593   4.551   4.247   4.210  0.3884  0.2968 -0.3923
 1701TIP3    H126594   4.625   4.192   4.184  0.3761 -0.4459  1.0244
 1701TIP3    H226595   4.478   4.216   4.156  0.2342 -1.5338  0.7941
 1702TIP3   OH226596   2.862   2.303  15.795  0.3376 -0.4582  0.0829
 1702TIP3    H126597   2.809   2.369  15.749 -0.8379 -1.9497 -0.7732
 1702TIP3    H226598   2.849   2.322  15.888 -0.9308 -0.2020 -0.1334
 1703TIP3   OH226599   2.949   4.888  12.298 -0.7293  0.3996  0.0884
 1703TIP3    H126600   3.014   4.949  12.334 -0.9850  0.5433  0.3108
 1703TIP3    H226601   2.875   4.895  12.358  0.4105 -2.5096  2.0537
 1704TIP3   OH226602   3.845   0.937  17.653 -0.2907 -0.5285 -0.1118
 1704TIP3    H126603   3.805   1.016  17.617 -1.1908 -1.0037 -0.1852
 1704TIP3    H226604   3.863   0.883  17.577  1.1721 -0.0266 -0.1412
 1705TIP3   OH226605   2.067   5.377   2.412 -0.2710  0.5417  0.1685
 1705TIP3    H126606   2.122   5.317   2.463  1.2515 -0.1334 -2.1234
 1705TIP3    H226607   1.988   5.326   2.393 -0.1963  0.2658  0.5790
 1706TIP3   OH226608   3.384   1.333  16.725 -0.0126  0.2593  0.0263
 1706TIP3    H126609   3.308   1.357  16.671 -0.6937 -1.1107  0.3334
 1706TIP3    H226610   3.453   1.393  16.698 -0.0110 -0.9739 -3.0963
 1707TIP3   OH226611   0.141   0.340   3.035 -0.1016  0.7549 -0.0052
 1707TIP3    H126612   0.127   0.411   2.972 -1.8674  0.8119  0.3990
 1707TIP3    H226613   0.060   0.288   3.030  0.0911  0.2701  1.5951
 1708TIP3   OH226614   6.704   3.217   5.230  0.0225  0.0230 -0.2379
 1708TIP3    H126615   6.679   3.268   5.154  1.0749  0.1861 -0.4966
 1708TIP3    H226616   6.789   3.253   5.256 -0.4255  0.1410  1.1625
 1709TIP3   OH226617   5.744   3.568  17.490  0.4223  0.3205  0.1909
 1709TIP3    H126618   5.740   3.474  17.508  0.8955  0.5003  1.3061
 1709TIP3    H226619   5.732   3.575  17.395 -2.3537 -0.6790  0.3780
 1710TIP3   OH226620   5.358   6.150   3.078 -0.2607 -0.3118 -0.3484
 1710TIP3    H126621   5.378   6.211   3.149  0.2361  0.6374 -1.2759
 1710TIP3    H226622   5.444   6.122   3.046 -0.4606 -0.0578 -1.1259
 1711TIP3   OH226623   4.957   2.063   3.888  0.2456  0.3959 -0.2409
 1711TIP3    H126624   4.896   1.989   3.881  0.6884  0.0912 -0.9143
 1711TIP3    H226625   4.921   2.129   3.828  0.2051  0.4859 -0.1192
 1712TIP3   OH226626   0.833   4.387  17.141 -0.1272  0.0505  0.3356
 1712TIP3    H126627   0.876   4.396  17.055  1.2171  2.5654  1.1551
 1712TIP3    H226628   0.756   4.334  17.124  0.2009  0.2984 -2.3973
 1713TIP3   OH226629   5.445   0.448   0.943  0.3373  0.2559 -0.1326
 1713TIP3    H126630   5.352   0.469   0.952  0.0552 -1.2688  0.9830
 1713TIP3    H226631   5.455   0.424   0.851  0.0152  2.0131 -0.6641
 1714TIP3   OH226632   0.119   0.892   0.585 -0.3787 -0.0401 -0.3568
 1714TIP3    H126633   0.049   0.836   0.553 -1.5878  1.7184 -0.9766
 1714TIP3    H226634   0.080   0.980   0.587  1.5771  0.8765  0.0327
 1715TIP3   OH226635   1.608   5.895  15.474 -0.4501 -0.2456 -0.0574
 1715TIP3    H126636   1.605   5.991  15.479 -1.2702 -0.3141  0.9644
 1715TIP3    H226637   1.633   5.877  15.383 -4.4023  0.8929 -1.5737
 1716TIP3   OH226638   5.267   5.761  16.811 -0.0050 -0.2397 -0.2071
 1716TIP3    H126639   5.339   5.704  16.785 -1.8045 -3.1083  0.5879
 1716TIP3    H226640   5.204   5.755  16.739  0.5001  2.3728 -0.9808
 1717TIP3   OH226641   3.588   2.247   3.954 -0.4171 -0.2542 -0.4108
 1717TIP3    H126642   3.559   2.291   4.034 -0.9195 -0.0123 -0.7224
 1717TIP3    H226643   3.516   2.187   3.933 -0.1497 -0.5401 -0.5074
 1718TIP3   OH226644   5.227   2.851  16.106 -0.0345  0.0930  0.4497
 1718TIP3    H126645   5.219   2.933  16.155 -1.9016 -0.1461  0.6532
 1718TIP3    H226646   5.316   2.821  16.122 -0.2926  0.4715  3.0218
 1719TIP3   OH226647   2.006   2.438   3.624  0.2976 -0.2531 -0.2059
 1719TIP3    H126648   1.975   2.370   3.683  1.4366  0.2419  1.0064
 1719TIP3    H226649   2.009   2.517   3.677  1.1079  0.2684 -0.9940
 1720TIP3   OH226650   1.909   1.065  14.647 -0.1529  0.4228  0.3724
 1720TIP3    H126651   1.855   1.099  14.718 -2.0479 -1.7987  0.0834
 1720TIP3    H226652   1.890   1.122  14.573  2.4721  3.3022  1.6689
 1721TIP3   OH226653   2.255   2.543   4.246 -0.0352  0.3666 -0.2430
 1721TIP3    H126654   2.266   2.477   4.177 -1.0659  0.8315 -0.8827
 1721TIP3    H226655   2.299   2.505   4.322  1.2988 -0.0697 -1.1997
 1722TIP3   OH226656   2.409   3.868  14.214 -0.1577 -0.7108 -0.2466
 1722TIP3    H126657   2.349   3.926  14.168  0.1108 -0.9749 -0.9340
 1722TIP3    H226658   2.478   3.926  14.247 -0.4412 -0.4990 -0.0266
 1723TIP3   OH226659   4.983   5.896  15.687  0.2143 -0.6141  0.0640
 1723TIP3    H126660   4.976   5.953  15.610  1.6168 -0.5093 -0.0036
 1723TIP3    H226661   5.023   5.816  15.654 -2.6318 -2.1276 -0.0486
 1724TIP3   OH226662   4.155   0.537  12.678 -0.4461 -0.2865 -0.4541
 1724TIP3    H126663   4.242   0.498  12.682 -0.6724 -0.6935  0.9979
 1724TIP3    H226664   4.147   0.568  12.588  1.2425 -0.1100 -0.5674
 1725TIP3   OH226665   1.800   0.574  17.286 -0.2462  0.0370 -0.1785
 1725TIP3    H126666   1.743   0.648  17.308  0.2321  0.5601 -0.6814
 1725TIP3    H226667   1.888   0.603  17.309  0.0289 -0.1224 -0.9864
 1726TIP3   OH226668   0.949   6.652   2.198 -0.5880 -0.1658 -0.0126
 1726TIP3    H126669   0.965   6.582   2.136  1.5511 -0.7269  1.0833
 1726TIP3    H226670   0.862   6.633   2.235 -0.8900 -1.0808 -1.1658
 1727TIP3   OH226671   3.555   5.513   3.680 -0.2220  0.3000  0.2665
 1727TIP3    H126672   3.508   5.557   3.610 -0.7843 -0.5558  0.0974
 1727TIP3    H226673   3.538   5.420   3.667  0.7821  0.0277  0.7335
 1728TIP3   OH226674   6.422   0.585  14.819 -0.1673  0.0564 -0.0229
 1728TIP3    H126675   6.481   0.659  14.804 -0.5664  0.6775  1.3372
 1728TIP3    H226676   6.481   0.510  14.829  0.2945  0.3606 -0.4208
 1729TIP3   OH226677   5.454   4.793   1.311 -0.0742 -0.2734 -0.3415
 1729TIP3    H126678   5.503   4.851   1.253 -1.7428 -0.5781 -2.1759
 1729TIP3    H226679   5.482   4.817   1.399  1.1207  1.5804 -1.1670
 1730TIP3   OH226680   2.835   5.248   4.488 -0.7201 -0.0760 -0.0079
 1730TIP3    H126681   2.796   5.334   4.471  1.5617  0.9849 -0.3090
 1730TIP3    H226682   2.833   5.239   4.583  0.2749  0.9995  0.1446
 1731TIP3   OH226683   5.333   2.055   3.530 -0.2799 -0.0751 -0.2973
 1731TIP3    H126684   5.238   2.043   3.526 -0.2098 -0.6577 -0.3252
 1731TIP3    H226685   5.355   2.045   3.622 -0.5665  2.7732  0.1639
 1732TIP3   OH226686   1.448   4.600  16.384 -0.2159 -0.1674 -0.6433
 1732TIP3    H126687   1.464   4.534  16.452  0.6156  0.0530 -0.6196
 1732TIP3    H226688   1.502   4.571  16.310  0.8183  0.9374 -0.3428
 1733TIP3   OH226689   0.719   4.645   2.328 -0.4524 -0.3331 -0.3669
 1733TIP3    H126690   0.744   4.681   2.243 -1.0068  1.0469  0.0285
 1733TIP3    H226691   0.800   4.648   2.379  0.1284 -2.0908 -1.1152
 1734TIP3   OH226692   5.191   1.849  16.645 -0.0147 -0.0792  0.0143
 1734TIP3    H126693   5.165   1.902  16.720  0.8670 -0.9551  0.9742
 1734TIP3    H226694   5.261   1.793  16.678 -0.3718 -1.2876 -1.1707
 1735TIP3   OH226695   4.309   5.915   0.254 -0.2147 -0.4371 -0.1735
 1735TIP3    H126696   4.272   5.913   0.166  0.8323  1.2070 -0.6871
 1735TIP3    H226697   4.346   6.003   0.263  2.2195 -1.4583  0.8373
 1736TIP3   OH226698   0.711   2.547   2.554 -0.2686  0.0483 -0.2595
 1736TIP3    H126699   0.628   2.574   2.593 -0.3232 -0.3240 -0.1143
 1736TIP3    H226700   0.777   2.597   2.601 -0.3558 -0.1962  0.1273
 1737TIP3   OH226701   3.564   3.643  16.889  0.0501  0.4988  0.0153
 1737TIP3    H126702   3.597   3.732  16.902 -1.1096  1.2641 -1.8434
 1737TIP3    H226703   3.642   3.588  16.886  0.7567  1.3412  1.7588
 1738TIP3   OH226704   1.604   6.204  11.837 -0.7092 -0.2867  0.6507
 1738TIP3    H126705   1.599   6.230  11.745  2.3295 -0.5549  0.3069
 1738TIP3    H226706   1.575   6.113  11.838  0.4625 -0.6979 -0.3112
 1739TIP3   OH226707   3.024   2.054  15.696  0.6523  0.3168 -0.1897
 1739TIP3    H126708   2.955   2.103  15.740  1.1236  1.4511 -0.6854
 1739TIP3    H226709   3.103   2.106  15.709  1.5042 -1.1394  0.6652
 1740TIP3   OH226710   2.233   1.076  11.619 -0.0915  0.1533 -0.3005
 1740TIP3    H126711   2.210   1.022  11.694 -2.6888  0.0945 -1.0697
 1740TIP3    H226712   2.262   1.159  11.657  0.1382 -0.3999  0.7771
 1741TIP3   OH226713   5.888   2.490   1.961  0.6312  0.0701 -0.4126
 1741TIP3    H126714   5.857   2.403   1.935  0.5854 -0.0094 -0.0992
 1741TIP3    H226715   5.955   2.473   2.027  2.4551  0.1739 -2.1262
 1742TIP3   OH226716   1.572   3.107   6.097 -0.5938  0.0219 -0.8828
 1742TIP3    H126717   1.595   3.158   6.020  0.8725  0.8654  0.0507
 1742TIP3    H226718   1.480   3.085   6.085 -1.3631  3.0233 -1.3102
 1743TIP3   OH226719   5.774   5.588  17.465 -0.0341 -0.4695 -0.3203
 1743TIP3    H126720   5.754   5.500  17.433  1.3488 -1.4911  1.3707
 1743TIP3    H226721   5.777   5.578  17.561  2.3448  0.8587 -0.1741
 1744TIP3   OH226722   3.129   2.354  16.247 -0.1612  0.0910 -0.0167
 1744TIP3    H126723   3.122   2.332  16.154  0.5167  0.1382 -0.0845
 1744TIP3    H226724   3.193   2.425  16.250  1.6450 -1.4777  0.7083
 1745TIP3   OH226725   3.225   6.215  15.084  0.4705  0.1252 -0.1204
 1745TIP3    H126726   3.192   6.305  15.080  5.3854  2.1920 -0.9986
 1745TIP3    H226727   3.199   6.184  15.171 -0.5577  2.7504  0.6027
 1746TIP3   OH226728   3.719   0.685  15.586 -0.0500 -0.2304 -0.3426
 1746TIP3    H126729   3.693   0.735  15.664 -0.0464 -0.6804 -0.0518
 1746TIP3    H226730   3.643   0.630  15.567 -1.2267  1.9000 -2.3616
 1747TIP3   OH226731   6.621   2.537   2.322  0.9901  0.1556 -0.4449
 1747TIP3    H126732   6.579   2.574   2.243  0.0172 -0.0838 -0.0526
 1747TIP3    H226733   6.628   2.444   2.304  1.3488  0.1922 -0.5010
 1748TIP3   OH226734   4.654   6.101   3.089 -0.1906 -0.1354  0.2482
 1748TIP3    H126735   4.737   6.056   3.070  0.0630 -0.6375  2.3139
 1748TIP3    H226736   4.591   6.030   3.103  0.2121  0.0004  3.5646
 1749TIP3   OH226737   5.092   3.520  15.313 -0.0035 -0.8182 -0.8046
 1749TIP3    H126738   5.132   3.597  15.271 -0.9310 -1.0529 -2.1559
 1749TIP3    H226739   5.161   3.454  15.311  0.7264 -0.1214  0.1553
 1750TIP3   OH226740   3.462   1.660   1.564 -0.4429 -0.7213  0.2867
 1750TIP3    H126741   3.537   1.602   1.579  0.3280  0.3320  0.6664
 1750TIP3    H226742   3.497   1.748   1.579 -1.6514 -0.1748  0.0102
 1751TIP3   OH226743   2.862   2.324   0.461  0.2381 -0.2727 -0.0785
 1751TIP3    H126744   2.823   2.260   0.401  0.2128 -0.6569  0.3438
 1751TIP3    H226745   2.875   2.276   0.542 -2.0764  0.8778  1.0850
 1752TIP3   OH226746   6.024   4.066   5.951  0.5333  0.0611  0.1251
 1752TIP3    H126747   6.098   4.059   6.011  0.6711 -0.3898 -0.0978
 1752TIP3    H226748   6.021   3.982   5.906  0.0763  0.1905 -0.0912
 1753TIP3   OH226749   6.280   3.085  17.448 -0.5320 -0.2875 -0.0699
 1753TIP3    H126750   6.206   3.142  17.467 -0.7568 -0.6227  0.0497
 1753TIP3    H226751   6.347   3.145  17.413 -0.9328 -0.0182 -0.3852
 1754TIP3   OH226752   0.174   1.353   4.702  0.4384  0.6549 -0.2522
 1754TIP3    H126753   0.197   1.299   4.777 -2.1113  0.6570  0.6112
 1754TIP3    H226754   0.213   1.307   4.627  2.5003  0.3336  0.9293
 1755TIP3   OH226755   5.018   6.279  17.454  0.3038  0.4749 -0.4868
 1755TIP3    H126756   5.099   6.279  17.403  0.0874 -0.4245 -0.8399
 1755TIP3    H226757   4.950   6.253  17.392 -0.1344  0.4657 -0.0114
 1756TIP3   OH226758   5.849   4.302  17.294 -0.7887  0.3864  0.0229
 1756TIP3    H126759   5.797   4.238  17.342 -0.2166 -0.5364 -0.5660
 1756TIP3    H226760   5.859   4.375  17.355 -0.5642 -0.5092  1.0879
 1757TIP3   OH226761   2.140   2.883   4.587 -0.2647 -0.0014  0.3120
 1757TIP3    H126762   2.105   2.835   4.512  0.0723  2.4129 -1.5274
 1757TIP3    H226763   2.233   2.893   4.568 -0.0426  0.1161  1.3824
 1758TIP3   OH226764   1.081   6.597  11.500  0.2269  0.0519 -0.1166
 1758TIP3    H126765   1.108   6.683  11.533 -1.7785  1.1673 -1.1476
 1758TIP3    H226766   1.067   6.544  11.579  0.3751  1.0418  0.5938
 1759TIP3   OH226767   6.270   0.830  13.311  0.0853 -0.1783 -0.1432
 1759TIP3    H126768   6.323   0.814  13.389 -0.6942  1.4326  0.7607
 1759TIP3    H226769   6.328   0.879  13.252  0.1510  0.0623  0.1184
 1760TIP3   OH226770   5.221   1.571   2.637  0.5025 -0.2654  0.3122
 1760TIP3    H126771   5.217   1.658   2.676  1.3172 -0.0942  0.0352
 1760TIP3    H226772   5.149   1.570   2.574  1.6909  0.9587 -1.1503
 1761TIP3   OH226773   0.168   1.601   2.544  0.3414  0.4004 -0.3350
 1761TIP3    H126774   0.229   1.674   2.544  0.4540  0.3108 -0.7293
 1761TIP3    H226775   0.189   1.552   2.463 -0.8750  0.8876 -0.9716
 1762TIP3   OH226776   5.522   5.032   6.109 -0.0448  0.1669  0.0260
 1762TIP3    H126777   5.430   5.005   6.112  0.0174 -0.2914 -1.5937
 1762TIP3    H226778   5.559   4.997   6.190 -0.5325 -2.5732 -0.8296
 1763TIP3   OH226779   5.870   0.807   5.364  0.3312  0.5889 -0.6853
 1763TIP3    H126780   5.862   0.743   5.436  0.4197  2.0544  0.6819
 1763TIP3    H226781   5.798   0.785   5.305 -1.1143  0.6384  0.9500
 1764TIP3   OH226782   5.114   4.957  13.992 -0.4683 -0.1777  0.3157
 1764TIP3    H126783   5.119   5.051  14.009  2.1034 -0.0621 -0.6179
 1764TIP3    H226784   5.114   4.916  14.079 -3.1965  0.6336  0.7893
 1765TIP3   OH226785   1.536   1.672   1.861  0.6988  0.6535  0.0811
 1765TIP3    H126786   1.516   1.714   1.777  0.7068  0.7412  0.1229
 1765TIP3    H226787   1.628   1.646   1.853  0.1443 -1.1987 -0.7271
 1766TIP3   OH226788   2.422   3.709  16.430 -0.2061 -0.0067  0.3067
 1766TIP3    H126789   2.359   3.711  16.502  1.7736 -0.5668  2.1316
 1766TIP3    H226790   2.409   3.622  16.390 -1.4316  0.3739 -0.1891
 1767TIP3   OH226791   1.120   3.378   1.921  0.1162  0.0197 -0.4307
 1767TIP3    H126792   1.178   3.318   1.969  2.0839  0.6287 -1.9515
 1767TIP3    H226793   1.051   3.399   1.985  0.4814 -2.1981  0.8282
 1768TIP3   OH226794   2.075   1.431   3.598 -0.4157 -0.0164 -0.4112
 1768TIP3    H126795   2.142   1.420   3.531  1.2225  0.6286  1.0344
 1768TIP3    H226796   2.113   1.391   3.677 -0.5989  2.5012  1.0794
 1769TIP3   OH226797   0.643   4.770   3.898 -0.1048  0.2712  0.2476
 1769TIP3    H126798   0.710   4.702   3.902  1.4080  1.7725  1.9280
 1769TIP3    H226799   0.625   4.779   3.804  0.9937 -1.1624 -0.1447
 1770TIP3   OH226800   3.525   5.029  11.380 -0.1220 -0.9865 -1.0047
 1770TIP3    H126801   3.552   4.950  11.427  0.6596  0.1148  0.4765
 1770TIP3    H226802   3.431   5.037  11.399  0.6955  1.2721  3.5088
 1771TIP3   OH226803   3.413   4.740   0.575 -0.1026  0.3548  0.7409
 1771TIP3    H126804   3.318   4.734   0.565 -0.1113  1.1152  0.2625
 1771TIP3    H226805   3.440   4.802   0.506  0.9844 -1.3524 -0.4322
 1772TIP3   OH226806   3.673   3.407   6.733  0.0548 -0.2997  0.0485
 1772TIP3    H126807   3.642   3.384   6.821 -1.5633  2.0120  0.1868
 1772TIP3    H226808   3.592   3.415   6.681  0.8762 -0.0605 -1.2369
 1773TIP3   OH226809   1.496   4.822   3.059 -0.1427  0.3613 -0.1579
 1773TIP3    H126810   1.540   4.795   3.140  0.7160 -0.9046 -0.9961
 1773TIP3    H226811   1.508   4.917   3.055  0.4403  0.3376  0.8351
 1774TIP3   OH226812   1.163   5.177  17.001  0.4030  0.2841 -0.4060
 1774TIP3    H126813   1.093   5.135  17.051  1.2691  1.1520  1.6467
 1774TIP3    H226814   1.208   5.105  16.957 -0.6352 -0.4659 -0.2733
 1775TIP3   OH226815   1.782   0.004   2.865 -0.1167  0.1208  0.2473
 1775TIP3    H126816   1.830   0.061   2.925  0.9827  0.3872 -0.8536
 1775TIP3    H226817   1.847  -0.059   2.835 -0.7062 -0.1442 -0.4948
 1776TIP3   OH226818   4.056   1.477  15.665  0.1316  0.1916 -0.1180
 1776TIP3    H126819   3.969   1.440  15.647  0.0130 -0.6028  1.8920
 1776TIP3    H226820   4.046   1.570  15.645 -1.1985  0.1194  0.1222
 1777TIP3   OH226821   3.832   3.450   4.883  0.3772  0.1345  0.0424
 1777TIP3    H126822   3.906   3.400   4.850  0.4048  1.2209 -1.6464
 1777TIP3    H226823   3.758   3.421   4.830 -0.5655 -1.2297  1.9639
 1778TIP3   OH226824   1.069   5.616   4.450  0.3856  0.4256  0.1298
 1778TIP3    H126825   1.081   5.627   4.356  0.5311  1.5792  0.2734
 1778TIP3    H226826   1.029   5.529   4.459 -1.9982  1.3006 -1.1668
 1779TIP3   OH226827   6.323   4.290  12.764  1.0601 -0.5367 -0.1349
 1779TIP3    H126828   6.272   4.363  12.800  1.4240  0.5541 -1.7626
 1779TIP3    H226829   6.360   4.247  12.842  0.4121  0.6686  0.8827
 1780TIP3   OH226830   0.135   5.259  13.630  0.4028  0.2150  0.3497
 1780TIP3    H126831   0.171   5.343  13.659  0.7981  0.1115  0.1740
 1780TIP3    H226832   0.168   5.248  13.541  0.7116 -0.3246  0.5217
 1781TIP3   OH226833   3.245   0.294   5.597 -0.4872  0.4891  0.0112
 1781TIP3    H126834   3.282   0.354   5.533  2.0131  0.8267  1.6462
 1781TIP3    H226835   3.308   0.222   5.603 -1.2298 -0.1033  1.2545
 1782TIP3   OH226836   1.935   2.263  12.520 -0.9365 -0.4025 -0.3945
 1782TIP3    H126837   1.936   2.351  12.559  0.7329 -0.2423 -0.7480
 1782TIP3    H226838   1.927   2.204  12.595  1.1092 -0.0462  0.1577
 1783TIP3   OH226839   3.150   0.921  17.497  0.0070 -0.2415 -0.5112
 1783TIP3    H126840   3.113   0.881  17.576 -1.2151 -0.4421 -1.1590
 1783TIP3    H226841   3.241   0.941  17.520 -0.1303 -0.9367  0.7074
 1784TIP3   OH226842   1.655   4.288  11.956 -0.1066  0.1205  0.2577
 1784TIP3    H126843   1.659   4.357  11.890 -0.7884 -0.3475 -0.2898
 1784TIP3    H226844   1.718   4.222  11.926 -0.4630 -0.1214  0.0368
 1785TIP3   OH226845   0.631   1.355  14.803  0.4013 -0.2139  0.0143
 1785TIP3    H126846   0.667   1.444  14.798 -0.5551  0.1718 -0.1375
 1785TIP3    H226847   0.540   1.367  14.829  0.5696 -1.2166  1.1983
 1786TIP3   OH226848   4.368   5.604   1.900 -0.3171 -0.4356  1.0966
 1786TIP3    H126849   4.312   5.643   1.967  0.6044 -0.5486  1.9515
 1786TIP3    H226850   4.341   5.512   1.896 -0.6057 -0.3504  1.0582
 1787TIP3   OH226851   3.828   4.447  11.192  0.5403 -0.4724  0.2082
 1787TIP3    H126852   3.804   4.519  11.134  2.0623  0.0870  0.2485
 1787TIP3    H226853   3.744   4.406  11.215 -0.2425  0.5319 -0.7707
 1788TIP3   OH226854   3.104   3.085   5.272 -0.4436  0.7761 -0.1530
 1788TIP3    H126855   3.102   3.146   5.345 -0.3369 -1.0033  1.4067
 1788TIP3    H226856   3.067   3.004   5.307  1.1106 -0.6322 -1.5893
 1789TIP3   OH226857   6.000   1.122   5.757 -0.0241 -0.0485  0.1697
 1789TIP3    H126858   6.081   1.169   5.740  0.1034  0.1652  1.2638
 1789TIP3    H226859   5.972   1.088   5.672  1.6450 -0.8375 -0.0876
 1790TIP3   OH226860   5.608   3.177   1.694  0.3501  0.5268 -0.0510
 1790TIP3    H126861   5.560   3.183   1.611 -0.9916 -2.3532  0.4066
 1790TIP3    H226862   5.581   3.093   1.731  3.1408  0.3993  1.9500
 1791TIP3   OH226863   4.146   0.027  14.080  0.4220 -0.1228 -0.3686
 1791TIP3    H126864   4.133   0.081  14.157  1.3641  0.1834 -0.4081
 1791TIP3    H226865   4.071   0.046  14.024 -0.1960 -0.2491  0.4009
 1792TIP3   OH226866   0.772   2.694  11.858  0.1034  0.2643  0.7833
 1792TIP3    H126867   0.783   2.628  11.926 -1.5908 -1.0848 -0.1738
 1792TIP3    H226868   0.784   2.646  11.776 -2.0866  0.9107  0.0379
 1793TIP3   OH226869   2.703   2.247  14.476  0.9222 -0.0360  0.8541
 1793TIP3    H126870   2.632   2.263  14.538  0.2778 -0.3518  0.2120
 1793TIP3    H226871   2.663   2.257  14.390  2.0679  1.5366  0.4671
 1794TIP3   OH226872   2.590   5.306  17.504 -0.3796 -0.0824  0.0881
 1794TIP3    H126873   2.661   5.323  17.442  0.4978 -0.5446  0.9415
 1794TIP3    H226874   2.612   5.359  17.581 -0.7892 -0.4737  0.4847
 1795TIP3   OH226875   2.566   2.187   5.246 -0.6265 -0.3992  0.1303
 1795TIP3    H126876   2.542   2.165   5.336  0.0932 -0.4504  0.3139
 1795TIP3    H226877   2.543   2.108   5.196 -2.3321  0.1281  0.0171
 1796TIP3   OH226878   6.010   5.462  16.045  0.3771 -0.0413  0.2171
 1796TIP3    H126879   5.936   5.511  16.010  0.6446  0.7966  0.7907
 1796TIP3    H226880   5.976   5.374  16.059 -0.1885  0.0407 -0.5921
 1797TIP3   OH226881   4.598   1.457  13.045  0.3126  1.1567  0.1144
 1797TIP3    H126882   4.666   1.423  13.103  0.4526  0.4625 -0.4361
 1797TIP3    H226883   4.647   1.491  12.970  0.0458  0.0310 -0.6038
 1798TIP3   OH226884   1.226   6.589   5.021 -0.0397  0.3954  0.2275
 1798TIP3    H126885   1.287   6.574   4.949 -0.2967 -0.7931  0.2403
 1798TIP3    H226886   1.143   6.612   4.979 -0.3458 -0.8752  0.1103
 1799TIP3   OH226887   2.371   3.528   1.470 -0.3848 -0.7615  0.5546
 1799TIP3    H126888   2.398   3.618   1.453  0.4919 -0.8910  1.2021
 1799TIP3    H226889   2.299   3.512   1.408  0.6836 -0.2320 -0.8685
 1800TIP3   OH226890   1.659   3.603  16.906  0.1864  0.1002  0.0099
 1800TIP3    H126891   1.582   3.654  16.879 -0.6889 -1.1813 -0.0125
 1800TIP3    H226892   1.625   3.541  16.971  1.4229  0.2377  0.8180
 1801TIP3   OH226893   5.686   2.440  13.249  0.4147 -0.4072  0.3147
 1801TIP3    H126894   5.774   2.425  13.283 -0.1889 -0.2170  2.0692
 1801TIP3    H226895   5.692   2.417  13.156  1.9416 -1.7768  0.7079
 1802TIP3   OH226896   4.186   3.672  11.300  0.4183 -0.3890  0.1351
 1802TIP3    H126897   4.205   3.671  11.394 -1.2385 -0.0337  0.5106
 1802TIP3    H226898   4.263   3.712  11.260  0.0239  2.0738  1.6357
 1803TIP3   OH226899   2.177   6.667   6.263 -0.8766 -0.1848  0.2018
 1803TIP3    H126900   2.170   6.759   6.288  0.0317 -0.3100  0.9674
 1803TIP3    H226901   2.088   6.634   6.268 -1.1132  0.4923  0.5772
 1804TIP3   OH226902   4.117   3.449   6.449  0.4840 -0.1016 -0.2451
 1804TIP3    H126903   4.187   3.426   6.509 -1.3187 -0.4502  1.8207
 1804TIP3    H226904   4.041   3.464   6.504 -0.9522  0.9290 -2.3416
 1805TIP3   OH226905   3.994   4.046   0.101 -0.3369 -0.4726 -0.1923
 1805TIP3    H126906   3.999   4.081   0.190  0.5387 -0.1734 -0.3431
 1805TIP3    H226907   4.028   4.118   0.046 -0.1314 -0.9373 -0.6803
 1806TIP3   OH226908   0.122   4.969   4.054 -0.2015  0.2734  0.1465
 1806TIP3    H126909   0.118   5.020   4.135 -0.9879  0.5496 -0.0489
 1806TIP3    H226910   0.060   4.897   4.069 -2.1837  1.6105 -1.0345
 1807TIP3   OH226911   4.612   2.358  15.244  0.3555 -0.0544 -0.5602
 1807TIP3    H126912   4.562   2.303  15.304  1.0698 -0.4819 -0.3541
 1807TIP3    H226913   4.580   2.447  15.260 -1.4043 -0.4760 -1.4774
 1808TIP3   OH226914   0.948   0.880  16.221 -0.4064  0.0702 -0.1440
 1808TIP3    H126915   0.970   0.850  16.309  0.6127  1.5452  0.1530
 1808TIP3    H226916   0.876   0.941  16.234 -1.4698 -1.0561 -0.5651
 1809TIP3   OH226917   1.410   2.414  15.485  0.4516  1.0600  0.7842
 1809TIP3    H126918   1.488   2.367  15.457  0.3856  0.5070  1.4986
 1809TIP3    H226919   1.345   2.346  15.502 -0.4416  1.5400 -0.5106
 1810TIP3   OH226920   3.108   1.238   5.906  0.0265  0.5659 -0.0903
 1810TIP3    H126921   3.157   1.242   5.988 -0.5125 -0.8114  0.3421
 1810TIP3    H226922   3.172   1.210   5.841  0.3403  1.1505 -0.0389
 1811TIP3   OH226923   4.330   1.854  14.142 -0.2304  0.6613  0.1172
 1811TIP3    H126924   4.269   1.917  14.102  0.2681  0.8335 -0.3851
 1811TIP3    H226925   4.310   1.857  14.235 -1.8720 -0.2236 -0.1640
 1812TIP3   OH226926   4.121   5.391  13.343 -0.3243  0.1738 -0.4704
 1812TIP3    H126927   4.027   5.394  13.362 -0.2820  0.9847 -0.3474
 1812TIP3    H226928   4.147   5.302  13.366 -1.2973 -0.4325 -1.6365
 1813TIP3   OH226929   6.403   0.783   2.134  0.0742  0.5777 -0.5737
 1813TIP3    H126930   6.312   0.765   2.158  0.5074  0.8619  1.5598
 1813TIP3    H226931   6.427   0.858   2.188  1.7068  0.2123 -0.7369
 1814TIP3   OH226932   5.860   1.686  15.132  0.3427 -0.1170  0.4620
 1814TIP3    H126933   5.777   1.644  15.111  1.4617 -2.1678 -0.1932
 1814TIP3    H226934   5.926   1.629  15.093  2.1388  0.6181  2.2423
 1815TIP3   OH226935   2.659   0.025   5.876 -0.1595 -0.0164 -0.3729
 1815TIP3    H126936   2.630  -0.045   5.816 -0.4830  0.5455 -0.8801
 1815TIP3    H226937   2.647  -0.013   5.963 -0.9456 -0.3711 -0.6188
 1816TIP3   OH226938   4.038   2.680  10.904  0.7074 -0.3350  0.4077
 1816TIP3    H126939   4.086   2.748  10.856 -2.0096 -0.3347 -2.7016
 1816TIP3    H226940   4.004   2.725  10.982  0.3634  1.4855 -0.7173
 1817TIP3   OH226941   4.947   4.823   2.140  0.1513 -0.2591 -0.5130
 1817TIP3    H126942   4.969   4.901   2.089  1.6527 -0.6121 -0.4399
 1817TIP3    H226943   4.935   4.856   2.229 -0.3394  0.0426 -0.6863
 1818TIP3   OH226944   2.230   0.470   1.054 -0.4220 -0.3028 -0.1772
 1818TIP3    H126945   2.255   0.471   0.962 -0.4162 -0.9681 -0.1860
 1818TIP3    H226946   2.146   0.516   1.056 -1.4411 -2.0369 -0.8376
 1819TIP3   OH226947   1.189   1.574   4.691 -0.8617  1.0371  0.4730
 1819TIP3    H126948   1.242   1.517   4.636 -1.2028  1.1374  0.0369
 1819TIP3    H226949   1.186   1.657   4.644 -0.3153  1.4454  1.1320
 1820TIP3   OH226950   0.241   1.240  15.217 -0.1669 -0.3340  0.2036
 1820TIP3    H126951   0.220   1.196  15.299 -2.2061 -0.5412 -0.3667
 1820TIP3    H226952   0.179   1.203  15.154  0.2221  1.0288 -1.0330
 1821TIP3   OH226953   5.101   0.751   3.243  0.7512 -0.1990 -0.4891
 1821TIP3    H126954   5.115   0.657   3.231 -0.5158 -0.4324 -0.3144
 1821TIP3    H226955   5.104   0.764   3.338 -1.1650 -0.4614 -0.3498
 1822TIP3   OH226956   2.968   1.656   4.687 -0.4186 -0.1117 -0.4948
 1822TIP3    H126957   3.047   1.709   4.694  0.1097 -0.8589 -0.6882
 1822TIP3    H226958   2.914   1.702   4.623 -0.7341  1.1264  0.6358
 1823TIP3   OH226959   5.226   2.667  14.620  0.6149 -0.0360 -0.3307
 1823TIP3    H126960   5.143   2.711  14.600  0.7572  0.8349  0.8394
 1823TIP3    H226961   5.292   2.717  14.571  1.0839  2.6614  2.6936
 1824TIP3   OH226962   0.885   1.047   1.682 -0.4264 -0.0596  0.2755
 1824TIP3    H126963   0.832   1.126   1.669 -0.5042  0.1714  1.7918
 1824TIP3    H226964   0.849   1.008   1.761 -0.9652 -2.1130 -0.9187
 1825TIP3   OH226965   6.270   4.197   4.884  0.0302  0.3365 -0.1583
 1825TIP3    H126966   6.316   4.158   4.810  0.1337  1.7690 -0.8988
 1825TIP3    H226967   6.313   4.282   4.896 -1.2351  0.9413  0.2976
 1826TIP3   OH226968   1.741   4.496  12.114 -0.4571 -0.4184  0.0679
 1826TIP3    H126969   1.680   4.434  12.074 -1.0358 -0.2272  0.6474
 1826TIP3    H226970   1.827   4.456  12.102 -0.7188 -0.8207 -0.5107
 1827TIP3   OH226971   4.120   6.445  13.836  0.3545 -0.0071  0.1380
 1827TIP3    H126972   4.142   6.370  13.780 -1.7457  0.7249 -1.8255
 1827TIP3    H226973   4.025   6.454  13.826  0.1678  1.2635  2.5101
 1828TIP3   OH226974   4.439   3.273  15.862  0.4368 -0.1926  0.3720
 1828TIP3    H126975   4.481   3.194  15.894 -0.2217 -0.7473 -0.0906
 1828TIP3    H226976   4.382   3.301  15.934 -0.4019 -0.9591  0.0354
 1829TIP3   OH226977   1.393   0.637  11.613  0.0663  0.0222 -0.2020
 1829TIP3    H126978   1.337   0.602  11.682 -0.2756  0.9388 -0.0038
 1829TIP3    H226979   1.427   0.719  11.648 -0.6790  0.8683 -1.3787
 1830TIP3   OH226980   0.931   0.194   0.827  0.2206 -0.3510 -0.3489
 1830TIP3    H126981   0.876   0.224   0.755  0.5576 -0.0751 -0.4897
 1830TIP3    H226982   0.963   0.108   0.799 -0.9302 -0.9704  0.1528
 1831TIP3   OH226983   3.213   4.948  12.686 -0.7139  0.7039 -0.3398
 1831TIP3    H126984   3.296   4.996  12.691  1.1876 -2.2152 -1.4287
 1831TIP3    H226985   3.159   4.987  12.755  1.8681  2.1351  1.0211
 1832TIP3   OH226986   2.244   3.794  16.654 -0.4914  0.2685  0.3962
 1832TIP3    H126987   2.325   3.841  16.676  0.7842 -0.8040 -1.6748
 1832TIP3    H226988   2.184   3.862  16.624  0.7959  0.7693 -1.1464
 1833TIP3   OH226989   3.517   2.149   1.840  0.2500 -0.4632  0.4031
 1833TIP3    H126990   3.485   2.070   1.796  1.2389 -0.3716 -0.5203
 1833TIP3    H226991   3.586   2.182   1.783 -1.9489  2.6580 -0.7778
 1834TIP3   OH226992   3.278   5.092   0.513 -0.4941  0.6095  0.1067
 1834TIP3    H126993   3.240   5.164   0.564 -0.2840 -0.1578  1.4156
 1834TIP3    H226994   3.372   5.105   0.519 -0.4017 -0.3149  1.2729
 1835TIP3   OH226995   3.211   4.370  14.082 -0.0782 -0.0348 -0.1357
 1835TIP3    H126996   3.217   4.354  14.176  0.0283  0.8764  0.0136
 1835TIP3    H226997   3.275   4.310  14.044  1.0794  0.7617  0.5006
 1836TIP3   OH226998   2.023   3.966   0.873  0.0817  0.2658 -0.6446
 1836TIP3    H126999   2.036   3.892   0.813 -0.9270  0.6968 -1.4365
 1836TIP3    H227000   2.110   3.984   0.908  0.9635  0.7437 -2.8990
 1837TIP3   OH227001   5.083   3.328  11.453 -0.5909  0.1454  0.1618
 1837TIP3    H127002   5.001   3.293  11.490  0.3274 -2.1170  0.2048
 1837TIP3    H227003   5.061   3.349  11.363 -1.5748  0.9616  0.5692
 1838TIP3   OH227004   3.686   5.006   6.597  0.6232 -0.0965 -0.4932
 1838TIP3    H127005   3.684   4.922   6.551  1.1258 -0.6984  0.5505
 1838TIP3    H227006   3.777   5.035   6.590  0.7070 -0.1990  0.1157
 1839TIP3   OH227007   5.239   0.599  12.198 -0.0376  0.3144  0.1679
 1839TIP3    H127008   5.177   0.545  12.247  0.3641  0.5350  0.9284
 1839TIP3    H227009   5.255   0.675  12.253 -1.0029  1.5157 -1.1214
 1840TIP3   OH227010   6.589   6.415   0.695 -0.2482 -0.5185  0.9418
 1840TIP3    H127011   6.655   6.347   0.681  0.6637  0.5728 -0.3684
 1840TIP3    H227012   6.638   6.497   0.691 -1.6887  0.3371 -0.1337
 1841TIP3   OH227013   6.419   6.166  17.147 -0.3426 -0.2307 -0.2775
 1841TIP3    H127014   6.385   6.226  17.081  0.3194  0.4306 -0.0292
 1841TIP3    H227015   6.450   6.223  17.218 -0.9810 -0.9250  0.5776
 1842TIP3   OH227016   4.847   5.045   3.778  0.3583 -0.2550  0.3708
 1842TIP3    H127017   4.940   5.055   3.798  0.3000  0.3755  0.3698
 1842TIP3    H227018   4.838   5.082   3.690  0.0751 -0.1238  0.4540
 1843TIP3   OH227019   0.130   3.138  11.849 -0.5004  0.5004 -0.3954
 1843TIP3    H127020   0.210   3.092  11.823 -0.8204 -0.9439  0.9723
 1843TIP3    H227021   0.093   3.083  11.918 -1.2348  2.5473  0.9329
 1844TIP3   OH227022   6.105   4.303   0.139 -0.3115  0.8954  0.4181
 1844TIP3    H127023   6.051   4.225   0.141 -1.1879  1.4877  0.4821
 1844TIP3    H227024   6.090   4.340   0.052 -0.1202  1.1459  0.4895
 1845TIP3   OH227025   1.176   4.593  16.350 -0.0062  0.7263 -0.3334
 1845TIP3    H127026   1.272   4.586  16.351  0.1939  1.1514 -3.8048
 1845TIP3    H227027   1.146   4.504  16.332 -0.1485  0.8647 -0.7939
 1846TIP3   OH227028   5.101   3.250   2.317 -0.8730 -0.0757 -0.2763
 1846TIP3    H127029   5.041   3.322   2.336 -0.4248 -0.4882  3.5179
 1846TIP3    H227030   5.060   3.174   2.359  0.9408 -0.9752 -0.0455
 1847TIP3   OH227031   1.421   4.901   1.376 -0.7650  0.2466 -0.1571
 1847TIP3    H127032   1.344   4.851   1.405  0.2143 -0.8317  0.6782
 1847TIP3    H227033   1.490   4.877   1.438 -0.3583  3.1138  0.6676
 1848TIP3   OH227034   2.938   2.200   1.299 -0.0372 -0.8858  0.1463
 1848TIP3    H127035   2.855   2.244   1.283  0.6392  0.5508  0.4455
 1848TIP3    H227036   2.996   2.269   1.332  1.0774 -1.9959  0.5871
 1849TIP3   OH227037   5.984   4.277  14.024 -0.3238 -0.1550 -0.4890
 1849TIP3    H127038   5.998   4.202  13.966  2.6279  1.4922 -2.1637
 1849TIP3    H227039   6.025   4.351  13.978  1.4387  1.4850  3.2548
 1850TIP3   OH227040   6.545   0.758  15.527  0.0607  0.4351  0.1949
 1850TIP3    H127041   6.457   0.774  15.562  0.4045 -0.4540  1.5530
 1850TIP3    H227042   6.572   0.675  15.567  1.0916  0.1365 -1.0687
 1851TIP3   OH227043   1.000   5.976  11.694 -0.4519 -0.2146  0.0558
 1851TIP3    H127044   0.998   6.028  11.614 -1.4622 -0.8278 -0.3472
 1851TIP3    H227045   0.997   5.885  11.664  2.0308 -0.5777  0.7247
 1852TIP3   OH227046   6.660   5.896  16.069 -1.0270  0.0456  0.2326
 1852TIP3    H127047   6.575   5.883  16.112 -1.5017 -0.2415 -0.7558
 1852TIP3    H227048   6.645   5.970  16.010  0.5764  2.8253  3.0064
 1853TIP3   OH227049   2.805   4.384   2.865  0.4414 -0.0289  0.2423
 1853TIP3    H127050   2.756   4.303   2.880  0.6316 -1.1651 -3.8975
 1853TIP3    H227051   2.893   4.366   2.898  0.5048 -1.6174 -0.6875
 1854TIP3   OH227052   1.158   0.551   2.935 -0.5497  0.1484  0.2139
 1854TIP3    H127053   1.229   0.530   2.996 -1.1958 -0.4412  0.7718
 1854TIP3    H227054   1.190   0.518   2.850  0.0736  0.3872  0.3485
 1855TIP3   OH227055   0.860   2.653  13.901 -0.0150  0.6688 -0.7495
 1855TIP3    H127056   0.874   2.578  13.842 -0.4749  0.0036 -0.0175
 1855TIP3    H227057   0.938   2.708  13.887  1.4245 -1.0112  0.2965
 1856TIP3   OH227058   2.732   1.219   5.010 -0.2349 -0.0802 -0.3632
 1856TIP3    H127059   2.684   1.295   4.979  0.2347  0.7047  0.7902
 1856TIP3    H227060   2.823   1.249   5.018  0.3170 -1.2745 -1.6268
 1857TIP3   OH227061   3.008   2.507  14.240  0.2249  0.6343  0.3707
 1857TIP3    H127062   3.024   2.561  14.317  0.4700  0.8118  0.1940
 1857TIP3    H227063   3.035   2.419  14.267  0.1642  0.6641  0.5357
 1858TIP3   OH227064   5.163   5.607  12.713 -0.2030 -0.1614 -0.0833
 1858TIP3    H127065   5.214   5.534  12.676  1.1683  0.0938  1.2155
 1858TIP3    H227066   5.173   5.678  12.649  0.4413 -0.3652 -0.2195
 1859TIP3   OH227067   2.364   4.342   5.363 -0.6713  0.0776  0.0747
 1859TIP3    H127068   2.402   4.333   5.275 -0.5677 -0.1228  0.1395
 1859TIP3    H227069   2.277   4.302   5.355 -0.4176 -0.5064  0.2253
 1860TIP3   OH227070   4.981   0.272  11.527  0.0037  0.1700 -0.5618
 1860TIP3    H127071   5.005   0.198  11.471 -0.5301 -1.2261  0.9714
 1860TIP3    H227072   5.025   0.254  11.610  0.4664  1.9948 -0.3711
 1861TIP3   OH227073   1.349   0.598   3.413 -0.4332 -0.6574  0.4373
 1861TIP3    H127074   1.317   0.565   3.497 -0.2734 -0.5968  0.5219
 1861TIP3    H227075   1.291   0.558   3.348  1.2088 -3.0419  0.3161
 1862TIP3   OH227076   5.319   4.207  10.634  0.7859  0.1571  0.6880
 1862TIP3    H127077   5.276   4.197  10.718  0.9187  0.1021  0.7487
 1862TIP3    H227078   5.298   4.297  10.607  0.6293  0.1287  0.7143
 1863TIP3   OH227079   2.879   6.359   0.560 -0.5311 -0.0849 -0.0140
 1863TIP3    H127080   2.881   6.409   0.478  0.4355  0.6567  0.4484
 1863TIP3    H227081   2.966   6.371   0.598 -1.1677  0.0978  1.4407
 1864TIP3   OH227082   2.986   2.884   5.708  0.1509 -0.3153 -1.0686
 1864TIP3    H127083   3.023   2.814   5.762 -1.0547 -0.7850 -0.8343
 1864TIP3    H227084   2.902   2.904   5.748  0.7558  1.7842 -0.6928
 1865TIP3   OH227085   5.267   2.776   1.196  0.9144 -0.8222 -0.6770
 1865TIP3    H127086   5.190   2.752   1.247  0.2782 -0.1093 -1.2744
 1865TIP3    H227087   5.250   2.743   1.108  0.8410  0.1587 -1.0547
 1866TIP3   OH227088   1.978   0.089   4.095 -0.0662 -0.4297 -0.5894
 1866TIP3    H127089   1.970   0.004   4.053 -0.1947  0.2499 -1.9827
 1866TIP3    H227090   2.063   0.088   4.138 -0.2729 -1.4220 -0.1826
 1867TIP3   OH227091   4.608   1.082   0.543 -0.5417  0.6064  0.1982
 1867TIP3    H127092   4.632   1.138   0.469 -0.3516 -0.3046 -0.4501
 1867TIP3    H227093   4.512   1.081   0.542 -0.5374  0.3605 -0.2246
 1868TIP3   OH227094   6.080   0.581   6.022 -0.2027  0.2170  0.3872
 1868TIP3    H127095   6.060   0.673   6.006 -0.4756  0.1630  0.4090
 1868TIP3    H227096   6.059   0.568   6.114 -1.3094 -0.1585  0.0916
 1869TIP3   OH227097   6.597   3.605  14.894  0.1329 -0.0809  0.2019
 1869TIP3    H127098   6.632   3.621  14.981  2.2331 -1.0535 -0.3973
 1869TIP3    H227099   6.538   3.530  14.906  1.9277 -1.5099  0.5165
 1870TIP3   OH227100   2.984   6.124  12.657 -0.0413  0.3313  0.2465
 1870TIP3    H127101   2.917   6.068  12.616 -0.6078  2.2290 -1.5988
 1870TIP3    H227102   3.066   6.097  12.616 -0.1319  0.0874  0.2195
 1871TIP3   OH227103   4.771   2.484   4.130  0.9092  0.1368  0.7741
 1871TIP3    H127104   4.809   2.443   4.052 -0.3512  2.4789 -1.2097
 1871TIP3    H227105   4.843   2.534   4.168  1.0539  0.5704 -0.0530
 1872TIP3   OH227106   0.261   3.972   1.065 -0.4288 -0.4106  0.1626
 1872TIP3    H127107   0.341   3.962   1.013 -1.2876 -2.8261 -0.8382
 1872TIP3    H227108   0.190   3.952   1.004 -2.1672  4.1149  0.2764
 1873TIP3   OH227109   4.702   1.621  14.675  0.1745 -0.1768 -0.9487
 1873TIP3    H127110   4.621   1.653  14.715 -2.0974 -0.1146 -5.0531
 1873TIP3    H227111   4.738   1.561  14.740 -1.0005  2.6391  2.6393
 1874TIP3   OH227112   3.383   5.485   1.140  0.1904  0.2564 -0.6899
 1874TIP3    H127113   3.403   5.392   1.124  0.3600  0.0936  0.4134
 1874TIP3    H227114   3.438   5.509   1.214 -0.2805  1.0892 -0.6019
 1875TIP3   OH227115   6.684   1.012  13.616  0.1954 -0.1234  0.0412
 1875TIP3    H127116   6.741   1.063  13.559 -1.0423 -1.6334 -2.7577
 1875TIP3    H227117   6.628   1.077  13.658  0.2795  1.0042 -1.5101
 1876TIP3   OH227118   5.269   1.665  14.552  0.4787  0.1093 -0.1167
 1876TIP3    H127119   5.241   1.589  14.502  1.0480  0.2106 -0.5898
 1876TIP3    H227120   5.190   1.720  14.558  0.1109 -0.4349  0.0933
 1877TIP3   OH227121   3.548   5.358  13.391 -0.2951 -0.4099  0.0702
 1877TIP3    H127122   3.522   5.306  13.315 -0.6725 -0.1391  0.0069
 1877TIP3    H227123   3.544   5.449  13.360 -2.3444 -0.1432  0.9235
 1878TIP3   OH227124   2.356   0.463  14.567  0.1688 -0.2727  0.1496
 1878TIP3    H127125   2.284   0.402  14.552  0.2818  0.0925 -2.2648
 1878TIP3    H227126   2.312   0.545  14.590 -0.1991 -0.1915 -0.7767
 1879TIP3   OH227127   1.213   1.632   2.666  0.1092  0.3823 -0.1984
 1879TIP3    H127128   1.174   1.704   2.617  0.0343 -0.8236 -2.0105
 1879TIP3    H227129   1.162   1.555   2.641  1.9272 -0.7876 -0.5610
 1880TIP3   OH227130   2.981   5.517  12.658  0.6085  0.3921  0.7904
 1880TIP3    H127131   2.920   5.444  12.649  0.5403  0.1456  2.8195
 1880TIP3    H227132   3.051   5.498  12.596 -0.1616 -0.6079  0.2074
 1881TIP3   OH227133   6.641   2.271  11.994 -0.7490 -0.2395  0.4437
 1881TIP3    H127134   6.633   2.326  12.072  1.6661  0.1066  0.5166
 1881TIP3    H227135   6.697   2.321  11.934 -1.0168 -1.3058 -0.7427
 1882TIP3   OH227136   0.422   6.317  12.994 -0.0558  0.3589  0.3401
 1882TIP3    H127137   0.413   6.231  12.953  1.8282  0.2111  0.1116
 1882TIP3    H227138   0.488   6.362  12.941 -1.5804  2.2950 -0.0405
 1883TIP3   OH227139   3.575   3.237   5.321  0.8778 -0.1176  0.3663
 1883TIP3    H127140   3.542   3.240   5.411 -1.9707  1.3562 -0.5927
 1883TIP3    H227141   3.670   3.246   5.330  0.8191 -1.2581  3.2435
 1884TIP3   OH227142   3.652   2.904   3.041  0.2994  0.0089  0.0895
 1884TIP3    H127143   3.645   2.861   2.956 -0.0032 -0.8275  0.5171
 1884TIP3    H227144   3.741   2.886   3.070 -0.1657 -1.3405  0.7655
 1885TIP3   OH227145   4.774   0.077  16.555  0.2700  0.3570  0.3812
 1885TIP3    H127146   4.763   0.141  16.625  1.0430  1.4540 -0.4652
 1885TIP3    H227147   4.822   0.005  16.596  0.8199  1.0403  0.9691
 1886TIP3   OH227148   3.031   1.559   1.668 -0.1497 -0.4971 -0.6158
 1886TIP3    H127149   3.063   1.620   1.602  0.6749  0.8088  0.9106
 1886TIP3    H227150   3.025   1.612   1.748 -1.1314 -2.0093  0.3607
 1887TIP3   OH227151   4.467   0.176  17.116 -0.0024 -0.2675  0.3910
 1887TIP3    H127152   4.380   0.137  17.106  0.4044 -1.1679  0.2315
 1887TIP3    H227153   4.503   0.178  17.027  0.7540 -1.4130  0.6480
 1888TIP3   OH227154   5.691   3.982  14.970  0.3731  0.3686 -0.0533
 1888TIP3    H127155   5.727   4.023  15.049  0.4258 -0.1507  0.1914
 1888TIP3    H227156   5.664   4.056  14.915 -1.9145  0.7474  1.4552
 1889TIP3   OH227157   4.123   1.790   6.212  0.3697 -0.0186 -0.0013
 1889TIP3    H127158   4.080   1.708   6.185 -0.5978  0.6089 -0.4141
 1889TIP3    H227159   4.199   1.797   6.155 -1.5885  1.2603 -2.6726
 1890TIP3   OH227160   3.146   6.599  15.766 -0.2231  0.0460 -0.3134
 1890TIP3    H127161   3.232   6.628  15.794 -0.7050  2.2351 -0.8713
 1890TIP3    H227162   3.163   6.538  15.694  0.8475 -0.4670  0.3519
 1891TIP3   OH227163   4.844   1.417   1.947  0.1209  0.6742 -0.1509
 1891TIP3    H127164   4.864   1.330   1.911 -1.0673  1.1853 -2.2407
 1891TIP3    H227165   4.757   1.437   1.913  0.2982  2.6372  0.4163
 1892TIP3   OH227166   1.395   1.145   3.198  0.3475  0.3297  0.3001
 1892TIP3    H127167   1.381   1.193   3.117  2.4295 -1.2895 -1.1189
 1892TIP3    H227168   1.474   1.093   3.182 -1.9771 -4.0224  1.4825
 1893TIP3   OH227169   2.061   0.905   5.634  0.0154  0.3145  0.4268
 1893TIP3    H127170   2.111   0.984   5.612 -1.0717  0.9103  0.0667
 1893TIP3    H227171   1.983   0.937   5.679  0.7725 -0.7135  2.5989
 1894TIP3   OH227172   6.131   1.746  15.933 -0.2753 -0.4607  0.8611
 1894TIP3    H127173   6.197   1.786  15.875 -0.5125 -1.6544 -0.2863
 1894TIP3    H227174   6.114   1.812  15.999 -0.4573  1.2396 -0.8019
 1895TIP3   OH227175   2.761   1.688  13.468 -0.0294 -0.3041  0.2689
 1895TIP3    H127176   2.852   1.719  13.470 -0.2545  0.4188 -0.2810
 1895TIP3    H227177   2.760   1.621  13.399  0.0620 -0.2455  0.2102
 1896TIP3   OH227178   1.729   4.663   1.725 -0.2125 -0.7433 -0.1977
 1896TIP3    H127179   1.739   4.570   1.744  2.7825 -0.5836 -0.4661
 1896TIP3    H227180   1.818   4.699   1.733 -0.9889  1.7812 -1.6823
 1897TIP3   OH227181   2.097   4.118  17.038 -0.4534 -0.2226  0.1822
 1897TIP3    H127182   2.172   4.120  17.097  0.2154 -1.3163 -0.5834
 1897TIP3    H227183   2.063   4.028  17.044 -0.5562 -0.2685 -0.8482
 1898TIP3   OH227184   6.325   2.382  11.629 -0.0946 -0.4068 -0.4956
 1898TIP3    H127185   6.261   2.322  11.591  0.1895  0.1499 -1.9177
 1898TIP3    H227186   6.405   2.368  11.577  0.9916 -1.1158  1.2533
 1899TIP3   OH227187   0.097   5.172   3.286 -0.2341  0.1443 -0.3316
 1899TIP3    H127188   0.139   5.254   3.310  2.0925 -0.7878 -0.9637
 1899TIP3    H227189   0.083   5.127   3.369 -0.2649  0.6082 -0.0850
 1900TIP3   OH227190   4.476   0.766   3.776 -0.2785 -0.0204  0.0384
 1900TIP3    H127191   4.415   0.781   3.848  1.8987  1.8731  1.6333
 1900TIP3    H227192   4.556   0.812   3.803  0.9715 -0.1175 -3.1444
 1901TIP3   OH227193   0.227   4.566  14.116 -0.3270  0.3097 -0.2236
 1901TIP3    H127194   0.232   4.470  14.121  1.1511  0.4315  1.3394
 1901TIP3    H227195   0.282   4.588  14.041  0.4918 -0.0068  0.2685
 1902TIP3   OH227196   5.883   2.861   6.881  0.8557 -0.5566 -0.0979
 1902TIP3    H127197   5.939   2.821   6.815 -0.4341 -1.6609 -0.5811
 1902TIP3    H227198   5.795   2.852   6.846  0.2897  0.3165  1.0411
 1903TIP3   OH227199   4.616   3.078  12.978 -0.5018 -0.6347  0.2366
 1903TIP3    H127200   4.698   3.057  13.023 -1.2584 -0.5790  1.6936
 1903TIP3    H227201   4.547   3.045  13.036 -1.5273 -0.2464 -0.7256
 1904TIP3   OH227202   0.089   0.527   2.847  0.1064 -0.3149 -0.8329
 1904TIP3    H127203   0.143   0.606   2.845 -1.0818  0.5356 -0.7332
 1904TIP3    H227204   0.059   0.516   2.757 -0.0309 -0.4402 -0.7733
 1905TIP3   OH227205   3.759   0.456  16.750 -0.0987  0.7902 -0.0093
 1905TIP3    H127206   3.840   0.418  16.716 -1.1549 -1.7222  0.0364
 1905TIP3    H227207   3.695   0.446  16.679 -0.9609  0.4484  0.7838
 1906TIP3   OH227208   5.234   5.224   2.450  0.1137 -0.0420 -0.2504
 1906TIP3    H127209   5.167   5.287   2.422 -0.2675 -0.5669 -0.5561
 1906TIP3    H227210   5.206   5.141   2.410 -1.0437 -1.0882  2.4976
 1907TIP3   OH227211   3.115   3.734   5.903  0.2689 -0.0335  0.0985
 1907TIP3    H127212   3.073   3.784   5.833 -0.0563 -1.6962 -0.9503
 1907TIP3    H227213   3.045   3.680   5.941  1.1807 -2.2789 -1.1764
 1908TIP3   OH227214   1.987   0.157  17.478  0.2579  0.9373 -0.3349
 1908TIP3    H127215   1.933   0.217  17.530 -1.8497  0.4529 -1.8295
 1908TIP3    H227216   2.042   0.112  17.543  0.9803  3.5106  0.9423
 1909TIP3   OH227217   0.133   5.568   5.698  0.4947 -0.0287  0.1381
 1909TIP3    H127218   0.171   5.634   5.640 -0.1208  0.7903  0.6448
 1909TIP3    H227219   0.080   5.513   5.640  0.9480 -0.0383 -0.2782
 1910TIP3   OH227220   0.061   6.681   4.106  0.3497  0.0047  0.2661
 1910TIP3    H127221   0.109   6.750   4.061 -0.6443  1.6486  1.5676
 1910TIP3    H227222  -0.023   6.722   4.129  0.9947 -0.4448  4.0447
 1911TIP3   OH227223   1.471   0.978   1.319  0.3310  0.2287 -0.1770
 1911TIP3    H127224   1.383   0.943   1.309  0.1519  0.5197  0.3551
 1911TIP3    H227225   1.524   0.902   1.344 -0.0470  0.3067  0.9216
 1912TIP3   OH227226   5.046   2.131  12.617  0.1496  0.0945  0.3936
 1912TIP3    H127227   5.046   2.076  12.696 -2.0940  0.5551  0.7798
 1912TIP3    H227228   5.133   2.117  12.578  0.9304 -0.9650  2.3609
 1913TIP3   OH227229   0.851   5.364   5.611  0.0476 -0.1960  0.7153
 1913TIP3    H127230   0.875   5.435   5.552  3.2718 -2.2691 -0.7231
 1913TIP3    H227231   0.793   5.309   5.559 -0.4830  0.0924  0.9888
 1914TIP3   OH227232   3.047   1.142   4.923  0.2667 -0.6123  0.1868
 1914TIP3    H127233   3.051   1.220   4.868 -1.7478 -0.5303  0.0852
 1914TIP3    H227234   3.119   1.087   4.892  0.3951  0.2922 -1.1954
 1915TIP3   OH227235   3.720   3.412   5.784  0.0097 -0.5504  0.0752
 1915TIP3    H127236   3.814   3.407   5.767  0.0096 -0.7098  0.1201
 1915TIP3    H227237   3.703   3.345   5.850 -0.1637 -0.6408 -0.0574
 1916TIP3   OH227238   4.979   4.522   4.587 -0.1560 -0.1873 -0.0396
 1916TIP3    H127239   4.933   4.513   4.670 -0.6170  0.2431 -0.2455
 1916TIP3    H227240   4.937   4.459   4.529 -0.4346  0.1553 -0.2078
 1917TIP3   OH227241   0.012   3.584   4.285 -0.1413 -0.0177  0.6277
 1917TIP3    H127242   0.050   3.513   4.233  0.2787 -1.2257  2.4969
 1917TIP3    H227243   0.009   3.658   4.225  0.4675 -1.2974 -1.0585
 1918TIP3   OH227244   0.583   3.698   3.310 -0.0097  0.3883 -0.1416
 1918TIP3    H127245   0.504   3.701   3.257  0.2811 -0.8759 -0.6889
 1918TIP3    H227246   0.654   3.709   3.247  0.4023 -2.3420 -0.2631
 1919TIP3   OH227247   0.311   4.134   0.781 -0.0726 -0.5326  0.0214
 1919TIP3    H127248   0.365   4.204   0.745 -0.9817  0.1050 -0.1502
 1919TIP3    H227249   0.239   4.180   0.825 -0.4559 -1.3506  0.2686
 1920TIP3   OH227250   4.299   0.488  14.439 -0.2716  0.3666 -0.0483
 1920TIP3    H127251   4.335   0.558  14.494 -2.5854  1.9863 -0.4687
 1920TIP3    H227252   4.292   0.413  14.498  2.8381  0.1960  0.2641
 1921TIP3   OH227253   5.876   3.355   4.235 -0.2531 -0.1425  0.0494
 1921TIP3    H127254   5.914   3.272   4.263  1.4148 -0.1813 -2.1105
 1921TIP3    H227255   5.925   3.421   4.284 -1.5034 -0.3696  1.6847
 1922TIP3   OH227256   4.331   4.771  17.073  0.1833 -0.4386 -0.5004
 1922TIP3    H127257   4.256   4.711  17.076 -0.2923  0.1638 -0.1570
 1922TIP3    H227258   4.293   4.856  17.052  0.6794  0.0196  0.3913
 1923TIP3   OH227259   4.019   0.686  15.198  0.4583 -0.5566 -0.4339
 1923TIP3    H127260   4.111   0.712  15.198  0.3413 -0.0935 -1.7644
 1923TIP3    H227261   3.983   0.727  15.276  1.1789 -0.0084 -0.3762
 1924TIP3   OH227262   4.335   2.640   3.147 -0.4069  0.0006 -0.0175
 1924TIP3    H127263   4.340   2.728   3.109  0.8036 -0.1212 -0.1903
 1924TIP3    H227264   4.335   2.654   3.241 -2.9712  0.2847  0.0203
 1925TIP3   OH227265   1.791   2.825   3.193 -0.0401  0.7432 -0.1601
 1925TIP3    H127266   1.756   2.741   3.220  1.0789 -0.3522 -1.9509
 1925TIP3    H227267   1.714   2.875   3.166 -0.5283 -0.5380 -1.2318
 1926TIP3   OH227268   6.260   4.977  15.637  0.0297  0.2094  0.8093
 1926TIP3    H127269   6.201   4.902  15.625  0.6081 -0.3299  1.2439
 1926TIP3    H227270   6.207   5.043  15.682 -1.1588  0.9429 -1.4921
 1927TIP3   OH227271   2.882   1.816  16.366  0.8675 -0.0456 -0.5415
 1927TIP3    H127272   2.836   1.852  16.442  1.4092 -0.7313  0.1079
 1927TIP3    H227273   2.889   1.891  16.306 -2.0146 -0.1157 -1.1320
 1928TIP3   OH227274   3.744   0.505  12.537 -0.4649 -0.3964 -0.3946
 1928TIP3    H127275   3.817   0.501  12.475 -0.0862 -1.1815  0.0876
 1928TIP3    H227276   3.683   0.566  12.497  0.7180  0.7628 -0.5229
 1929TIP3   OH227277   3.116   2.446   2.015 -0.2672  0.1879  0.4630
 1929TIP3    H127278   3.128   2.396   2.095 -2.3121 -0.4012  0.4535
 1929TIP3    H227279   3.057   2.517   2.039 -0.3318  0.4240 -0.3604
 1930TIP3   OH227280   6.166   1.516  11.483 -0.1946  0.3191 -0.2235
 1930TIP3    H127281   6.257   1.522  11.513 -0.4428 -1.3280  1.0114
 1930TIP3    H227282   6.117   1.575  11.540  0.1524  1.7222 -1.3210
 1931TIP3   OH227283   1.540   0.556   0.592 -0.2412 -0.1464  0.1641
 1931TIP3    H127284   1.452   0.562   0.555 -0.2523  0.2797  0.2534
 1931TIP3    H227285   1.542   0.624   0.659 -0.2406 -0.9376  0.9817
 1932TIP3   OH227286   0.292   4.656  17.198  0.0706  0.3138 -0.3022
 1932TIP3    H127287   0.330   4.578  17.239  0.0487 -1.7677 -3.7841
 1932TIP3    H227288   0.365   4.718  17.194  1.3079 -1.1125 -1.0155
 1933TIP3   OH227289   5.618   3.905   4.217  0.0170 -0.0720  0.0674
 1933TIP3    H127290   5.696   3.881   4.266 -0.1539  0.3727  0.5693
 1933TIP3    H227291   5.556   3.834   4.232  0.3518 -0.4700 -0.4061
 1934TIP3   OH227292   6.462   5.249  12.088 -0.2139  0.1400  0.0245
 1934TIP3    H127293   6.452   5.154  12.093  1.6886 -0.1879 -1.3418
 1934TIP3    H227294   6.391   5.283  12.142 -2.3937 -1.9844 -1.2934
 1935TIP3   OH227295   2.242   2.965   3.263  0.0215  0.1379  0.2515
 1935TIP3    H127296   2.199   2.990   3.345 -1.7730  0.3425 -0.7056
 1935TIP3    H227297   2.311   3.030   3.252  0.1426  0.2414  1.4883
 1936TIP3   OH227298   1.423   4.868  14.324  0.4512  0.6215  0.0248
 1936TIP3    H127299   1.456   4.889  14.237  1.8057 -0.5184  0.2255
 1936TIP3    H227300   1.408   4.774  14.322  2.3491  0.2157  1.5555
 1937TIP3   OH227301   2.867   1.733   4.210 -0.1753 -0.7758  0.2917
 1937TIP3    H127302   2.910   1.817   4.195  3.3456 -2.4828 -0.3067
 1937TIP3    H227303   2.803   1.726   4.139  2.1528 -0.1529 -2.0318
 1938TIP3   OH227304   6.060   5.670  17.637 -0.5782  0.5060  0.2731
 1938TIP3    H127305   5.971   5.664  17.673 -0.3805 -0.8811  0.6034
 1938TIP3    H227306   6.102   5.740  17.687 -0.9599  0.0106  1.3136
 1939TIP3   OH227307   0.224   1.500  14.827 -0.4632  0.3008 -0.7372
 1939TIP3    H127308   0.253   1.475  14.739 -1.6290 -0.5762 -0.9058
 1939TIP3    H227309   0.301   1.486  14.882 -0.1985 -0.7966 -1.3467
 1940TIP3   OH227310   6.112   3.908   5.178  0.3386 -0.0900  0.2220
 1940TIP3    H127311   6.077   3.820   5.190  0.1252 -0.5119 -2.7525
 1940TIP3    H227312   6.040   3.959   5.141  1.8510 -0.1989 -3.2310
 1941TIP3   OH227313   1.845   1.707   4.787 -0.0319  0.5961  0.3276
 1941TIP3    H127314   1.848   1.786   4.840 -0.1911  0.1035  1.0789
 1941TIP3    H227315   1.934   1.673   4.788 -0.3266 -0.1774  1.4617
 1942TIP3   OH227316   1.545   6.695  16.585  0.1367 -0.5074  0.1476
 1942TIP3    H127317   1.501   6.741  16.513  0.1353  0.0340  0.4854
 1942TIP3    H227318   1.518   6.604  16.576 -0.0087 -0.4100 -0.4287
 1943TIP3   OH227319   1.835   3.089   0.470  0.3016  0.8539  0.5049
 1943TIP3    H127320   1.837   3.171   0.519 -1.4328  1.0227  0.3600
 1943TIP3    H227321   1.835   3.021   0.538  2.5099  0.9136  0.6118
 1944TIP3   OH227322   3.187   5.543   5.056  0.4526  0.1165  0.5070
 1944TIP3    H127323   3.164   5.457   5.090  0.4976 -0.8494 -1.7394
 1944TIP3    H227324   3.230   5.526   4.973 -0.8628  2.3627 -0.7485
 1945TIP3   OH227325   4.353   5.068  15.364 -0.0059  0.0427 -0.3009
 1945TIP3    H127326   4.443   5.038  15.368  0.1034  0.4195  0.4807
 1945TIP3    H227327   4.344   5.109  15.278 -0.0403 -1.7821 -1.2096
 1946TIP3   OH227328   5.640   0.399   2.595  0.4119 -0.4929  0.5401
 1946TIP3    H127329   5.572   0.423   2.533  0.3581  0.4066  0.9318
 1946TIP3    H227330   5.595   0.390   2.679  0.7921  0.3862  0.8601
 1947TIP3   OH227331   2.707   0.650   0.420 -0.1448 -0.1062  0.7127
 1947TIP3    H127332   2.680   0.580   0.479 -1.6027  1.7658  2.4215
 1947TIP3    H227333   2.632   0.663   0.362 -0.2398  0.6047  0.9887
 1948TIP3   OH227334   2.722   2.538  13.938 -0.3481  0.8198  0.5373
 1948TIP3    H127335   2.817   2.539  13.922 -0.3652 -3.9080 -1.5657
 1948TIP3    H227336   2.688   2.610  13.885  1.8821  0.8553 -0.9757
 1949TIP3   OH227337   0.594   0.515   3.731  0.3852  0.5602  0.1768
 1949TIP3    H127338   0.606   0.596   3.683  1.0180 -0.1880 -0.9677
 1949TIP3    H227339   0.677   0.469   3.723 -0.3013 -0.6772 -0.1242
 1950TIP3   OH227340   6.200   4.580  17.101 -0.2671  0.4711  0.1274
 1950TIP3    H127341   6.134   4.513  17.084 -0.1939  0.2498  0.6690
 1950TIP3    H227342   6.277   4.550  17.053  0.0224 -0.2834  1.0139
 1951TIP3   OH227343   5.209   0.382  14.472  0.0479 -0.8415  0.4706
 1951TIP3    H127344   5.295   0.423  14.473  0.8820 -2.5057  0.9051
 1951TIP3    H227345   5.192   0.364  14.379 -0.1536  0.0924  0.3177
 1952TIP3   OH227346   3.322   3.162  14.308 -0.4517 -0.2282  0.2582
 1952TIP3    H127347   3.317   3.134  14.399 -2.4696 -2.7153 -0.5084
 1952TIP3    H227348   3.352   3.085  14.261  1.6662  1.3322 -1.1416
 1953TIP3   OH227349   6.701   6.535  14.667  0.2286  0.4838 -0.0970
 1953TIP3    H127350   6.767   6.570  14.607  0.5677  1.4527  0.8076
 1953TIP3    H227351   6.634   6.603  14.670 -0.6094 -0.2935 -0.6462
 1954TIP3   OH227352   0.970   0.679  13.098 -0.4013  0.2600  0.2477
 1954TIP3    H127353   0.945   0.617  13.030 -0.1932  1.8921 -1.3915
 1954TIP3    H227354   1.064   0.662  13.112 -0.2051  0.5694 -0.6177
 1955TIP3   OH227355   5.517   3.573   0.540  0.1022 -0.0211 -0.2922
 1955TIP3    H127356   5.546   3.661   0.514  0.8125 -0.1745 -0.0469
 1955TIP3    H227357   5.481   3.535   0.460 -0.2081  0.4871 -0.4017
 1956TIP3   OH227358   4.270   1.054  13.152  0.0587 -0.2257  0.5798
 1956TIP3    H127359   4.319   1.073  13.071 -3.0685  0.9389 -1.2043
 1956TIP3    H227360   4.258   0.959  13.152  1.2714 -0.3964  0.4675
 1957TIP3   OH227361   1.713   3.959  14.350 -0.3051 -0.0696 -0.1450
 1957TIP3    H127362   1.703   3.871  14.314  0.9128 -0.6642  0.8639
 1957TIP3    H227363   1.761   3.946  14.432  2.6623  1.7341 -1.3974
 1958TIP3   OH227364   0.364   5.029   1.037 -0.2065 -0.1471  0.4034
 1958TIP3    H127365   0.440   5.084   1.054  0.2036 -0.3090 -0.7724
 1958TIP3    H227366   0.392   4.941   1.064 -0.8509  0.1767  2.2515
 1959TIP3   OH227367   0.703   5.631   2.650  0.3418 -0.2093  0.3948
 1959TIP3    H127368   0.741   5.715   2.622  0.0401 -0.0230  0.5394
 1959TIP3    H227369   0.760   5.601   2.720 -1.0987  1.2558  2.3137
 1960TIP3   OH227370   3.036   6.534   6.225  0.2419  0.0677 -0.1258
 1960TIP3    H127371   3.033   6.624   6.194 -0.7416  0.6718  1.6273
 1960TIP3    H227372   2.958   6.524   6.279 -0.2602 -2.1922 -1.1401
 1961TIP3   OH227373   4.927   5.594  13.758  0.0480  0.6660 -0.3265
 1961TIP3    H127374   4.967   5.531  13.699 -2.4788 -0.6283 -0.8047
 1961TIP3    H227375   4.923   5.676  13.708 -1.0598 -0.1280 -1.6241
 1962TIP3   OH227376   1.672   4.038  14.945  0.0369 -0.4061 -0.1609
 1962TIP3    H127377   1.628   3.976  14.888  0.2357 -0.4135 -0.3053
 1962TIP3    H227378   1.638   4.018  15.033  2.5065 -2.9811  0.3795
 1963TIP3   OH227379   5.670   2.208  15.897  0.0677  0.5145  0.1914
 1963TIP3    H127380   5.652   2.157  15.817  1.4505  1.2096 -0.5934
 1963TIP3    H227381   5.657   2.299  15.870  1.8927  0.8548  0.3540
 1964TIP3   OH227382   2.276   0.325   3.399 -0.1490  0.5106 -0.5497
 1964TIP3    H127383   2.275   0.242   3.448 -0.3708 -0.5174 -2.2226
 1964TIP3    H227384   2.185   0.355   3.399  0.1636  1.6135  1.3776
 1965TIP3   OH227385   6.596   4.202   4.408  0.2940  0.6031 -0.7814
 1965TIP3    H127386   6.662   4.135   4.424 -1.9521 -1.9763 -1.7356
 1965TIP3    H227387   6.597   4.255   4.487  0.2168 -2.2922  1.3067
 1966TIP3   OH227388   3.264   3.912   5.359 -0.1337  0.0544 -0.3028
 1966TIP3    H127389   3.197   3.890   5.424 -2.5397 -0.4385 -2.7629
 1966TIP3    H227390   3.327   3.966   5.406 -0.4124 -2.1984  3.0088
 1967TIP3   OH227391   6.249   2.961  12.089 -0.4032  0.4467  0.0282
 1967TIP3    H127392   6.339   2.982  12.065 -0.1581  0.1756  0.6828
 1967TIP3    H227393   6.247   2.866  12.098 -0.1500  0.5943  2.2556
 1968TIP3   OH227394   5.961   0.065   2.321  0.1399  0.5927  0.3660
 1968TIP3    H127395   5.936   0.082   2.230  2.2893 -0.4647 -0.5038
 1968TIP3    H227396   5.934   0.144   2.368 -2.7539  0.3987 -0.7609
 1969TIP3   OH227397   4.108   0.063  11.534 -0.1931 -0.3672 -0.4485
 1969TIP3    H127398   4.198   0.092  11.549  0.0494 -1.2459 -0.1625
 1969TIP3    H227399   4.054   0.139  11.558  0.4637  0.1858 -0.6729
 1970TIP3   OH227400   5.887   4.787  12.500  0.4871  0.2367  0.1703
 1970TIP3    H127401   5.962   4.795  12.441 -0.1585  0.8106 -0.5969
 1970TIP3    H227402   5.811   4.782  12.441 -0.0739 -0.4357  0.9314
 1971TIP3   OH227403   1.774   5.238  13.862 -0.0568  0.2939 -0.5238
 1971TIP3    H127404   1.819   5.281  13.789  0.6735  3.0115  1.3763
 1971TIP3    H227405   1.684   5.229  13.832  0.4470  0.3450 -2.1589
 1972TIP3   OH227406   3.962   1.528  11.119 -0.2112  0.1359  0.4298
 1972TIP3    H127407   3.889   1.505  11.062  0.7540  0.5210 -1.0144
 1972TIP3    H227408   4.016   1.449  11.124 -0.6752 -0.1320  1.4491
 1973TIP3   OH227409   1.976   0.381  16.000  0.1411 -0.1087 -1.0698
 1973TIP3    H127410   2.064   0.418  16.005 -0.1175  0.4862 -0.9408
 1973TIP3    H227411   1.918   0.452  16.026 -0.3343 -0.6954 -0.4867
 1974TIP3   OH227412   0.373   0.855   0.405  0.4410  0.1822 -0.3681
 1974TIP3    H127413   0.297   0.895   0.447  0.3388 -0.5364  0.1328
 1974TIP3    H227414   0.341   0.773   0.369  1.0523 -0.2972  0.1500
 1975TIP3   OH227415   6.426   4.247  12.373  0.1606  0.1528 -0.0820
 1975TIP3    H127416   6.383   4.332  12.385 -2.1647 -0.8039 -0.9605
 1975TIP3    H227417   6.444   4.216  12.461  0.9715  1.4915  0.2545
 1976TIP3   OH227418   3.778   0.701  17.078 -0.0189 -0.2668 -0.8099
 1976TIP3    H127419   3.697   0.656  17.105  0.4899 -0.5663  0.2716
 1976TIP3    H227420   3.774   0.701  16.982 -0.4538 -1.8568 -0.8159
 1977TIP3   OH227421   5.468   5.568   2.148 -0.2626 -0.8457 -0.4682
 1977TIP3    H127422   5.507   5.596   2.064 -0.3588  0.8127  0.0029
 1977TIP3    H227423   5.403   5.502   2.123  0.7385 -1.4679 -1.5548
 1978TIP3   OH227424   5.525   2.795  16.081  0.2702  0.0377  0.2149
 1978TIP3    H127425   5.572   2.725  16.127  1.4594 -0.3192 -1.4313
 1978TIP3    H227426   5.594   2.853  16.050 -0.5415  0.6217 -0.5337
 1979TIP3   OH227427   4.442   1.342  13.800 -0.1215 -0.1171  1.0520
 1979TIP3    H127428   4.470   1.387  13.880 -1.1958  0.6339  1.0245
 1979TIP3    H227429   4.364   1.293  13.826 -0.0423 -0.4714  0.6331
 1980TIP3   OH227430   6.298   2.568  10.811 -0.4557 -0.0909  0.1023
 1980TIP3    H127431   6.358   2.541  10.742  0.5578  0.9696  0.5435
 1980TIP3    H227432   6.223   2.509  10.801 -0.1310 -0.2814 -1.5831
 1981TIP3   OH227433   2.016   4.967  10.866  0.4155 -0.5068 -0.1903
 1981TIP3    H127434   1.982   4.878  10.859  2.1213 -1.1136 -1.3317
 1981TIP3    H227435   2.098   4.959  10.914  0.4282  0.4987 -0.0062
 1982TIP3   OH227436   4.802   1.648  12.892  0.8019  0.1402  0.0217
 1982TIP3    H127437   4.798   1.710  12.964  1.1316  0.1026  0.0711
 1982TIP3    H227438   4.855   1.691  12.825  2.7985 -0.9028  0.8612
 1983TIP3   OH227439   1.320   0.947  12.204 -0.5854  0.9386  0.0741
 1983TIP3    H127440   1.327   1.027  12.257 -1.3829  0.0756  1.5674
 1983TIP3    H227441   1.226   0.932  12.195 -0.5185 -0.9814  1.7483
 1984TIP3   OH227442   6.376   3.757  15.681 -0.9381  0.2856  0.6178
 1984TIP3    H127443   6.452   3.787  15.729 -0.6933  1.0839 -0.2296
 1984TIP3    H227444   6.329   3.837  15.657 -1.1718 -0.0914 -0.2476
 1985TIP3   OH227445   4.809   6.352  12.424 -0.1414 -0.0977 -0.3468
 1985TIP3    H127446   4.825   6.416  12.494 -1.6709 -0.6819  0.5792
 1985TIP3    H227447   4.766   6.402  12.354  1.6925  0.5602 -1.0597
 1986TIP3   OH227448   5.196   3.905   4.575 -0.3845 -0.1158  0.2024
 1986TIP3    H127449   5.243   3.857   4.643 -1.2213 -0.1430  0.7680
 1986TIP3    H227450   5.264   3.956   4.531  0.3179 -0.8419  0.4168
 1987TIP3   OH227451   5.983   0.327   3.767  0.1106 -0.1239 -0.5550
 1987TIP3    H127452   5.893   0.340   3.736 -0.8829  0.2409  2.2207
 1987TIP3    H227453   6.005   0.408   3.813  1.0289 -1.0296  0.6612
 1988TIP3   OH227454   6.236   1.307   1.372  0.1982 -0.1219 -0.6694
 1988TIP3    H127455   6.259   1.250   1.298  2.0557 -1.3819  0.7657
 1988TIP3    H227456   6.303   1.375   1.371 -0.3704  0.4458 -0.7223
 1989TIP3   OH227457   0.582   5.944   4.317 -0.1046 -0.1802 -0.8003
 1989TIP3    H127458   0.676   5.937   4.329 -0.0328  0.9351 -0.5971
 1989TIP3    H227459   0.546   5.951   4.405 -0.0460  2.6954 -0.9032
 1990TIP3   OH227460   5.056   6.637   2.653  0.5105  0.2577 -0.3831
 1990TIP3    H127461   4.998   6.566   2.627  0.8760 -0.5676  0.9589
 1990TIP3    H227462   5.130   6.593   2.696 -0.3106  1.4987  2.5264
 1991TIP3   OH227463   5.804   6.283   2.487  0.1287  0.5635 -0.0157
 1991TIP3    H127464   5.895   6.299   2.510  0.4246  0.0032 -0.7469
 1991TIP3    H227465   5.803   6.281   2.391 -0.5845  0.2312 -0.0146
 1992TIP3   OH227466   0.426   4.200  15.316 -0.2915  0.1953 -0.2866
 1992TIP3    H127467   0.458   4.224  15.229 -2.1603  0.4730 -0.9512
 1992TIP3    H227468   0.347   4.253  15.328 -0.7661 -0.7531  1.0557
 1993TIP3   OH227469   5.825   1.240   5.917 -0.4448  0.0183 -0.0936
 1993TIP3    H127470   5.897   1.194   5.874 -0.5062  0.5536 -0.7907
 1993TIP3    H227471   5.750   1.229   5.858  0.2081  3.3477 -1.8118
 1994TIP3   OH227472   3.707   3.377   0.816 -0.4660  0.6634  0.4222
 1994TIP3    H127473   3.699   3.423   0.900 -1.1255  2.7701 -0.7248
 1994TIP3    H227474   3.660   3.295   0.829  0.1973  0.5332  2.3584
 1995TIP3   OH227475   4.444   1.663  12.237  0.6069 -0.1384  0.3628
 1995TIP3    H127476   4.504   1.629  12.170  1.2742 -0.8202  1.2754
 1995TIP3    H227477   4.461   1.757  12.239  0.0557  0.0147 -0.9157
 1996TIP3   OH227478   4.736   0.592   3.232  0.0302  0.0190 -0.6383
 1996TIP3    H127479   4.693   0.508   3.246  0.7690 -0.3131 -0.2683
 1996TIP3    H227480   4.716   0.643   3.309 -0.2392  0.1005 -0.7632
 1997TIP3   OH227481   1.844   0.632  12.769 -0.4041  0.0642  0.3429
 1997TIP3    H127482   1.873   0.545  12.741  1.5102  1.0363 -0.9057
 1997TIP3    H227483   1.923   0.686  12.763 -1.6254  1.9712  0.7946
 1998TIP3   OH227484   2.094   6.678  12.313 -0.3406  0.2289 -0.5976
 1998TIP3    H127485   2.148   6.680  12.234  0.1094  0.6675 -0.2820
 1998TIP3    H227486   2.004   6.684  12.280 -0.2071 -0.4771 -1.1249
 1999TIP3   OH227487   2.395   3.621  15.438  0.1570  0.2138 -0.4015
 1999TIP3    H127488   2.345   3.694  15.476  2.5115  1.7449 -0.0230
 1999TIP3    H227489   2.485   3.654  15.433  1.2141 -2.4891 -0.7867
 2000TIP3   OH227490   0.617   2.753   6.143  0.4149  0.1378 -0.1053
 2000TIP3    H127491   0.591   2.662   6.155 -0.7117  0.3533 -0.8379
 2000TIP3    H227492   0.656   2.755   6.055 -2.0195  0.8532 -1.2533
 2001TIP3   OH227493   3.926   0.165  13.923  0.0966 -0.1631 -0.0203
 2001TIP3    H127494   3.887   0.080  13.905 -1.3723 -0.1357  2.5681
 2001TIP3    H227495   3.889   0.224  13.858 -2.9021 -0.5207  1.2306
 2002TIP3   OH227496   5.202   2.796  16.855 -0.5761  0.0294 -0.1980
 2002TIP3    H127497   5.275   2.853  16.829  0.8832 -0.6832  2.0380
 2002TIP3    H227498   5.127   2.855  16.863  0.3797  1.2631  0.0192
 2003TIP3   OH227499   1.240   4.077   1.047 -0.6015 -0.6705  0.7883
 2003TIP3    H127500   1.227   4.168   1.076  0.0291  0.5692 -2.4214
 2003TIP3    H227501   1.156   4.035   1.061 -1.0877  0.5513  1.7758
 2004TIP3   OH227502   3.447   4.701   2.005  0.6432  0.2620 -0.4888
 2004TIP3    H127503   3.380   4.746   2.056  0.8841  1.2035 -0.9821
 2004TIP3    H227504   3.397   4.652   1.939  0.2082 -2.4265  1.6815
 2005TIP3   OH227505   6.709   2.987   6.330  0.2411 -0.3278 -0.2122
 2005TIP3    H127506   6.720   2.958   6.421  0.1070  0.3650  0.0290
 2005TIP3    H227507   6.753   2.919   6.278  0.3025 -0.7384  0.3644
 2006TIP3   OH227508   1.173   1.823   2.485 -0.7518  0.2141  0.0560
 2006TIP3    H127509   1.220   1.751   2.443 -0.8949  0.2619 -0.1903
 2006TIP3    H227510   1.214   1.902   2.449  0.1029  0.2726  1.1022
 2007TIP3   OH227511   0.668   5.197  11.508 -0.0612 -0.0970 -0.1883
 2007TIP3    H127512   0.692   5.219  11.418 -1.8072 -0.5961 -0.8102
 2007TIP3    H227513   0.593   5.254  11.527 -1.9839 -2.4484 -0.3547
 2008TIP3   OH227514   3.584   2.807   1.614 -0.3970 -0.7838  0.6078
 2008TIP3    H127515   3.512   2.854   1.572 -0.7144 -0.9721  0.9299
 2008TIP3    H227516   3.602   2.734   1.555 -0.4736 -0.7392  0.5275
 2009TIP3   OH227517   0.702   4.520   3.159  0.4819 -0.2709  0.0639
 2009TIP3    H127518   0.726   4.506   3.250  2.8436  2.7148  0.0680
 2009TIP3    H227519   0.610   4.549   3.163 -0.1121 -2.1352  1.1903
 2010TIP3   OH227520   6.481   0.538   4.089  0.1570 -0.2261 -0.1164
 2010TIP3    H127521   6.455   0.568   4.176 -1.0178  1.9325 -1.1376
 2010TIP3    H227522   6.563   0.584   4.071  0.8622 -1.3493  0.1861
 2011TIP3   OH227523   3.081   1.358  14.402  0.2978 -0.1225 -0.0810
 2011TIP3    H127524   3.011   1.327  14.345 -1.3513  3.3295 -0.1710
 2011TIP3    H227525   3.044   1.352  14.490  0.8070 -0.4954  0.1109
 2012TIP3   OH227526   6.705   0.128  11.842  0.9396  1.0065  0.2972
 2012TIP3    H127527   6.636   0.062  11.831  0.9621  1.1024 -0.4548
 2012TIP3    H227528   6.776   0.099  11.786  0.7309  1.9615 -0.4964
 2013TIP3   OH227529   3.439   4.937   5.259 -0.1799  0.1863 -0.2490
 2013TIP3    H127530   3.417   5.015   5.310  0.5287  0.7030 -0.6973
 2013TIP3    H227531   3.420   4.864   5.317  2.4677  0.7993  1.5795
 2014TIP3   OH227532   3.543   1.667   2.123  0.0192 -0.8086 -0.0202
 2014TIP3    H127533   3.517   1.742   2.176  1.7237 -1.3562  1.7032
 2014TIP3    H227534   3.464   1.641   2.076 -1.4625 -0.0404  1.9482
 2015TIP3   OH227535   0.663   1.482   5.270  0.3679 -0.6974  0.0056
 2015TIP3    H127536   0.662   1.574   5.245  2.6878 -0.4294  0.7354
 2015TIP3    H227537   0.681   1.435   5.188 -0.5867 -0.5207 -0.3239
 2016TIP3   OH227538   1.146   0.768   5.338 -0.0450 -0.1700  0.7892
 2016TIP3    H127539   1.153   0.803   5.426 -0.2060 -2.1526  1.6427
 2016TIP3    H227540   1.219   0.807   5.290 -0.2420  1.3132  1.6272
 2017TIP3   OH227541   2.486   0.560   6.618 -0.1090  0.2767  0.0677
 2017TIP3    H127542   2.522   0.536   6.533 -0.6173  0.2122 -0.1316
 2017TIP3    H227543   2.559   0.550   6.679  0.0381 -0.4703 -0.2272
 2018TIP3   OH227544   1.030   3.162  12.533  0.3417  0.1515 -0.9265
 2018TIP3    H127545   0.950   3.109  12.533  0.1034  0.4855  0.1060
 2018TIP3    H227546   1.098   3.103  12.500 -0.5169  0.1993 -2.9588
 2019TIP3   OH227547   4.685   3.120  12.498 -0.0652  0.0059  0.3533
 2019TIP3    H127548   4.631   3.065  12.441  1.1384 -1.0526  0.1906
 2019TIP3    H227549   4.745   3.164  12.438 -0.5774  1.0083  0.5546
 2020TIP3   OH227550   3.472   3.113  16.695 -0.2987 -0.4680 -0.5634
 2020TIP3    H127551   3.454   3.195  16.741  2.1231  1.1847 -2.2738
 2020TIP3    H227552   3.530   3.064  16.754 -1.9341 -1.1173  0.5600
 2021TIP3   OH227553   0.154   3.829  13.257  0.2615 -0.1017 -0.1903
 2021TIP3    H127554   0.178   3.902  13.313  2.4725 -0.3995 -0.6548
 2021TIP3    H227555   0.083   3.863  13.202  1.3542  1.7977 -0.5218
 2022TIP3   OH227556   0.227   0.699  17.392 -0.1959 -0.5218 -0.7656
 2022TIP3    H127557   0.199   0.645  17.318 -1.4681 -0.6739 -0.2086
 2022TIP3    H227558   0.147   0.713  17.442  0.0517  2.0441 -0.9697
 2023TIP3   OH227559   0.397   6.112  12.791 -0.9134 -0.3422  0.9057
 2023TIP3    H127560   0.396   6.061  12.710 -0.5104  1.9619 -0.6233
 2023TIP3    H227561   0.482   6.093  12.830  0.2745  0.9658 -0.9065
 2024TIP3   OH227562   4.999   0.745  11.719 -0.5884  0.0796 -0.3806
 2024TIP3    H127563   5.048   0.707  11.646 -0.7504 -0.1224 -0.3849
 2024TIP3    H227564   5.041   0.709  11.798 -0.2024  0.5574 -0.3645
 2025TIP3   OH227565   2.788   2.910  14.594  0.4291  0.2101  0.1788
 2025TIP3    H127566   2.802   2.836  14.535 -0.2751  0.1841  0.0444
 2025TIP3    H227567   2.716   2.959  14.554 -1.2100 -0.7054  1.8729
 2026TIP3   OH227568   1.406   3.624  13.794 -0.0068  0.2020  0.4482
 2026TIP3    H127569   1.367   3.705  13.762  1.5190  0.3740 -1.1749
 2026TIP3    H227570   1.351   3.597  13.867 -2.0899  1.3045 -0.6324
 2027TIP3   OH227571   0.567   4.668   0.886  0.2222  0.0313  0.2739
 2027TIP3    H127572   0.659   4.670   0.913 -0.1009  1.9859  1.3989
 2027TIP3    H227573   0.521   4.718   0.953 -1.1330  2.1239 -2.0360
 2028TIP3   OH227574   4.823   0.109  15.464  0.3523 -0.2482  0.4219
 2028TIP3    H127575   4.916   0.089  15.448  0.4480 -0.2720  0.9802
 2028TIP3    H227576   4.824   0.160  15.544 -0.1243 -0.2466  0.4262
 2029TIP3   OH227577   4.175   5.441  16.544 -0.4339  0.2814 -0.3284
 2029TIP3    H127578   4.211   5.353  16.549 -0.7283  0.1259 -0.8735
 2029TIP3    H227579   4.117   5.448  16.620 -0.6115 -0.0894 -0.4292
 2030TIP3   OH227580   5.645   4.603  11.539  0.0026 -1.2292  0.3860
 2030TIP3    H127581   5.629   4.688  11.579 -1.8079 -0.6769 -1.3675
 2030TIP3    H227582   5.660   4.622  11.446 -1.3376 -2.8469 -0.2131
 2031TIP3   OH227583   4.453   5.131   6.174 -0.2249 -0.2063 -0.4500
 2031TIP3    H127584   4.445   5.096   6.085 -0.2734  1.2931 -1.0548
 2031TIP3    H227585   4.475   5.054   6.227 -0.1526 -1.1253 -1.7486
 2032TIP3   OH227586   2.987   4.973   1.083  0.1675 -0.0219 -0.0824
 2032TIP3    H127587   2.948   5.060   1.087 -1.2269 -0.6208 -0.0668
 2032TIP3    H227588   2.973   4.936   1.170 -2.7293 -1.6468 -1.0995
 2033TIP3   OH227589   6.487   3.295   6.029  0.2428  0.1092 -0.0658
 2033TIP3    H127590   6.481   3.390   6.031 -0.6724  0.0700  2.7249
 2033TIP3    H227591   6.407   3.266   5.985 -0.2931  0.5971  0.5852
 2034TIP3   OH227592   3.973   5.221   5.741 -0.1419 -0.1564  0.3754
 2034TIP3    H127593   3.912   5.278   5.788 -0.1944 -0.3082  0.4905
 2034TIP3    H227594   3.924   5.140   5.726  0.1805 -0.4470  0.8609
 2035TIP3   OH227595   0.172   2.135   5.266  0.0977  0.3469 -0.3134
 2035TIP3    H127596   0.126   2.129   5.183 -0.4399  1.5639 -0.1320
 2035TIP3    H227597   0.103   2.135   5.332  0.4693  0.3050  0.0850
 2036TIP3   OH227598   0.599   3.058  15.106 -0.1431  0.0880 -0.3469
 2036TIP3    H127599   0.687   3.093  15.086  0.0998 -0.8003 -0.8691
 2036TIP3    H227600   0.576   3.006  15.029 -1.6381  1.2300 -0.7210
 2037TIP3   OH227601   3.069   2.667  12.148  1.1899  0.4982  0.0664
 2037TIP3    H127602   3.072   2.708  12.062 -0.3167  1.3352  0.3635
 2037TIP3    H227603   3.066   2.741  12.209 -0.0356 -0.0380  0.6936
 2038TIP3   OH227604   6.688   6.068  16.552 -0.3831  0.4338  0.3914
 2038TIP3    H127605   6.611   6.011  16.551 -1.5867  2.0130  0.6469
 2038TIP3    H227606   6.690   6.107  16.464  1.4660 -1.2489 -0.4066
 2039TIP3   OH227607   0.558   0.083   4.158  0.5740 -0.5957  0.5095
 2039TIP3    H127608   0.482   0.140   4.168  2.0581  1.5444  0.3855
 2039TIP3    H227609   0.531  -0.000   4.196 -1.3574  0.5108  1.7328
 2040TIP3   OH227610   3.232   4.989  13.450 -0.0573 -0.5040  0.1254
 2040TIP3    H127611   3.184   4.911  13.478  0.4501 -0.9911 -0.3330
 2040TIP3    H227612   3.299   5.001  13.518 -1.0734  0.4311  0.9960
 2041TIP3   OH227613   3.153   5.341  14.724  0.0519  0.1212 -0.1967
 2041TIP3    H127614   3.144   5.430  14.758 -0.8041  0.2929 -0.8277
 2041TIP3    H227615   3.086   5.291  14.771  0.1250 -0.0550 -0.2794
 2042TIP3   OH227616   1.446   5.018  11.971 -0.0907  0.1604 -0.0956
 2042TIP3    H127617   1.513   4.986  11.911  0.6915  0.2456  0.7139
 2042TIP3    H227618   1.397   5.082  11.920  1.4867  1.3226 -0.2278
 2043TIP3   OH227619   1.946   4.099   1.086 -0.4289  0.1131 -0.0227
 2043TIP3    H127620   1.893   4.171   1.051  0.3091  1.7027  1.8879
 2043TIP3    H227621   1.972   4.048   1.010 -0.0032  2.5722 -1.6252
 2044TIP3   OH227622   4.339   6.402   1.398 -0.4102  0.3045 -0.0807
 2044TIP3    H127623   4.349   6.387   1.304 -3.4426  0.2930 -0.4823
 2044TIP3    H227624   4.393   6.480   1.415 -0.7264  1.0318 -2.0707
 2045TIP3   OH227625   4.711   6.524  11.656  0.2490  0.3377  0.6239
 2045TIP3    H127626   4.706   6.431  11.637  1.3365  0.7858 -2.3768
 2045TIP3    H227627   4.664   6.534  11.739 -1.6867 -2.5621  0.0334
 2046TIP3   OH227628   2.313   5.964   3.895  0.2607 -0.6320  0.3746
 2046TIP3    H127629   2.339   5.893   3.953 -0.2308 -0.1553  1.1932
 2046TIP3    H227630   2.304   6.041   3.952  0.8425  0.1152 -0.4982
 2047TIP3   OH227631   3.916   5.764   4.478  0.4673  0.2135  0.5935
 2047TIP3    H127632   3.884   5.852   4.492  1.2608  0.4687  0.8681
 2047TIP3    H227633   3.945   5.734   4.564 -0.3489 -0.5453  0.6136
 2048TIP3   OH227634   4.834   5.143   0.145  0.3279 -0.3649  0.2013
 2048TIP3    H127635   4.781   5.198   0.087  1.8236  1.4649  0.4585
 2048TIP3    H227636   4.772   5.109   0.209 -0.6639  1.1742  0.1161
 2049TIP3   OH227637   3.752   4.679   0.849 -0.0683 -0.3658  0.5527
 2049TIP3    H127638   3.731   4.742   0.918 -0.4464  0.1695 -0.0390
 2049TIP3    H227639   3.847   4.668   0.855  0.3873  2.1352 -0.8878
 2050TIP3   OH227640   1.636   3.769  13.883  0.8066  0.7646 -0.4229
 2050TIP3    H127641   1.621   3.862  13.894 -0.7164  0.5310 -0.3405
 2050TIP3    H227642   1.578   3.743  13.811  1.8964  0.0474 -1.0730
 2051TIP3   OH227643   2.162   1.975   5.749 -0.4599  0.1856  0.5297
 2051TIP3    H127644   2.158   1.938   5.837 -0.3296 -1.0674  0.0363
 2051TIP3    H227645   2.245   2.021   5.745 -0.9468  1.1760  1.3965
 2052TIP3   OH227646   6.011   1.375   2.403 -0.1743 -0.2888  0.4859
 2052TIP3    H127647   5.984   1.294   2.446 -0.3708 -0.8746 -0.7001
 2052TIP3    H227648   5.985   1.444   2.463 -0.6641 -1.0688  1.1884
 2053TIP3   OH227649   4.454   2.767  15.963 -0.0952 -0.0468 -0.5897
 2053TIP3    H127650   4.416   2.760  16.050  0.5072 -1.3973 -0.4149
 2053TIP3    H227651   4.379   2.765  15.903 -0.4264 -0.4243 -0.1644
 2054TIP3   OH227652   1.151   3.811  14.465  0.0956  0.0213  0.2672
 2054TIP3    H127653   1.204   3.860  14.528  0.7012  1.0372 -0.9575
 2054TIP3    H227654   1.061   3.828  14.491  0.3212  0.9941  0.4826
 2055TIP3   OH227655   5.564   6.514  11.185  0.3377 -0.0663  0.3961
 2055TIP3    H127656   5.622   6.445  11.152  0.3582  0.6317 -1.1370
 2055TIP3    H227657   5.623   6.579  11.222  0.3236 -0.8022  1.7589
 2056TIP3   OH227658   4.972   5.974  17.239 -0.2024 -0.3290  0.3868
 2056TIP3    H127659   5.037   5.905  17.224  0.6694  0.4688  0.3990
 2056TIP3    H227660   4.988   6.002  17.329 -0.7315 -0.2888  0.4701
 2057TIP3   OH227661   5.638   5.763  12.213 -0.1229 -0.0116 -0.1371
 2057TIP3    H127662   5.631   5.702  12.140  0.0553  0.3514 -0.4601
 2057TIP3    H227663   5.647   5.849  12.172 -0.9112  0.3014  0.3099
 2058TIP3   OH227664   5.049   5.283  10.634 -0.1406 -0.2969 -0.2928
 2058TIP3    H127665   5.090   5.270  10.719  3.1642 -2.6806 -1.9905
 2058TIP3    H227666   5.103   5.349  10.591 -1.1469  0.1366 -0.9276
 2059TIP3   OH227667   4.872   2.167   4.136 -0.7333 -0.4813 -0.5504
 2059TIP3    H127668   4.795   2.218   4.109 -1.0857 -0.4209  0.4966
 2059TIP3    H227669   4.888   2.107   4.064  0.5808  2.0354 -2.5212
 2060TIP3   OH227670   2.651   2.428   0.240  0.5101 -0.6850  0.7767
 2060TIP3    H127671   2.719   2.374   0.200 -0.5540 -0.2908 -1.7550
 2060TIP3    H227672   2.572   2.374   0.236 -0.0445  0.1314  0.4577
 2061TIP3   OH227673   1.759   0.044  17.366 -0.3648  0.8842  0.0357
 2061TIP3    H127674   1.704   0.111  17.407 -0.7379  0.9102 -0.4975
 2061TIP3    H227675   1.843   0.087  17.354  0.0051  0.6209  1.5019
 2062TIP3   OH227676   4.390   1.004  16.807  0.1200 -0.4979  0.2828
 2062TIP3    H127677   4.421   0.947  16.878 -0.8673 -0.5622  0.6738
 2062TIP3    H227678   4.297   0.985  16.800 -0.1794  0.8950  0.2484
 2063TIP3   OH227679   2.445   4.824   5.697  0.0464 -0.0385 -0.0823
 2063TIP3    H127680   2.413   4.890   5.758 -1.9439 -0.5851 -0.4713
 2063TIP3    H227681   2.469   4.874   5.619  0.9930  0.4710  0.5093
 2064TIP3   OH227682   4.508   6.683   0.665  0.0193 -0.1972 -0.3405
 2064TIP3    H127683   4.511   6.616   0.733 -2.2808 -0.5557 -0.5278
 2064TIP3    H227684   4.494   6.765   0.712  3.8378  0.4572 -0.0187
 2065TIP3   OH227685   4.000   3.822  12.344  0.1315  0.1878 -0.0606
 2065TIP3    H127686   4.091   3.799  12.363 -0.2545 -0.6299  0.9107
 2065TIP3    H227687   3.991   3.911  12.377  1.1082  1.0838 -2.0455
 2066TIP3   OH227688   5.148   5.156   0.072 -0.4591 -0.0694  0.1633
 2066TIP3    H127689   5.054   5.169   0.059 -0.1697  0.4836 -1.8511
 2066TIP3    H227690   5.173   5.226   0.132 -1.4132 -0.5676  1.1703
 2067TIP3   OH227691   6.165   2.356   5.182 -0.0138  0.3283 -0.1351
 2067TIP3    H127692   6.191   2.269   5.212  1.9454  0.4686 -1.1939
 2067TIP3    H227693   6.151   2.345   5.087  1.1950  1.3158 -0.4494
 2068TIP3   OH227694   6.638   3.524   5.373 -0.3054 -0.1827  0.8019
 2068TIP3    H127695   6.725   3.546   5.407 -0.6563  1.2239  0.8369
 2068TIP3    H227696   6.654   3.502   5.281  0.4085 -2.4019  1.3866
 2069TIP3   OH227697   4.763   3.680  16.190 -0.0996 -0.0446 -0.2011
 2069TIP3    H127698   4.771   3.754  16.129 -0.1823 -0.1748 -0.3711
 2069TIP3    H227699   4.851   3.667  16.224 -0.2147  0.5866  0.3661
 2070TIP3   OH227700   1.449   2.809   1.592  0.2506 -0.0889 -0.9703
 2070TIP3    H127701   1.513   2.840   1.655  2.3088 -1.0890 -2.4214
 2070TIP3    H227702   1.367   2.852   1.616  1.5357  1.5293  0.7658
 2071TIP3   OH227703   4.771   2.442  13.023  0.0489 -0.7748  0.2288
 2071TIP3    H127704   4.761   2.477  13.112 -2.0627  1.5963 -0.8148
 2071TIP3    H227705   4.706   2.372  13.018  2.0453 -2.8439  1.2963
 2072TIP3   OH227706   3.499   3.846   2.445  0.0799  0.2928  0.1488
 2072TIP3    H127707   3.512   3.849   2.350  2.9603 -1.4849  0.3757
 2072TIP3    H227708   3.493   3.938   2.471  0.6543  0.8667 -1.6129
 2073TIP3   OH227709   1.267   3.325  14.418  0.0639 -0.0252  0.4437
 2073TIP3    H127710   1.340   3.270  14.388 -0.4823 -0.7176  0.3650
 2073TIP3    H227711   1.301   3.415  14.413 -0.1109  0.0115 -2.7542
 2074TIP3   OH227712   1.801   2.707  16.359 -0.3766 -0.2142 -0.0682
 2074TIP3    H127713   1.809   2.800  16.335 -1.9188 -0.2879 -0.9932
 2074TIP3    H227714   1.709   2.687  16.346 -0.2585 -1.6413  1.0983
 2075TIP3   OH227715   1.566   6.231   0.666 -0.2238 -0.2186 -0.7800
 2075TIP3    H127716   1.605   6.270   0.745 -0.0970 -1.1338 -0.3735
 2075TIP3    H227717   1.642   6.211   0.610 -0.2178 -0.5975 -0.6429
 2076TIP3   OH227718   0.234   1.096   5.292  0.8432  0.3992 -0.3192
 2076TIP3    H127719   0.316   1.060   5.324  1.3407  1.4722 -0.3496
 2076TIP3    H227720   0.173   1.022   5.294  1.7553 -0.3703 -0.1437
 2077TIP3   OH227721   3.619   2.324   4.778 -0.3223 -0.4970  0.2280
 2077TIP3    H127722   3.612   2.342   4.872  1.3869 -1.3619  0.5503
 2077TIP3    H227723   3.603   2.409   4.736 -1.1181 -0.1083  1.2692
 2078TIP3   OH227724   2.360   1.924   3.841 -0.3224  0.0125  0.0798
 2078TIP3    H127725   2.393   1.873   3.767  2.4124 -0.1835  1.3162
 2078TIP3    H227726   2.298   1.867   3.884 -1.8206  0.0526 -1.8915
 2079TIP3   OH227727   0.118   5.251   2.623  0.4259 -0.6088 -0.3802
 2079TIP3    H127728   0.157   5.164   2.634  0.7136 -0.1861  2.5129
 2079TIP3    H227729   0.023   5.235   2.623  0.3677 -0.7826  2.8540
 2080TIP3   OH227730   0.626   4.889   2.060  0.6934  0.0520  0.2970
 2080TIP3    H127731   0.556   4.918   2.119  0.4248 -0.0521  0.0298
 2080TIP3    H227732   0.592   4.903   1.972  0.5411 -1.0900  0.1538
 2081TIP3   OH227733   6.232   0.685  13.053 -0.2860  0.2132  0.3146
 2081TIP3    H127734   6.311   0.708  13.004 -0.4985 -0.9521 -0.6164
 2081TIP3    H227735   6.241   0.733  13.136  1.0578  0.6425 -0.0483
 2082TIP3   OH227736   0.673   0.971   3.817  0.5925  0.2875  0.2135
 2082TIP3    H127737   0.642   0.941   3.731  1.2022  0.9461 -0.2602
 2082TIP3    H227738   0.766   0.952   3.816  0.5799  0.2053  0.7789
 2083TIP3   OH227739   3.325   5.375  16.548 -0.2611 -0.4838 -0.2706
 2083TIP3    H127740   3.304   5.359  16.640 -4.2460  0.5661 -0.7866
 2083TIP3    H227741   3.294   5.297  16.502  3.0065 -1.6502 -0.7511
 2084TIP3   OH227742   3.639   5.701  10.977 -0.1864 -0.2639 -0.3192
 2084TIP3    H127743   3.731   5.717  10.999 -0.4658  1.5501 -0.3955
 2084TIP3    H227744   3.626   5.745  10.894 -1.1922 -0.3373 -0.2148
 2085TIP3   OH227745   6.282   5.709   3.047 -0.1747  0.5942 -0.3297
 2085TIP3    H127746   6.250   5.723   3.136  1.0935  2.2940 -0.1031
 2085TIP3    H227747   6.377   5.704   3.056  0.1984  3.2825 -1.8256
 2086TIP3   OH227748   4.950   4.121   1.786  0.3151 -0.8233  0.2923
 2086TIP3    H127749   5.030   4.075   1.759  0.2671 -1.0310  0.5102
 2086TIP3    H227750   4.882   4.086   1.728  0.2337 -1.1926  0.6057
 2087TIP3   OH227751   1.254   5.404   6.226 -0.4483 -0.2907  0.0560
 2087TIP3    H127752   1.201   5.468   6.178  1.1690 -0.2836 -1.8157
 2087TIP3    H227753   1.266   5.443   6.313 -2.0546  0.4719 -0.0293
 2088TIP3   OH227754   5.621   0.273  15.167  0.9868  0.0837  0.6406
 2088TIP3    H127755   5.584   0.212  15.230  0.7290 -0.4503 -0.0162
 2088TIP3    H227756   5.674   0.218  15.109 -0.8094  0.1418 -1.1670
 2089TIP3   OH227757   2.789   3.408   5.858 -0.2280 -0.0784 -0.0651
 2089TIP3    H127758   2.877   3.375   5.877 -0.3114 -0.8701 -1.0191
 2089TIP3    H227759   2.805   3.488   5.807 -0.0563  0.0239  0.1469
 2090TIP3   OH227760   2.862   4.782   1.600 -0.2228 -0.0562  0.1993
 2090TIP3    H127761   2.898   4.846   1.661 -2.0992  0.9759  0.2992
 2090TIP3    H227762   2.877   4.697   1.641  0.4349  0.4649  1.0604
 2091TIP3   OH227763   0.281   6.086  16.986  0.4897 -0.0453 -0.5483
 2091TIP3    H127764   0.357   6.120  16.938  0.0890 -1.1261 -2.0258
 2091TIP3    H227765   0.208   6.096  16.926 -0.2804 -0.3441  0.3080
 2092TIP3   OH227766   4.435   5.728  16.671  0.8642  0.0157 -0.0446
 2092TIP3    H127767   4.346   5.761  16.676  0.7791  0.1662 -2.0227
 2092TIP3    H227768   4.481   5.774  16.741 -0.2966  0.9120  0.1574
 2093TIP3   OH227769   0.683   3.757   4.904 -0.0258  0.3947  0.0601
 2093TIP3    H127770   0.633   3.793   4.831 -1.5264  2.2587  1.8788
 2093TIP3    H227771   0.740   3.829   4.933  1.4730 -0.7074 -0.0171
 2094TIP3   OH227772   4.020   5.793  13.661  0.7724  0.1355 -0.3242
 2094TIP3    H127773   3.982   5.790  13.749  1.0214 -0.8339 -0.2403
 2094TIP3    H227774   3.978   5.721  13.614 -0.4401  1.5162 -1.4699
 2095TIP3   OH227775   3.746   2.517  15.105 -0.2710 -0.7944  0.4538
 2095TIP3    H127776   3.837   2.509  15.136  0.3881 -0.3652 -1.2243
 2095TIP3    H227777   3.744   2.602  15.061 -1.6559 -0.5638  0.9127
 2096TIP3   OH227778   5.894   1.020  13.033 -0.4287  0.1903  0.1546
 2096TIP3    H127779   5.930   1.109  13.036 -1.7868  0.7306  1.5170
 2096TIP3    H227780   5.956   0.968  13.084 -0.2716  0.5933  0.3775
 2097TIP3   OH227781   2.748   4.340  16.456 -0.1481 -0.7217 -0.3357
 2097TIP3    H127782   2.665   4.332  16.410  0.0992 -0.6374 -0.7954
 2097TIP3    H227783   2.813   4.354  16.387  0.3568 -1.5628 -0.0457
 2098TIP3   OH227784   0.159   3.663   4.575  0.0774 -0.1999 -0.1054
 2098TIP3    H127785   0.157   3.755   4.601  0.2940  0.6576 -2.7741
 2098TIP3    H227786   0.087   3.655   4.512  0.1533 -1.8244 -0.0137
 2099TIP3   OH227787   0.435   0.098  14.461 -0.2986  0.1413  0.6134
 2099TIP3    H127788   0.514   0.150  14.473 -0.3397  0.2527  0.4159
 2099TIP3    H227789   0.459   0.010  14.490 -0.4741  0.4466  1.7427
 2100TIP3   OH227790   6.165   3.138   5.671 -0.0152 -0.3356  0.2203
 2100TIP3    H127791   6.209   3.053   5.672  1.9140  0.6249  1.0850
 2100TIP3    H227792   6.193   3.180   5.752 -0.7874  1.2121 -0.2852
 2101TIP3   OH227793   1.909   1.968   4.088 -0.3197  0.0808  0.4784
 2101TIP3    H127794   1.818   1.968   4.059 -0.9919  1.0422  2.4169
 2101TIP3    H227795   1.917   1.892   4.145  0.3605 -0.4681 -0.3059
 2102TIP3   OH227796   5.699   4.829   2.925  0.8101 -0.0496  0.1129
 2102TIP3    H127797   5.719   4.736   2.910  2.1004  0.3916 -1.1130
 2102TIP3    H227798   5.604   4.834   2.914  0.3384 -1.6085  2.6306
 2103TIP3   OH227799   4.445   1.252  15.713 -0.3467 -0.0333  0.7947
 2103TIP3    H127800   4.421   1.296  15.632 -0.0471 -0.7360  0.3213
 2103TIP3    H227801   4.461   1.161  15.688  1.3387  0.0785  1.3321
 2104TIP3   OH227802   6.004   6.495  16.453 -0.4065  0.4829 -0.0353
 2104TIP3    H127803   5.934   6.443  16.492 -0.1274  1.9632  2.6874
 2104TIP3    H227804   6.070   6.430  16.428 -0.6978 -0.6416  1.8717
 2105TIP3   OH227805   2.961   0.040   4.072  0.1237  0.0852  0.9713
 2105TIP3    H127806   3.028  -0.028   4.081 -1.8985 -2.1099  0.4987
 2105TIP3    H227807   2.954   0.053   3.977 -1.4970 -1.2706  0.8567
 2106TIP3   OH227808   4.085   5.375   4.376  0.1598 -0.5748  0.0062
 2106TIP3    H127809   4.002   5.423   4.379 -0.3929 -1.2928 -2.0817
 2106TIP3    H227810   4.060   5.283   4.365  1.2273 -0.8988  0.1363
 2107TIP3   OH227811   0.115   6.536  11.438 -0.2577  0.4642 -0.0043
 2107TIP3    H127812   0.021   6.528  11.448 -0.2108  1.3005  1.3510
 2107TIP3    H227813   0.147   6.446  11.434 -1.0283  0.1683  0.3686
 2108TIP3   OH227814   0.148   5.073  13.098  0.1872 -0.3398  0.5285
 2108TIP3    H127815   0.237   5.099  13.075 -0.1321 -0.5679 -1.0729
 2108TIP3    H227816   0.159   4.999  13.158  1.0865 -0.9141 -0.3212
 2109TIP3   OH227817   3.402   6.288  11.640 -0.9452 -0.5045  0.5898
 2109TIP3    H127818   3.484   6.327  11.610 -0.2061 -1.8185  0.7969
 2109TIP3    H227819   3.420   6.261  11.730 -2.6896  2.1231  1.8504
 2110TIP3   OH227820   5.453   1.529   3.116  0.1786  0.2197  0.3363
 2110TIP3    H127821   5.443   1.452   3.059  2.0891  0.8140 -0.8771
 2110TIP3    H227822   5.457   1.492   3.204 -0.4002 -0.9435 -0.0945
 2111TIP3   OH227823   3.326   1.567  14.120 -0.2402 -0.1120 -0.1481
 2111TIP3    H127824   3.281   1.576  14.036 -0.5493 -2.5631 -0.3060
 2111TIP3    H227825   3.419   1.578  14.099 -0.0503 -3.0791 -1.3497
 2112TIP3   OH227826   2.084   1.110   0.970 -0.1571  0.1573 -0.6088
 2112TIP3    H127827   2.175   1.130   0.946 -0.1802 -1.2185 -2.0315
 2112TIP3    H227828   2.071   1.153   1.054  0.9385  2.7407 -1.6442
 2113TIP3   OH227829   0.182   4.143   1.781  0.6564 -0.3197  0.6107
 2113TIP3    H127830   0.198   4.201   1.707  0.7270  0.9246  1.5712
 2113TIP3    H227831   0.246   4.073   1.771  0.5069 -0.3022 -0.6222
 2114TIP3   OH227832   0.996   6.573  13.628 -0.2088  0.3964  0.0312
 2114TIP3    H127833   0.902   6.572  13.642 -0.0466 -0.2812  1.1043
 2114TIP3    H227834   1.013   6.660  13.591 -1.3371  0.2446 -0.9166
 2115TIP3   OH227835   1.163   0.441  13.266  0.6415  0.3703 -0.2846
 2115TIP3    H127836   1.161   0.481  13.179 -0.7261  1.2216  0.1036
 2115TIP3    H227837   1.094   0.375  13.264  0.2109  0.7924  0.3247
 2116TIP3   OH227838   2.317   1.614  11.760 -0.3341  0.7519  0.1277
 2116TIP3    H127839   2.322   1.705  11.733  0.4118  1.0237  1.1238
 2116TIP3    H227840   2.395   1.600  11.814 -0.6061 -0.3829  0.2679
 2117TIP3   OH227841   5.141   2.080   1.532 -0.2469 -0.1125  0.3094
 2117TIP3    H127842   5.219   2.093   1.478 -0.7290  1.6213 -0.0443
 2117TIP3    H227843   5.081   2.149   1.504 -1.2575 -0.3724  1.7367
 2118TIP3   OH227844   5.087   5.263   2.701  0.4490 -0.0842 -0.7027
 2118TIP3    H127845   5.079   5.172   2.670 -1.2265 -0.6903  1.3179
 2118TIP3    H227846   4.999   5.299   2.691  0.7822  0.8895 -0.2164
 2119TIP3   OH227847   4.977   6.235   5.567 -0.5467 -0.0226  0.3204
 2119TIP3    H127848   5.029   6.299   5.615 -0.2235  0.0707 -0.1500
 2119TIP3    H227849   4.930   6.287   5.501  0.0777 -0.3197 -0.3753
 2120TIP3   OH227850   4.827   4.127  16.187 -0.0064 -0.1022 -0.4648
 2120TIP3    H127851   4.798   4.201  16.239 -1.1684  0.2005 -1.4955
 2120TIP3    H227852   4.878   4.074  16.248  0.5748  1.3568  0.3791
 2121TIP3   OH227853   3.086   2.971   2.559 -0.3467  0.2670  0.1951
 2121TIP3    H127854   3.068   3.048   2.505 -0.8259  0.3206  0.4235
 2121TIP3    H227855   3.181   2.972   2.571 -0.5679  2.4435  2.5277
 2122TIP3   OH227856   1.115   3.217  15.440 -0.1906  0.1788 -0.0568
 2122TIP3    H127857   1.210   3.228  15.440  0.0882 -0.7307 -3.7917
 2122TIP3    H227858   1.099   3.135  15.486  1.2781 -1.3686 -2.1178
 2123TIP3   OH227859   1.569   0.464  11.825  0.1919  0.3412 -0.0589
 2123TIP3    H127860   1.598   0.443  11.736 -0.0478 -2.6949  0.4611
 2123TIP3    H227861   1.636   0.426  11.881 -1.1652 -0.5079  1.0594
 2124TIP3   OH227862   0.086   6.146  10.680  0.2114 -0.4123 -0.0108
 2124TIP3    H127863   0.070   6.210  10.750  0.4172 -0.5583  0.1729
 2124TIP3    H227864   0.001   6.108  10.661  0.0488  0.0698 -0.2700
 2125TIP3   OH227865   5.817   0.407   5.882  0.1985 -0.3886 -0.5071
 2125TIP3    H127866   5.904   0.367   5.877  0.0380 -0.9477  0.7607
 2125TIP3    H227867   5.805   0.425   5.975 -0.0866  1.8715 -0.9350
 2126TIP3   OH227868   1.096   3.935   4.647  0.3823 -0.3709  0.0865
 2126TIP3    H127869   1.079   4.022   4.682 -0.2756 -0.2100 -0.6232
 2126TIP3    H227870   1.170   3.902   4.699 -0.5306 -0.1189  1.5795
 2127TIP3   OH227871   5.108   0.643  11.490 -0.8105 -0.3677 -0.2815
 2127TIP3    H127872   5.085   0.700  11.417 -1.3036  1.7294  1.3984
 2127TIP3    H227873   5.194   0.607  11.466  1.3241  3.9001 -0.0594
 2128TIP3   OH227874   3.718   0.578  13.924  0.4330  0.3480  1.1721
 2128TIP3    H127875   3.795   0.527  13.950 -0.5228 -1.6582  0.3018
 2128TIP3    H227876   3.710   0.563  13.830 -0.6349  1.0514  1.1309
 2129TIP3   OH227877   6.308   3.434   0.236 -0.0013  0.0168 -0.0835
 2129TIP3    H127878   6.303   3.344   0.204  1.0633  0.0583 -0.3793
 2129TIP3    H227879   6.275   3.428   0.326  0.4942 -0.7537  0.0564
 2130TIP3   OH227880   4.316   6.177   2.271 -0.5939 -0.0434 -0.0834
 2130TIP3    H127881   4.233   6.214   2.300 -0.9785 -0.7388 -0.2724
 2130TIP3    H227882   4.375   6.252   2.263 -1.5877  0.6401 -1.2629
 2131TIP3   OH227883   5.450   4.334   3.531 -0.5230 -0.2689 -0.0735
 2131TIP3    H127884   5.438   4.316   3.624  0.7270 -0.1906  0.1307
 2131TIP3    H227885   5.525   4.280   3.506 -0.1155  0.5840 -0.7476
 2132TIP3   OH227886   2.096   2.791   7.232 -0.4896 -0.4308 -0.0156
 2132TIP3    H127887   2.099   2.727   7.161 -1.8056 -0.1326 -0.3685
 2132TIP3    H227888   2.077   2.874   7.189  3.3739  0.7560  0.1487
 2133TIP3   OH227889   0.479   2.006  15.461  0.5184 -0.3672 -0.1234
 2133TIP3    H127890   0.465   1.931  15.519  2.0622 -0.3806  0.2924
 2133TIP3    H227891   0.518   1.968  15.382  2.7581  0.0727  0.6758
 2134TIP3   OH227892   2.228   1.831   5.158  0.1814 -0.1463 -0.2539
 2134TIP3    H127893   2.179   1.870   5.230 -1.6141 -0.6026 -1.1771
 2134TIP3    H227894   2.190   1.870   5.079 -0.8539 -2.7477 -1.1525
 2135TIP3   OH227895   3.983   5.123  15.423  0.0617  0.2143 -0.1301
 2135TIP3    H127896   4.064   5.123  15.370 -0.1688 -1.2752 -0.5517
 2135TIP3    H227897   3.947   5.211  15.413  1.0321  0.5446 -0.8904
 2136TIP3   OH227898   1.451   5.894   5.287 -0.0346 -0.0966 -0.6116
 2136TIP3    H127899   1.363   5.894   5.324  0.3034 -0.6650  0.2108
 2136TIP3    H227900   1.484   5.982   5.304 -0.6255  0.2834 -1.3859
 2137TIP3   OH227901   0.973   6.144  11.999 -0.1734 -1.0313  0.0828
 2137TIP3    H127902   1.040   6.173  11.937 -0.3125 -0.5772  0.1394
 2137TIP3    H227903   0.893   6.141  11.947 -0.2486 -0.8632  0.1900
 2138TIP3   OH227904   6.657   2.513  14.659  0.3212  0.7948 -0.2336
 2138TIP3    H127905   6.701   2.431  14.682 -0.3585  0.8421  1.3040
 2138TIP3    H227906   6.723   2.581  14.673 -0.1526  0.8646  2.0488
 2139TIP3   OH227907   1.600   3.495  15.651  0.7835 -0.3646  0.6034
 2139TIP3    H127908   1.583   3.415  15.701  0.3350 -1.5713 -1.4019
 2139TIP3    H227909   1.519   3.547  15.661  1.2564  0.1414  2.3081
 2140TIP3   OH227910   0.605   5.064   2.464  0.3690 -0.5571 -0.0809
 2140TIP3    H127911   0.608   5.116   2.384 -0.1442 -0.4207 -0.0190
 2140TIP3    H227912   0.644   5.120   2.531  0.8987 -0.7136 -0.2549
 2141TIP3   OH227913   6.618   1.514  17.505 -0.0220  0.1494  0.3918
 2141TIP3    H127914   6.620   1.480  17.594  0.8001 -0.8792 -0.0014
 2141TIP3    H227915   6.595   1.439  17.450  1.4245  0.2795 -0.4461
 2142TIP3   OH227916   0.235   2.282   1.315  0.4221  0.1971  0.1116
 2142TIP3    H127917   0.151   2.269   1.361  0.3987 -0.2151 -0.0462
 2142TIP3    H227918   0.234   2.218   1.245  0.6249  0.5771 -0.2445
 2143TIP3   OH227919   4.806   4.894  16.826  0.1630  0.2987 -0.8712
 2143TIP3    H127920   4.735   4.903  16.763  0.4646 -0.2450 -1.2968
 2143TIP3    H227921   4.807   4.800  16.847 -0.7067  0.6289  0.8537
 2144TIP3   OH227922   0.583   0.460   1.617 -0.0146  0.0517 -0.1106
 2144TIP3    H127923   0.591   0.365   1.617 -0.6605 -0.0145  0.8598
 2144TIP3    H227924   0.541   0.480   1.533  0.1035 -0.5166 -0.3109
 2145TIP3   OH227925   4.549   5.468   2.155  0.3924  0.5280  0.1926
 2145TIP3    H127926   4.552   5.378   2.122  1.9345  0.3156  0.8353
 2145TIP3    H227927   4.570   5.522   2.079  1.2608  0.2053  0.1851
 2146TIP3   OH227928   2.602   2.584   5.978  0.6718 -1.2699  0.1280
 2146TIP3    H127929   2.518   2.630   5.969  1.9266  1.0188 -0.6900
 2146TIP3    H227930   2.608   2.529   5.900  0.9893  0.4952 -1.1627
 2147TIP3   OH227931   0.120   4.942   2.188 -0.0165  0.3401  0.4547
 2147TIP3    H127932   0.119   4.868   2.249  1.2434 -0.8064 -0.8265
 2147TIP3    H227933   0.168   4.909   2.112  1.6841  2.8730  0.3136
 2148TIP3   OH227934   2.318   4.904   0.724 -0.0658 -0.0613 -0.0289
 2148TIP3    H127935   2.281   4.993   0.727 -0.6740 -0.3222  1.3446
 2148TIP3    H227936   2.400   4.913   0.677 -0.5378  1.0770 -0.6586
 2149TIP3   OH227937   0.275   5.835   3.481  0.4605 -0.0443  0.0542
 2149TIP3    H127938   0.310   5.845   3.392 -0.7636  0.5626 -0.3806
 2149TIP3    H227939   0.249   5.923   3.507  0.8586 -0.2120  1.0417
 2150TIP3   OH227940   6.099   5.742   1.245 -0.1999 -0.1647 -0.2660
 2150TIP3    H127941   6.132   5.790   1.169 -0.4692 -0.8648 -0.8407
 2150TIP3    H227942   6.004   5.741   1.233 -0.4801  1.7430  1.3169
 2151TIP3   OH227943   2.380   0.713   1.923 -0.0683 -0.0677  0.3003
 2151TIP3    H127944   2.415   0.736   2.009 -0.8917 -0.4577  0.7547
 2151TIP3    H227945   2.445   0.654   1.886  0.0107 -0.3901  0.9233
 2152TIP3   OH227946   2.870   2.376   5.500 -0.2458 -0.5198 -0.2121
 2152TIP3    H127947   2.825   2.397   5.583 -1.1638 -2.7842 -0.0660
 2152TIP3    H227948   2.880   2.460   5.457 -2.0874  0.4321  1.0689
 2153TIP3   OH227949   2.245   5.611   6.201  0.1270 -0.2993  0.2083
 2153TIP3    H127950   2.185   5.679   6.172  0.8424  0.2769  0.0716
 2153TIP3    H227951   2.277   5.641   6.286  1.2823  0.0750 -0.3507
 2154TIP3   OH227952   4.622   4.040  16.875  0.2618 -0.4420 -0.2759
 2154TIP3    H127953   4.561   4.081  16.814  0.5697  1.3452  0.5732
 2154TIP3    H227954   4.571   3.969  16.915 -1.7429  1.7328  1.2772
 2155TIP3   OH227955   1.290   0.422  12.322 -0.1549  0.3920  0.0124
 2155TIP3    H127956   1.385   0.419  12.329 -0.0497  2.5562  0.3210
 2155TIP3    H227957   1.263   0.478  12.395 -1.6350  0.0153 -0.2216
 2156TIP3   OH227958   2.202   2.279  13.908 -0.3811  0.2276 -0.5494
 2156TIP3    H127959   2.278   2.292  13.964  0.5567  0.4819 -1.8242
 2156TIP3    H227960   2.211   2.189  13.875 -0.6510  0.2468 -0.6796
 2157TIP3   OH227961   0.308   1.763   3.741 -0.1718 -0.1185 -0.8905
 2157TIP3    H127962   0.246   1.802   3.803 -1.1409 -1.8346 -0.7223
 2157TIP3    H227963   0.374   1.722   3.797  0.2409  0.3131 -1.0523
 2158TIP3   OH227964   1.290   1.703   1.220 -0.2668 -0.1088 -0.0115
 2158TIP3    H127965   1.247   1.787   1.204 -0.4268 -0.2965 -0.6297
 2158TIP3    H227966   1.382   1.719   1.202 -0.0106  0.3695  1.6018
 2159TIP3   OH227967   0.944   4.846  12.963 -0.0350  0.2558  0.1580
 2159TIP3    H127968   0.955   4.844  12.868  0.2047 -0.2306  0.1911
 2159TIP3    H227969   0.855   4.879  12.976 -0.0006  0.5124 -0.2295
 2160TIP3   OH227970   0.214   4.786  15.962 -0.4589 -0.3319 -0.1182
 2160TIP3    H127971   0.210   4.721  15.891  2.8590 -1.3866  0.4681
 2160TIP3    H227972   0.193   4.737  16.041 -3.0354  0.5880 -0.1588
 2161TIP3   OH227973   3.922   5.768   3.659 -0.0690 -0.2652 -0.1147
 2161TIP3    H127974   4.014   5.792   3.655 -0.0788  0.2089  1.7063
 2161TIP3    H227975   3.917   5.685   3.612  1.0637  0.2755 -1.2249
 2162TIP3   OH227976   4.649   0.192   4.664  0.4889  0.6445  0.1466
 2162TIP3    H127977   4.658   0.179   4.758  0.6536  1.1161  0.1958
 2162TIP3    H227978   4.559   0.166   4.645  0.3615  0.8377  0.4810
 2163TIP3   OH227979   2.369   5.692  15.180  0.2943  0.5770  0.5247
 2163TIP3    H127980   2.279   5.711  15.206  0.4122  2.1939 -0.1180
 2163TIP3    H227981   2.422   5.749  15.235  1.2952 -2.8013  3.4493
 2164TIP3   OH227982   0.759   6.490  15.774  0.2793 -0.3991 -0.2052
 2164TIP3    H127983   0.852   6.513  15.772  0.2363 -0.2390 -0.3628
 2164TIP3    H227984   0.715   6.568  15.808  0.0310  0.1067 -1.6332
 2165TIP3   OH227985   4.188   5.301  11.602  0.0945 -0.0582 -0.0957
 2165TIP3    H127986   4.280   5.321  11.583 -0.0433  1.4530  0.6603
 2165TIP3    H227987   4.148   5.386  11.616 -0.8252 -0.7923  2.2374
 2166TIP3   OH227988   3.868   5.043  13.783 -0.0648  0.3827  0.1352
 2166TIP3    H127989   3.893   5.013  13.871 -1.0637 -1.6465 -0.2087
 2166TIP3    H227990   3.874   5.138  13.787  0.1163  0.3222  2.3461
 2167TIP3   OH227991   2.253   3.814  14.801  0.1570 -0.3453  0.1757
 2167TIP3    H127992   2.250   3.812  14.705 -2.5300 -1.5830  0.2032
 2167TIP3    H227993   2.181   3.757  14.829  0.7288  0.1380  2.9506
 2168TIP3   OH227994   6.655   2.302  16.778  0.7689 -0.2861  0.2365
 2168TIP3    H127995   6.612   2.344  16.853  0.3418 -1.5469  0.7119
 2168TIP3    H227996   6.663   2.373  16.714 -0.6180  0.3586  0.7223
 2169TIP3   OH227997   1.007   1.379  15.583  0.0252  0.9222  0.1763
 2169TIP3    H127998   0.945   1.318  15.623 -0.3196  1.2846  0.1998
 2169TIP3    H227999   1.068   1.324  15.535 -0.6372  0.5910 -0.2943
 2170TIP3   OH228000   4.934   5.976  11.844 -0.6593 -0.0071  0.2745
 2170TIP3    H128001   4.977   5.995  11.927  0.2651 -0.5643 -0.0554
 2170TIP3    H228002   4.988   5.906  11.805 -1.5010 -0.2685 -0.4501
 2171TIP3   OH228003   2.848   4.558  11.926  0.3678 -0.1509  0.1240
 2171TIP3    H128004   2.780   4.492  11.914  0.6146 -0.3653 -0.1003
 2171TIP3    H228005   2.834   4.620  11.855 -0.4436  0.5514  0.8625
 2172TIP3   OH228006   5.596   6.053   4.418  0.1596  0.3097  1.0440
 2172TIP3    H128007   5.572   6.105   4.342 -0.5994 -0.2931  0.8590
 2172TIP3    H228008   5.681   6.088   4.445  0.2514  0.7949  0.1653
 2173TIP3   OH228009   1.218   3.988   2.686  0.0713 -0.2504 -0.7062
 2173TIP3    H128010   1.128   3.997   2.717  0.8790  0.8250  1.5399
 2173TIP3    H228011   1.270   3.978   2.765  2.1005  0.8016 -1.8180
 2174TIP3   OH228012   3.673   1.240   1.315  0.4018  0.5283  0.3941
 2174TIP3    H128013   3.660   1.146   1.324 -0.7290  0.4617 -1.4775
 2174TIP3    H228014   3.585   1.277   1.314  0.8049  1.5340  0.3160
 2175TIP3   OH228015   0.762   5.648   3.899 -0.3315  0.2589  0.3695
 2175TIP3    H128016   0.798   5.735   3.886  0.5824 -0.1801 -0.1215
 2175TIP3    H228017   0.838   5.590   3.905 -0.8462 -0.2784  2.5877
 2176TIP3   OH228018   1.907   0.670   3.459  0.2706 -0.6782  0.0641
 2176TIP3    H128019   1.936   0.735   3.395  0.0074  1.2852  1.8200
 2176TIP3    H228020   1.812   0.676   3.458  0.2454 -1.0175  0.2536
 2177TIP3   OH228021   4.536   1.891  12.649 -0.1063  0.6005  0.1528
 2177TIP3    H128022   4.593   1.957  12.690  0.4355 -0.4817  1.1921
 2177TIP3    H228023   4.521   1.827  12.718  0.6597 -1.1983 -1.2682
 2178TIP3   OH228024   5.133   4.595   3.366  0.6696  0.0804 -0.0052
 2178TIP3    H128025   5.062   4.532   3.379  0.4979 -0.2240 -2.1108
 2178TIP3    H228026   5.188   4.585   3.444 -0.2596 -1.4448  0.5048
 2179TIP3   OH228027   2.280   4.220   0.713  0.1014 -0.4409  0.3481
 2179TIP3    H128028   2.332   4.296   0.741  0.3933 -0.5346  0.0694
 2179TIP3    H228029   2.296   4.214   0.619  0.1810 -0.9266  0.3924
 2180TIP3   OH228030   1.578   2.758   1.370  0.5936 -0.4519  0.1302
 2180TIP3    H128031   1.514   2.754   1.441 -0.3722 -0.7250 -0.7352
 2180TIP3    H228032   1.663   2.750   1.413 -0.0300 -2.4682  1.0919
 2181TIP3   OH228033   4.739   5.475   3.249 -0.5580  0.0287  0.0639
 2181TIP3    H128034   4.654   5.506   3.282 -0.5048  0.9056 -0.5924
 2181TIP3    H228035   4.794   5.553   3.250 -0.1549 -0.2401 -0.7821
 2182TIP3   OH228036   3.795   0.794   1.854  0.0903  0.3845 -0.4040
 2182TIP3    H128037   3.824   0.713   1.894 -0.8244  0.7341  1.0277
 2182TIP3    H228038   3.872   0.852   1.858  0.6228 -0.2530 -1.0839
 2183TIP3   OH228039   2.564   4.376   3.544 -0.1546 -0.2728 -0.3367
 2183TIP3    H128040   2.527   4.334   3.466  1.5677  2.5826 -2.9280
 2183TIP3    H228041   2.523   4.462   3.546 -0.1535 -0.2787  2.0042
 2184TIP3   OH228042   3.154   1.236  13.276 -0.1784 -0.0751  0.7923
 2184TIP3    H128043   3.191   1.187  13.203 -1.1691  0.6828 -0.2443
 2184TIP3    H228044   3.203   1.318  13.277 -2.0015  1.1236 -0.8668
 2185TIP3   OH228045   4.721   3.842  13.049  0.0624  0.1004  0.3352
 2185TIP3    H128046   4.808   3.883  13.056  0.2020 -0.2919  0.9504
 2185TIP3    H228047   4.663   3.899  13.098  0.2615 -0.4235  1.2137
 2186TIP3   OH228048   5.986   3.529   3.593 -0.2634  0.4669 -0.1672
 2186TIP3    H128049   5.917   3.488   3.645  0.6123  0.0335  0.7004
 2186TIP3    H228050   6.002   3.467   3.521 -0.0861  0.0753  0.2044
 2187TIP3   OH228051   0.928   2.276   3.441  0.3756  0.1594  0.9345
 2187TIP3    H128052   0.872   2.251   3.367 -0.1411  2.2850  0.5353
 2187TIP3    H228053   0.936   2.371   3.433  0.9607  0.3380  3.1689
 2188TIP3   OH228054   5.633   0.897   4.526 -0.2161 -0.0840  0.1165
 2188TIP3    H128055   5.540   0.919   4.531 -0.3129 -0.7094  1.7791
 2188TIP3    H228056   5.642   0.822   4.583  0.7861 -2.0395 -2.4285
 2189TIP3   OH228057   0.702   1.320  16.060  0.3018  0.5762  0.0213
 2189TIP3    H128058   0.788   1.355  16.034  0.3853  0.2757 -0.1050
 2189TIP3    H228059   0.652   1.398  16.085  0.3314  0.8435 -0.7177
 2190TIP3   OH228060   1.631   0.724  13.243  0.0124 -0.7588  0.3518
 2190TIP3    H128061   1.548   0.770  13.255 -0.1745 -0.9984  0.0107
 2190TIP3    H228062   1.635   0.708  13.149 -0.2452 -2.0261  0.5456
 2191TIP3   OH228063   6.594   6.051   4.541 -0.0004 -0.3613  0.0693
 2191TIP3    H128064   6.637   6.130   4.510  0.7302 -0.2849  1.2334
 2191TIP3    H228065   6.519   6.083   4.592  0.7399 -0.3789  1.1931
 2192TIP3   OH228066   1.916   1.114  11.764  0.3684 -0.1960  0.5343
 2192TIP3    H128067   1.995   1.099  11.815  0.3541  1.4995  1.1471
 2192TIP3    H228068   1.850   1.057  11.804  1.0584 -0.9564  0.5913
 2193TIP3   OH228069   5.212   1.647   6.274  0.0928  0.2187 -0.6070
 2193TIP3    H128070   5.275   1.578   6.294  1.4168  1.7211  0.7328
 2193TIP3    H228071   5.149   1.645   6.346  0.3615  0.6473 -0.3556
 2194TIP3   OH228072   5.716   0.892   1.540 -0.0612  0.0332  0.6341
 2194TIP3    H128073   5.700   0.860   1.452  0.7978  2.0867 -0.3448
 2194TIP3    H228074   5.629   0.902   1.578 -0.5278  0.4590 -0.5103
 2195TIP3   OH228075   1.815   5.867  15.724 -0.1461  0.0902 -0.0682
 2195TIP3    H128076   1.856   5.862  15.810 -2.2071  0.4999  0.9750
 2195TIP3    H228077   1.769   5.784  15.714 -0.2294  0.1956 -0.6134
 2196TIP3   OH228078   1.923   4.732  14.880 -0.3849 -0.0638 -0.2685
 2196TIP3    H128079   1.938   4.644  14.915  0.3078  0.5643  1.0858
 2196TIP3    H228080   1.828   4.738  14.872 -0.5129 -0.5585  0.6933
 2197TIP3   OH228081   6.006   1.560  17.267  0.3445 -0.6251 -0.2372
 2197TIP3    H128082   5.990   1.481  17.215  0.4487 -0.8576  0.0788
 2197TIP3    H228083   5.972   1.539  17.354 -0.8601  0.1715 -0.4971
 2198TIP3   OH228084   0.124   5.298  16.161  0.8701  0.1173  0.4192
 2198TIP3    H128085   0.077   5.292  16.245  0.7316  0.2919  0.3564
 2198TIP3    H228086   0.157   5.210  16.146 -0.0127 -0.1759  0.1316
 2199TIP3   OH228087   2.340   2.495   6.336  0.1718 -0.8113 -0.3244
 2199TIP3    H128088   2.304   2.501   6.425  1.5501 -1.7943  0.3321
 2199TIP3    H228089   2.326   2.403   6.311  2.6799 -1.4221  0.2125
 2200TIP3   OH228090   0.623   5.599   5.459 -0.2610 -0.0581  0.0939
 2200TIP3    H128091   0.567   5.555   5.394 -0.7294 -0.9070  1.0523
 2200TIP3    H228092   0.712   5.574   5.434 -0.4798 -0.9471  0.1709
 2201TIP3   OH228093   1.674   1.498  14.115  0.3269 -0.3821  0.1852
 2201TIP3    H128094   1.580   1.492  14.096  0.5386 -2.1926 -0.5631
 2201TIP3    H228095   1.681   1.567  14.181 -1.5417 -0.2693  0.3255
 2202TIP3   OH228096   2.590   0.956   1.639 -0.1824  0.2857  0.1676
 2202TIP3    H128097   2.575   0.997   1.554  0.0533  0.1291  0.0506
 2202TIP3    H228098   2.503   0.950   1.678 -0.2040  1.0784  0.2674
 2203TIP3   OH228099   4.528   4.172  13.324  0.0180 -0.0052  0.2603
 2203TIP3    H128100   4.589   4.244  13.310  1.4620 -0.5154  3.2020
 2203TIP3    H228101   4.443   4.214  13.333 -0.0468  0.8046 -2.9724
 2204TIP3   OH228102   4.884   4.130  13.230 -0.4840 -0.1733 -0.3953
 2204TIP3    H128103   4.975   4.142  13.256 -0.7917  0.6480  0.3833
 2204TIP3    H228104   4.852   4.058  13.283 -0.7269  0.6093  0.5580
 2205TIP3   OH228105   1.598   3.790   1.339 -0.0089 -0.6135 -0.0102
 2205TIP3    H128106   1.582   3.752   1.253  2.6102 -1.0431 -0.3905
 2205TIP3    H228107   1.632   3.877   1.321 -0.6082 -0.2279  0.6622
 2206TIP3   OH228108   6.093   0.548  15.914 -0.0317 -0.0502 -0.2830
 2206TIP3    H128109   6.085   0.543  15.818  0.5677  0.5466 -0.3728
 2206TIP3    H228110   6.181   0.516  15.932 -0.3081 -0.5949  0.1139
 2207TIP3   OH228111   5.815   2.050   0.834  0.2362  0.0158  0.4121
 2207TIP3    H128112   5.856   2.014   0.912  1.2240 -0.2105 -0.1854
 2207TIP3    H228113   5.724   2.022   0.839  0.4308 -0.5160  1.1652
 2208TIP3   OH228114   0.495   5.921   2.452 -0.3777  0.8516  0.4496
 2208TIP3    H128115   0.561   5.906   2.384 -1.7814  0.9725 -1.0002
 2208TIP3    H228116   0.537   5.979   2.515  0.6960  1.3955 -0.7372
 2209TIP3   OH228117   1.643   0.222  13.565 -0.1755  0.3426 -0.8791
 2209TIP3    H128118   1.670   0.162  13.636 -0.4063 -0.5769 -1.5492
 2209TIP3    H228119   1.598   0.293  13.610  0.4065  0.1981 -0.0281
 2210TIP3   OH228120   0.100   5.965  11.845 -1.0167  0.7247 -0.1834
 2210TIP3    H128121   0.041   5.890  11.854  0.8660 -1.0768 -1.8190
 2210TIP3    H228122   0.055   6.024  11.786 -1.8742  0.1348 -0.1364
 2211TIP3   OH228123   1.303   3.126  16.214  0.0271  0.1537  0.1333
 2211TIP3    H128124   1.378   3.160  16.263 -0.6536 -0.2619  1.4845
 2211TIP3    H228125   1.342   3.095  16.132  0.8630  2.9291 -0.6355
 2212TIP3   OH228126   0.802   5.524  12.106  0.1059 -0.2393  0.5162
 2212TIP3    H128127   0.844   5.442  12.083  0.7954  0.4114 -0.6635
 2212TIP3    H228128   0.789   5.520  12.200  1.4498 -1.0881  0.6820
 2213TIP3   OH228129   0.158   6.292   4.068  0.0222 -0.2746  0.1931
 2213TIP3    H128130   0.241   6.340   4.066  0.0450 -0.3109  0.2649
 2213TIP3    H228131   0.182   6.203   4.094 -0.0775 -0.1994  0.5593
 2214TIP3   OH228132   4.569   3.443  14.524  0.2267  0.2282  0.1792
 2214TIP3    H128133   4.589   3.413  14.435  0.4500 -0.4216  0.4381
 2214TIP3    H228134   4.583   3.538  14.522 -0.7402  0.3559 -0.7343
 2215TIP3   OH228135   4.436   0.508  14.993 -0.1484  0.0048  0.7001
 2215TIP3    H128136   4.352   0.537  14.959  0.3483  1.0935  0.3520
 2215TIP3    H228137   4.501   0.552  14.939  0.6923 -2.3904 -0.3932
 2216TIP3   OH228138   2.703   6.146   1.782  0.2319  0.0386 -0.1741
 2216TIP3    H128139   2.723   6.064   1.737  2.5760 -0.0209  0.8509
 2216TIP3    H228140   2.641   6.121   1.851  0.6553 -0.8309 -0.0999
 2217TIP3   OH228141   1.659   0.534  16.996 -0.0712  1.0053 -0.1596
 2217TIP3    H128142   1.668   0.600  16.927 -1.0117  1.6561  0.3127
 2217TIP3    H228143   1.714   0.566  17.067  0.2210  0.7834 -0.2854
 2218TIP3   OH228144   3.605   5.054   0.724  0.4221 -0.5559 -0.3512
 2218TIP3    H128145   3.535   4.998   0.757 -1.1274  1.3216 -0.2989
 2218TIP3    H228146   3.680   4.996   0.715 -1.0248 -2.5595 -0.0454
 2219TIP3   OH228147   4.893   1.391   5.567  0.5716  0.4114  0.8598
 2219TIP3    H128148   4.806   1.357   5.547  0.9243 -0.0838  0.1495
 2219TIP3    H228149   4.948   1.313   5.576  1.2304  0.7470 -0.0751
 2220TIP3   OH228150   0.296   4.870  16.229  0.5282  0.1243 -0.1180
 2220TIP3    H128151   0.203   4.866  16.251  0.5548 -2.2030 -0.2064
 2220TIP3    H228152   0.334   4.924  16.298 -0.9803  1.8808 -0.5762
 2221TIP3   OH228153   3.034   5.178  11.936 -0.0189  0.6995  0.1647
 2221TIP3    H128154   2.960   5.135  11.977 -0.4733  1.4299  0.1248
 2221TIP3    H228155   3.016   5.172  11.842  0.0896  0.6607  0.1465
 2222TIP3   OH228156   4.010   4.355  16.808  0.7231 -0.4252 -0.3577
 2222TIP3    H128157   3.966   4.429  16.766  1.4532  1.2476  1.6803
 2222TIP3    H228158   3.939   4.303  16.846  0.1452 -1.2899 -2.4672
 2223TIP3   OH228159   2.604   6.081   5.774 -0.0998 -0.3968  0.2097
 2223TIP3    H128160   2.601   6.023   5.699 -2.2554  1.2046 -1.0420
 2223TIP3    H228161   2.514   6.085   5.806  0.3901  0.5655  1.6167
 2224TIP3   OH228162   2.266   6.407   2.782 -0.1577  0.4238  0.1219
 2224TIP3    H128163   2.319   6.455   2.846  0.3088  0.4272 -0.2612
 2224TIP3    H228164   2.280   6.454   2.700  0.9402 -0.8039 -0.4386
 2225TIP3   OH228165   5.640   3.416  16.497 -0.1335  0.0457 -0.5086
 2225TIP3    H128166   5.660   3.351  16.565 -1.1290  0.5483  0.2823
 2225TIP3    H228167   5.599   3.365  16.428 -0.1501 -0.3004 -0.2503
 2226TIP3   OH228168   2.880   3.595  14.557  0.2088 -0.4105 -0.1203
 2226TIP3    H128169   2.943   3.629  14.493  0.4215 -0.4858  0.0504
 2226TIP3    H228170   2.859   3.670  14.612 -2.3758  0.5411 -2.1763
 2227TIP3   OH228171   5.942   0.970   5.106 -0.2288 -0.3834 -0.4390
 2227TIP3    H128172   5.941   0.944   5.198 -0.1694  3.0996  0.7044
 2227TIP3    H228173   6.029   0.946   5.075  0.1996 -0.5253  0.8106
 2228TIP3   OH228174   2.373   2.756   5.391  0.8700  0.3409  0.3329
 2228TIP3    H128175   2.339   2.667   5.388 -0.9762  1.0237 -2.1834
 2228TIP3    H228176   2.440   2.759   5.323 -0.8973  1.4749 -1.4454
 2229TIP3   OH228177   6.035   0.704  11.397  0.2205 -0.5648  0.0202
 2229TIP3    H128178   6.105   0.653  11.356  0.0547  0.2709 -1.3599
 2229TIP3    H228179   5.961   0.695  11.337 -0.9267 -1.4936  1.4849
 2230TIP3   OH228180   3.680   5.541   3.343 -0.3912  0.8302 -0.6028
 2230TIP3    H128181   3.596   5.585   3.354 -0.3907  1.0360 -1.3825
 2230TIP3    H228182   3.705   5.558   3.252 -0.5144 -1.0126 -1.0152
 2231TIP3   OH228183   1.853   1.338  12.573  0.9221 -0.1821 -0.3099
 2231TIP3    H128184   1.928   1.281  12.590  0.6885 -0.5822 -0.6117
 2231TIP3    H228185   1.812   1.349  12.659 -0.0441 -1.9025 -0.5125
 2232TIP3   OH228186   2.373   1.089   5.345 -0.0055 -0.2318 -0.2585
 2232TIP3    H128187   2.459   1.104   5.383 -0.5033  1.3357  0.3517
 2232TIP3    H228188   2.314   1.087   5.421 -0.5147 -1.3058 -0.6644
 2233TIP3   OH228189   2.621   0.278   4.512  0.0107  0.1938  0.4691
 2233TIP3    H128190   2.665   0.225   4.445  0.1372  0.5348  0.2837
 2233TIP3    H228191   2.592   0.356   4.466  1.9896  1.4555  1.2530
 2234TIP3   OH228192   3.984   0.911  12.566  0.2497 -0.6980  0.3987
 2234TIP3    H128193   4.027   0.968  12.629  0.6812 -1.5490  0.8919
 2234TIP3    H228194   3.891   0.934  12.572  0.4222 -0.0257  0.5539
 2235TIP3   OH228195   1.104   4.528  12.251 -0.2117 -0.8326 -0.0718
 2235TIP3    H128196   1.199   4.539  12.245 -0.2435 -1.3560 -2.5086
 2235TIP3    H228197   1.072   4.552  12.164 -2.0803 -2.6874  0.0371
 2236TIP3   OH228198   0.470   3.383  17.105 -0.3036 -0.3605  0.0946
 2236TIP3    H128199   0.429   3.469  17.109  0.2548 -0.0744 -0.1961
 2236TIP3    H228200   0.397   3.321  17.107 -0.7391  0.1352 -0.2328
 2237TIP3   OH228201   6.354   1.649   2.262  0.3390 -0.6657 -0.3142
 2237TIP3    H128202   6.312   1.659   2.348  2.2485  1.7506  0.4700
 2237TIP3    H228203   6.423   1.585   2.277 -0.0280 -1.0626 -0.3264
 2238TIP3   OH228204   2.778   2.360   6.261  0.2904  0.8008  0.3430
 2238TIP3    H128205   2.788   2.345   6.355 -1.0273  2.5138  0.8029
 2238TIP3    H228206   2.708   2.300   6.235 -0.5278  1.5436  0.8171
 2239TIP3   OH228207   6.115   5.351  13.936 -0.2004  0.4643  0.3532
 2239TIP3    H128208   6.109   5.441  13.903 -1.9345  0.7493  1.3212
 2239TIP3    H228209   6.088   5.297  13.862 -1.7940  0.9455  0.5449
 2240TIP3   OH228210   1.238   0.203  14.832  0.4183  0.2056  0.1049
 2240TIP3    H128211   1.298   0.133  14.807 -0.5606 -1.4993  2.1772
 2240TIP3    H228212   1.161   0.190  14.776  0.8576  0.6381 -0.6096
 2241TIP3   OH228213   5.560   2.257   1.843  0.0670 -0.1224  0.3270
 2241TIP3    H128214   5.514   2.325   1.795  0.7081 -1.9750 -3.2377
 2241TIP3    H228215   5.505   2.240   1.920 -0.5767  3.6085  0.8966
 2242TIP3   OH228216   0.977   6.654  14.950  0.1325  0.0200  0.1218
 2242TIP3    H128217   0.911   6.646  14.881  2.3372 -1.1068 -1.9788
 2242TIP3    H228218   1.043   6.589  14.928  2.0408  1.1570  2.0893
 2243TIP3   OH228219   1.536   5.143   0.125 -0.0449 -0.4899  0.0136
 2243TIP3    H128220   1.469   5.169   0.061 -2.2772 -1.0908  1.9753
 2243TIP3    H228221   1.528   5.207   0.195  1.0764 -0.9242  0.5596
 2244TIP3   OH228222   0.759   1.862  17.148 -0.5729  0.4316 -0.7100
 2244TIP3    H128223   0.842   1.907  17.165 -0.5016  0.3753 -0.9100
 2244TIP3    H228224   0.778   1.804  17.075  0.0481 -1.9130  1.1995
 2245TIP3   OH228225   3.239   3.756   1.993  0.0068 -0.1669 -0.1394
 2245TIP3    H128226   3.151   3.744   2.028 -1.3500  2.1506 -2.4323
 2245TIP3    H228227   3.231   3.830   1.933  3.0163 -1.3456 -2.2009
 2246TIP3   OH228228   2.336   4.312   1.894  0.8922 -0.6017  0.3197
 2246TIP3    H128229   2.243   4.299   1.877  0.8419  0.0941  0.0501
 2246TIP3    H228230   2.376   4.315   1.807  1.2452 -1.4035  0.4435
 2247TIP3   OH228231   2.663   6.164   4.462 -0.1484  0.2977 -0.0460
 2247TIP3    H128232   2.582   6.171   4.513  0.4160 -0.9949  1.1068
 2247TIP3    H228233   2.691   6.073   4.474  1.2924  0.6264 -0.6869
 2248TIP3   OH228234   2.531   0.194  13.058 -0.1045  0.3797 -0.2966
 2248TIP3    H128235   2.494   0.126  13.001 -0.9492 -0.7217  1.4538
 2248TIP3    H228236   2.465   0.263  13.058  0.5706  1.0531 -1.7698
 2249TIP3   OH228237   0.719   0.557  11.445  0.7643  0.2089 -0.6391
 2249TIP3    H128238   0.812   0.541  11.427  0.4479 -2.8310 -0.1510
 2249TIP3    H228239   0.674   0.521  11.369 -0.0931 -2.4372  0.9613
 2250TIP3   OH228240   0.654   4.247  11.646  0.1279 -0.0736 -0.1395
 2250TIP3    H128241   0.681   4.157  11.664 -1.6112 -0.4532  0.7910
 2250TIP3    H228242   0.660   4.292  11.731  1.9711  1.0054 -0.7841
 2251TIP3   OH228243   2.599   5.254  11.915 -0.4176  0.7853 -0.2344
 2251TIP3    H128244   2.561   5.341  11.909  0.1447  1.0654  0.2067
 2251TIP3    H228245   2.694   5.269  11.916 -0.3246  0.2042  0.3150
 2252TIP3   OH228246   5.525   0.206  13.803 -0.0166  0.3948  0.4482
 2252TIP3    H128247   5.613   0.202  13.840  0.6052  0.6255 -0.9674
 2252TIP3    H228248   5.529   0.151  13.725 -1.6204 -1.0096  1.2783
 2253TIP3   OH228249   5.609   2.591   1.567  0.6930 -0.1094 -0.1617
 2253TIP3    H128250   5.641   2.681   1.574  0.0029  0.0753  1.0115
 2253TIP3    H228251   5.537   2.596   1.504  0.1472  0.3237  0.4845
 2254TIP3   OH228252   2.461   2.648   1.824  0.5397  0.3702 -0.2528
 2254TIP3    H128253   2.505   2.641   1.739  0.1387 -2.0222 -0.3235
 2254TIP3    H228254   2.452   2.742   1.839  3.0970  0.8854 -1.5495
 2255TIP3   OH228255   1.770   4.868  12.572  0.1694 -0.2895 -0.2024
 2255TIP3    H128256   1.832   4.933  12.539 -0.1609 -0.9746 -2.2814
 2255TIP3    H228257   1.809   4.784  12.550  0.2202 -0.8488  1.7811
 2256TIP3   OH228258   3.223   4.212   4.975 -0.0999 -0.2885  0.6630
 2256TIP3    H128259   3.219   4.308   4.977  0.3692 -0.2672  1.0050
 2256TIP3    H228260   3.132   4.184   4.984 -0.5068  0.1240 -1.7080
 2257TIP3   OH228261   5.788   6.515   0.318 -0.0580  0.2973 -0.2409
 2257TIP3    H128262   5.835   6.547   0.396 -1.8460 -1.1059  1.5312
 2257TIP3    H228263   5.767   6.594   0.268 -0.3196  1.4630  1.6007
 2258TIP3   OH228264   4.821   5.145   3.536  0.6094 -0.3971 -0.0997
 2258TIP3    H128265   4.899   5.158   3.481  1.3577 -0.5539  0.8982
 2258TIP3    H228266   4.765   5.220   3.516  1.4901  0.2919 -0.0620
 2259TIP3   OH228267   4.041   0.243   3.225 -0.4481  0.2232  0.1773
 2259TIP3    H128268   3.967   0.265   3.168 -0.9235 -1.8317 -0.0872
 2259TIP3    H228269   4.007   0.255   3.313 -0.7182  0.4112  0.0516
 2260TIP3   OH228270   4.608   6.525   0.868  0.4533 -0.0917 -0.1163
 2260TIP3    H128271   4.689   6.510   0.916  0.9951 -0.0120 -0.9816
 2260TIP3    H228272   4.550   6.569   0.931  2.5249  3.7687 -0.6049
 2261TIP3   OH228273   2.652   0.790  16.373 -0.1129  0.7698 -0.1639
 2261TIP3    H128274   2.588   0.726  16.405 -0.4067 -0.9476 -3.6853
 2261TIP3    H228275   2.601   0.852  16.321  0.7103  1.1009 -0.6094
 2262TIP3   OH228276   1.032   5.937  12.201 -0.1309  0.1244 -0.3468
 2262TIP3    H128277   1.088   5.886  12.143  0.0984 -1.7218  1.4071
 2262TIP3    H228278   0.970   5.981  12.142  0.2368 -1.4688 -1.9978
 2263TIP3   OH228279   1.355   5.363   3.788  0.6477  0.3882 -0.6725
 2263TIP3    H128280   1.292   5.309   3.741  0.3919  0.9891 -1.0349
 2263TIP3    H228281   1.325   5.361   3.879 -0.8138  1.8862 -1.0680
 2264TIP3   OH228282   0.222   0.159  12.707  0.3996 -0.1685  0.2556
 2264TIP3    H128283   0.311   0.132  12.682  0.2906 -1.8419  1.4922
 2264TIP3    H228284   0.174   0.077  12.716  0.0105  0.2939  4.1811
 2265TIP3   OH228285   5.211   3.450   6.411  0.6099 -0.5819  0.5344
 2265TIP3    H128286   5.134   3.505   6.396  1.4011  0.4605  0.1410
 2265TIP3    H228287   5.253   3.488   6.488  2.6289  1.1486 -1.2757
 2266TIP3   OH228288   2.315   3.489  11.729 -0.0208  0.0106  0.1147
 2266TIP3    H128289   2.267   3.560  11.686  0.6279  0.6509  0.4076
 2266TIP3    H228290   2.251   3.419  11.740 -1.0065  0.9918  0.8833
 2267TIP3   OH228291   2.088   2.716   4.366  0.9201  0.4197  0.3331
 2267TIP3    H128292   2.137   2.636   4.345  1.2348  0.3163  1.4011
 2267TIP3    H228293   1.997   2.687   4.374  0.6811  0.5693 -1.4151
 2268TIP3   OH228294   1.237   3.823  13.732  0.6697 -0.4273 -0.5347
 2268TIP3    H128295   1.151   3.863  13.721  0.8324  0.4603  1.1539
 2268TIP3    H228296   1.288   3.888  13.779  1.0249 -2.4622  2.0849
 2269TIP3   OH228297   2.533   3.628   2.525 -0.2499 -0.2047  0.0084
 2269TIP3    H128298   2.595   3.564   2.561  0.0373  0.1053  0.0704
 2269TIP3    H228299   2.477   3.651   2.599  0.6383  0.7881  0.4056
 2270TIP3   OH228300   5.410   2.279   4.708 -0.3611 -0.2188  0.0912
 2270TIP3    H128301   5.452   2.207   4.755 -2.3100 -1.0759  0.6165
 2270TIP3    H228302   5.389   2.243   4.622 -0.2097  0.1302 -0.0941
 2271TIP3   OH228303   1.204   2.274   3.238 -0.0036  0.2686  0.5523
 2271TIP3    H128304   1.123   2.255   3.286  0.4247 -2.4943  0.3662
 2271TIP3    H228305   1.267   2.210   3.271  1.2413  0.3977 -1.4050
 2272TIP3   OH228306   3.873   3.667  13.741 -0.0885 -0.0417 -0.1985
 2272TIP3    H128307   3.952   3.676  13.687 -0.4743 -0.3675 -0.8112
 2272TIP3    H228308   3.800   3.673  13.680 -0.5140 -1.2034  0.1784
 2273TIP3   OH228309   2.564   0.656   4.967 -0.6871  0.2302  0.3847
 2273TIP3    H128310   2.506   0.730   4.987  0.2606  1.4262 -1.0584
 2273TIP3    H228311   2.651   0.688   4.992 -0.2041 -0.2146 -0.6894
 2274TIP3   OH228312   1.046   3.580   3.432 -0.5418  0.1095  0.4281
 2274TIP3    H128313   1.082   3.635   3.501 -1.8359  2.8863 -0.9156
 2274TIP3    H228314   0.951   3.584   3.444 -0.7544 -0.1313 -0.9043
 2275TIP3   OH228315   4.635   3.212   4.749  0.0626  0.4403 -0.9160
 2275TIP3    H128316   4.548   3.183   4.721 -0.3581  0.1633  0.5825
 2275TIP3    H228317   4.628   3.308   4.752 -0.6364  0.3743  0.4600
 2276TIP3   OH228318   1.551   0.240  16.592 -0.8545  0.1081  0.0956
 2276TIP3    H128319   1.553   0.164  16.649  0.7765  1.0959  1.4294
 2276TIP3    H228320   1.617   0.299  16.627 -3.6748  3.2504  0.6690
 2277TIP3   OH228321   3.931   3.692   0.259  0.6556  0.3517  0.6830
 2277TIP3    H128322   3.922   3.711   0.166 -1.6140 -2.9039  0.0533
 2277TIP3    H228323   3.876   3.757   0.302 -1.2176 -0.2789 -0.6398
 2278TIP3   OH228324   3.047   6.148  16.856 -0.3498  0.2657 -0.6741
 2278TIP3    H128325   3.110   6.190  16.915  1.2272 -1.7870 -0.7483
 2278TIP3    H228326   3.074   6.174  16.768  0.0208 -0.0765 -0.6676
 2279TIP3   OH228327   3.594   1.392  15.111 -0.2298 -0.5360 -0.4711
 2279TIP3    H128328   3.499   1.383  15.124 -0.3346  0.9741 -0.0523
 2279TIP3    H228329   3.604   1.397  15.016 -0.3003 -2.9464 -0.6849
 2280TIP3   OH228330   5.064   2.001  14.285 -0.1067  0.1662  0.5144
 2280TIP3    H128331   5.127   2.057  14.239 -0.7675  0.0871 -0.5235
 2280TIP3    H228332   5.073   1.915  14.244 -1.6552  0.4229 -0.4342
 2281TIP3   OH228333   1.265   3.931   2.377 -0.0781  0.4236 -0.2741
 2281TIP3    H128334   1.241   3.902   2.465  1.6062  0.9065  0.3743
 2281TIP3    H228335   1.301   4.019   2.390  1.8776 -0.2041 -1.1837
 2282TIP3   OH228336   1.360   6.538  17.496 -0.3455  0.1166  0.4058
 2282TIP3    H128337   1.388   6.556  17.586 -1.1723  0.8306  0.5357
 2282TIP3    H228338   1.276   6.494  17.505  0.1666 -0.9665 -0.0034
 2283TIP3   OH228339   3.957   4.111  14.426  0.3141  0.2928 -0.5528
 2283TIP3    H128340   3.897   4.037  14.423 -1.1751  1.4705 -1.4637
 2283TIP3    H228341   3.978   4.130  14.335  1.0916  0.6771 -0.3095
 2284TIP3   OH228342   3.202   0.637   0.197 -0.6505  0.3838 -0.0123
 2284TIP3    H128343   3.272   0.576   0.215  0.9847  1.8553 -1.0641
 2284TIP3    H228344   3.148   0.636   0.275 -1.1039 -2.8529 -0.2476
 2285TIP3   OH228345   2.565   5.913  12.197  0.7501 -0.2745  0.0399
 2285TIP3    H128346   2.602   5.888  12.112  1.8997  0.2361  0.3703
 2285TIP3    H228347   2.641   5.931  12.252  0.0605 -1.5106  1.4833
 2286TIP3   OH228348   0.212   4.284  14.734 -0.6645  0.6321  0.1249
 2286TIP3    H128349   0.227   4.378  14.726  0.3216  0.3992 -1.2218
 2286TIP3    H228350   0.142   4.266  14.670  1.2281  0.0488 -1.9172
 2287TIP3   OH228351   5.928   0.293  10.631  0.3211 -0.2538 -0.4652
 2287TIP3    H128352   5.900   0.220  10.575 -1.9762  0.0169  0.2204
 2287TIP3    H228353   5.983   0.252  10.698 -3.5355 -2.1322  1.9271
 2288TIP3   OH228354   5.201   1.811   1.501 -0.1644 -0.0784  0.1796
 2288TIP3    H128355   5.147   1.890   1.492  0.0246  0.2075  1.3026
 2288TIP3    H228356   5.263   1.833   1.572 -0.0902 -1.2226  0.4899
 2289TIP3   OH228357   1.772   2.910  13.200  0.6490  0.0031  1.2498
 2289TIP3    H128358   1.735   2.865  13.123 -0.3493  1.2405  0.9613
 2289TIP3    H228359   1.845   2.961  13.165  1.2155 -0.6852  1.4180
 2290TIP3   OH228360   1.809   2.084  15.694 -0.2617  0.2266  0.4342
 2290TIP3    H128361   1.840   2.136  15.619  1.9739  0.3704  1.3769
 2290TIP3    H228362   1.822   2.142  15.769 -2.7056  0.1772  0.9721
 2291TIP3   OH228363   2.671   3.728  13.006 -0.5367 -0.6657 -0.1930
 2291TIP3    H128364   2.614   3.748  13.080 -1.3824 -0.1050 -0.9708
 2291TIP3    H228365   2.640   3.785  12.935  3.5584  2.8968  0.4214
 2292TIP3   OH228366   2.156   6.250   4.741  0.4370  0.5398 -0.3409
 2292TIP3    H128367   2.166   6.161   4.708 -1.0000 -0.0472  0.7119
 2292TIP3    H228368   2.076   6.282   4.700 -2.2000 -0.7023  3.3718
 2293TIP3   OH228369   6.048   2.862  14.338 -0.1031  0.3438 -1.3184
 2293TIP3    H128370   5.960   2.824  14.343  0.6990 -1.5834 -0.7046
 2293TIP3    H228371   6.037   2.941  14.285 -2.3026  0.5147 -0.7312
 2294TIP3   OH228372   5.186   1.626   3.607  0.4609 -0.1877  0.0397
 2294TIP3    H128373   5.094   1.612   3.584  0.6898  1.3932 -2.1055
 2294TIP3    H228374   5.182   1.675   3.690 -0.6478  0.3003 -0.2842
 2295TIP3   OH228375   0.938   5.189   2.518 -0.5438  0.1136  0.2210
 2295TIP3    H128376   0.997   5.152   2.584  2.0811  5.0828  1.1728
 2295TIP3    H228377   0.859   5.213   2.566 -0.4157 -0.1849  0.5788
 2296TIP3   OH228378   3.470   3.476  12.266 -0.1506  0.1453 -0.2166
 2296TIP3    H128379   3.507   3.389  12.259 -0.9670 -0.1550 -0.9932
 2296TIP3    H228380   3.473   3.496  12.359 -0.4301 -0.9194  0.0290
 2297TIP3   OH228381   3.904   4.941  14.052 -0.3373  0.4754 -0.0709
 2297TIP3    H128382   3.834   4.995  14.089 -0.7863 -0.8158  1.0849
 2297TIP3    H228383   3.983   4.969  14.099 -0.7643 -0.5828  1.3873
 2298TIP3   OH228384   6.310   1.428   1.747 -0.4344  0.0866  0.4880
 2298TIP3    H128385   6.300   1.501   1.807 -0.5741  1.3702 -1.0370
 2298TIP3    H228386   6.252   1.360   1.782 -0.1530  0.6096  2.0379
 2299TIP3   OH228387   2.098   2.232  14.605  0.0600 -0.4274 -0.3988
 2299TIP3    H128388   2.135   2.318  14.584  1.3147 -0.8092  0.1396
 2299TIP3    H228389   2.174   2.178  14.625 -0.7863 -1.3329  0.4779
 2300TIP3   OH228390   4.884   6.732  12.420 -0.0913 -0.1079 -0.0544
 2300TIP3    H128391   4.880   6.690  12.505 -0.2312 -0.5491 -0.2770
 2300TIP3    H228392   4.792   6.744  12.394 -0.0450 -0.3901 -0.3475
 2301TIP3   OH228393   3.331   0.419   4.337  0.1169  0.5491 -0.0671
 2301TIP3    H128394   3.358   0.431   4.428 -0.6264 -0.0064  0.2424
 2301TIP3    H228395   3.305   0.507   4.308  1.2787  0.9103 -0.0685
 2302TIP3   OH228396   4.459   5.067  16.458 -0.7282  0.1481 -0.0894
 2302TIP3    H128397   4.502   5.148  16.431 -1.4191  0.2262 -1.0219
 2302TIP3    H228398   4.528   5.016  16.501 -0.3082  1.2516  0.5639
 2303TIP3   OH228399   2.322   0.089  11.415  0.5388  0.2284 -0.4709
 2303TIP3    H128400   2.329   0.148  11.490  3.2619  0.0880 -0.5048
 2303TIP3    H228401   2.295   0.005  11.452 -1.6371  0.9847 -0.1951
 2304TIP3   OH228402   3.921   5.331   0.419 -0.0564  0.4271  0.3969
 2304TIP3    H128403   3.871   5.367   0.492 -0.1791  1.0897 -0.0053
 2304TIP3    H228404   4.006   5.309   0.456 -0.4413 -0.1694  0.9561
 2305TIP3   OH228405   5.594   2.261   4.338  0.1978 -0.4141 -0.3945
 2305TIP3    H128406   5.676   2.248   4.290 -0.2772 -0.4336 -1.2115
 2305TIP3    H228407   5.621   2.271   4.429  1.1582  0.1108 -0.7221
 2306TIP3   OH228408   5.605   3.328  11.058 -0.8198  0.1371  0.0745
 2306TIP3    H128409   5.546   3.254  11.076 -2.5172  1.5594  0.7218
 2306TIP3    H228410   5.689   3.288  11.039 -1.7901 -1.9788 -0.0521
 2307TIP3   OH228411   5.760   0.033   4.945 -0.2125  0.1229  0.2769
 2307TIP3    H128412   5.800  -0.020   4.876  0.2318  0.3542  0.3570
 2307TIP3    H228413   5.671   0.050   4.913 -0.0366  0.1591 -0.2037
 2308TIP3   OH228414   1.499   6.364   2.023  0.0740  0.0545  0.0857
 2308TIP3    H128415   1.557   6.346   2.096  0.5459 -0.6931 -0.4543
 2308TIP3    H228416   1.451   6.442   2.049  0.8288  0.2862  0.8323
 2309TIP3   OH228417   4.706   4.964   2.727  0.3924 -0.4166 -0.7542
 2309TIP3    H128418   4.665   5.028   2.787  2.0930  1.1168 -1.1379
 2309TIP3    H228419   4.637   4.942   2.665 -1.0732 -1.1425  1.0411
 2310TIP3   OH228420   3.116   1.692   0.242 -0.0884  0.2789  0.2199
 2310TIP3    H128421   3.158   1.680   0.328  1.3068  0.2079 -0.4415
 2310TIP3    H228422   3.179   1.655   0.180 -1.1318  0.2346 -0.8306
 2311TIP3   OH228423   0.767   3.640   0.538  0.0832  0.0088  0.5564
 2311TIP3    H128424   0.820   3.584   0.482 -1.1691 -0.7427  0.0827
 2311TIP3    H228425   0.830   3.687   0.592  1.2102 -0.9585  0.1133
 2312TIP3   OH228426   6.183   5.733   6.250  0.2326  0.3280 -0.6173
 2312TIP3    H128427   6.190   5.643   6.284 -1.3384 -0.0439 -1.2088
 2312TIP3    H228428   6.217   5.787   6.321 -0.1602 -0.6436  0.3449
 2313TIP3   OH228429   1.639   4.722  14.081 -0.0123  0.3332 -0.4474
 2313TIP3    H128430   1.605   4.690  14.165  1.1512  0.7156  0.1944
 2313TIP3    H228431   1.599   4.664  14.016 -1.6468  0.6002  0.2760
 2314TIP3   OH228432   1.970   4.724  13.578  0.4041  0.8770 -0.0491
 2314TIP3    H128433   2.019   4.643  13.566 -0.3932  0.5745 -1.4658
 2314TIP3    H228434   1.887   4.709  13.533 -1.3739  1.0903  2.8916
 2315TIP3   OH228435   5.863   1.821  15.796  0.6224 -0.0727  0.0470
 2315TIP3    H128436   5.946   1.788  15.762  1.0537  1.2074 -0.1729
 2315TIP3    H228437   5.882   1.844  15.887  0.0995 -1.1939  0.4596
 2316TIP3   OH228438   0.891   3.649  13.979  0.7272  0.0632  0.0525
 2316TIP3    H128439   0.861   3.681  13.893  0.5003 -1.3684 -0.4320
 2316TIP3    H228440   0.904   3.729  14.031 -0.3641  0.9149 -0.9043
 2317TIP3   OH228441   4.650   0.383   1.951 -0.0103  0.6190  0.0986
 2317TIP3    H128442   4.597   0.462   1.944 -0.0009  0.5571 -0.8475
 2317TIP3    H228443   4.647   0.345   1.863 -1.3361 -1.3103  0.9372
 2318TIP3   OH228444   4.177   2.542  12.482 -0.0488  0.1670 -0.0740
 2318TIP3    H128445   4.228   2.571  12.558  1.3664  0.7361 -1.1912
 2318TIP3    H228446   4.086   2.556  12.507  0.2616 -1.3956  2.2050
 2319TIP3   OH228447   6.298   3.326   0.635 -0.2016  0.4404  0.4320
 2319TIP3    H128448   6.342   3.280   0.563 -0.4880  0.9591 -0.0842
 2319TIP3    H228449   6.319   3.418   0.620  0.2720  0.4935  1.3937
 2320TIP3   OH228450   5.719   3.164   6.660  0.3849 -0.1456 -0.2544
 2320TIP3    H128451   5.656   3.234   6.674  0.6412  0.1924 -0.7372
 2320TIP3    H228452   5.748   3.139   6.747  0.9216  0.9463 -0.1059
 2321TIP3   OH228453   0.453   2.843  14.801  0.0950  0.0006  0.1545
 2321TIP3    H128454   0.508   2.794  14.862 -1.1357 -0.7717  0.6821
 2321TIP3    H228455   0.364   2.812  14.818 -0.6604  1.9726  0.0683
 2322TIP3   OH228456   6.489   6.336  17.364 -0.1403 -0.3248  0.3114
 2322TIP3    H128457   6.536   6.305  17.442  1.8926 -0.8630 -1.0593
 2322TIP3    H228458   6.543   6.406  17.330 -1.7986  0.9441  0.1745
 2323TIP3   OH228459   4.466   4.527  16.449 -0.1880 -0.6025  0.2527
 2323TIP3    H128460   4.535   4.591  16.434 -1.8227  1.0505 -0.5443
 2323TIP3    H228461   4.433   4.547  16.537  0.9915 -2.1004  1.0963
 2324TIP3   OH228462   6.098   4.526  11.962  0.5372 -0.4267  0.1151
 2324TIP3    H128463   6.142   4.446  11.932  1.6164  0.8791 -2.0762
 2324TIP3    H228464   6.024   4.536  11.902 -0.2800 -0.3537  1.1037
 2325TIP3   OH228465   2.348   4.231   1.632 -0.2474  0.1969 -0.1523
 2325TIP3    H128466   2.407   4.171   1.585 -1.3169 -0.1577 -1.0953
 2325TIP3    H228467   2.261   4.197   1.614 -0.8387  1.6357 -0.1085
 2326TIP3   OH228468   3.145   5.491  16.271 -0.4873 -0.3626 -0.1791
 2326TIP3    H128469   3.170   5.533  16.353 -2.6457 -1.5623  1.1985
 2326TIP3    H228470   3.208   5.420  16.260  0.2784  0.2752  0.0353
 2327TIP3   OH228471   1.203   3.199   5.232 -0.1821 -0.2918  0.1927
 2327TIP3    H128472   1.150   3.272   5.201 -1.6172 -1.4007 -0.0848
 2327TIP3    H228473   1.190   3.198   5.327  1.9968  1.4066  0.5792
 2328TIP3   OH228474   5.675   0.936   0.474 -0.3279 -0.2338  0.1886
 2328TIP3    H128475   5.704   0.899   0.391 -1.8252 -0.0828 -0.4356
 2328TIP3    H228476   5.751   0.982   0.508  0.4784 -0.7970 -0.8045
 2329TIP3   OH228477   6.351   6.092   3.631  0.5307  0.5526 -0.2159
 2329TIP3    H128478   6.332   6.172   3.584  0.8402  1.2472  0.7996
 2329TIP3    H228479   6.296   6.096   3.709 -0.0243 -0.6013 -0.5360
 2330TIP3   OH228480   4.874   3.649   6.050  0.0945  0.0766 -0.5331
 2330TIP3    H128481   4.847   3.568   6.093 -0.0409  0.6470  0.4879
 2330TIP3    H228482   4.948   3.680   6.102  0.5166  0.3022 -1.2661
 2331TIP3   OH228483   3.926   4.921   2.799 -0.2101 -0.0930 -0.1669
 2331TIP3    H128484   3.991   4.965   2.855  0.0960 -1.4631  0.6045
 2331TIP3    H228485   3.842   4.944   2.838 -0.1727  1.0414 -0.6980
 2332TIP3   OH228486   5.999   4.462   2.499  0.1727  0.2830 -0.1784
 2332TIP3    H128487   6.043   4.390   2.454  0.3903  0.2261  0.1227
 2332TIP3    H228488   5.907   4.438   2.500  0.0695  0.5729 -1.1440
 2333TIP3   OH228489   2.039   4.385   3.790  0.1809  0.1110 -0.0548
 2333TIP3    H128490   1.990   4.356   3.713  0.1046  1.0458 -0.3784
 2333TIP3    H228491   2.131   4.378   3.765  0.1505  2.0877 -0.9233
 2334TIP3   OH228492   5.369   4.384   5.190  0.3170  0.1188 -0.5568
 2334TIP3    H128493   5.311   4.361   5.117 -0.8135 -2.0725  0.9486
 2334TIP3    H228494   5.311   4.424   5.255  0.9083 -0.0048  0.0562
 2335TIP3   OH228495   1.351   3.969   2.958 -0.6100 -1.0157  0.9547
 2335TIP3    H128496   1.351   3.993   3.050  2.6842 -0.8578  1.0460
 2335TIP3    H228497   1.347   3.873   2.957  0.3092 -1.0719  1.3636
 2336TIP3   OH228498   3.259   0.174  12.835  0.6151  0.0683 -0.0206
 2336TIP3    H128499   3.188   0.145  12.893  0.6368 -0.4164 -0.2340
 2336TIP3    H228500   3.328   0.108  12.846  1.7670  1.4568  1.5224
 2337TIP3   OH228501   6.177   1.757   4.213 -0.5700  0.3615  0.0323
 2337TIP3    H128502   6.113   1.697   4.253  0.2259  0.9093  2.2957
 2337TIP3    H228503   6.229   1.788   4.287  1.3635  1.0869 -1.5598
 2338TIP3   OH228504   3.052   0.445  16.488  0.2939  0.4361 -0.2289
 2338TIP3    H128505   2.971   0.430  16.536 -0.4068  0.3265 -1.3982
 2338TIP3    H228506   3.097   0.514  16.537  0.2533 -0.5991  1.3067
 2339TIP3   OH228507   3.857   1.887   2.405 -0.6507 -0.6093  0.0586
 2339TIP3    H128508   3.806   1.927   2.334 -0.9816  0.0675  0.6597
 2339TIP3    H228509   3.832   1.795   2.404  1.1970 -1.1899 -2.2873
 2340TIP3   OH228510   0.712   0.605   6.777  0.2905  0.1910  0.4242
 2340TIP3    H128511   0.767   0.637   6.850  1.1437  0.6821 -0.4053
 2340TIP3    H228512   0.748   0.649   6.700  0.2378 -1.3208 -0.4849
 2341TIP3   OH228513   4.328   2.087   4.948  0.8288 -0.1338 -0.6177
 2341TIP3    H128514   4.293   1.999   4.931  2.8525 -1.2258  0.4244
 2341TIP3    H228515   4.314   2.100   5.041 -0.2645  1.0602 -0.9358
 2342TIP3   OH228516   4.770   4.666   3.448 -0.2930 -0.0704 -0.6420
 2342TIP3    H128517   4.800   4.577   3.465  1.6802  0.5298 -0.7233
 2342TIP3    H228518   4.799   4.716   3.524 -0.1536  0.7461 -1.2128
 2343TIP3   OH228519   1.896   4.649   0.814 -0.2480  0.0246 -0.5094
 2343TIP3    H128520   1.890   4.560   0.780 -0.2270 -0.9384  1.8223
 2343TIP3    H228521   1.810   4.667   0.851 -0.1655  0.8844 -0.7069
 2344TIP3   OH228522   2.464   1.489  12.541  0.1983  0.3379  0.5797
 2344TIP3    H128523   2.433   1.527  12.458  1.6979 -0.7057 -0.5287
 2344TIP3    H228524   2.398   1.514  12.605 -0.9116  1.3758 -0.8886
 2345TIP3   OH228525   1.930   4.683   5.042  0.8417 -0.1044 -0.2631
 2345TIP3    H128526   1.873   4.617   5.003  0.5864  0.9793 -1.7732
 2345TIP3    H228527   2.010   4.636   5.064  0.3334 -1.0935 -0.4900
 2346TIP3   OH228528   3.639   6.063  11.845  0.2037 -0.3590 -0.1178
 2346TIP3    H128529   3.731   6.039  11.837  0.3401 -0.3826  1.3398
 2346TIP3    H228530   3.592   5.980  11.845  0.2271 -0.3725 -0.1984
 2347TIP3   OH228531   5.074   0.273  12.999 -0.3389 -0.0388 -0.5264
 2347TIP3    H128532   5.030   0.347  13.041 -2.3168 -0.8950 -0.9953
 2347TIP3    H228533   5.103   0.217  13.071  0.6682  0.8853 -0.1908
 2348TIP3   OH228534   2.591   5.252   5.067 -0.0367  0.1735  0.1557
 2348TIP3    H128535   2.498   5.247   5.045 -0.1803  0.2091  0.7468
 2348TIP3    H228536   2.604   5.341   5.099  0.3060  0.3210 -0.3825
 2349TIP3   OH228537   0.496   5.785  14.763  0.2940  0.9271  0.3350
 2349TIP3    H128538   0.435   5.819  14.697  1.8500  3.4865  0.0788
 2349TIP3    H228539   0.444   5.723  14.814 -1.2448 -0.4940 -2.6706
 2350TIP3   OH228540   0.456   1.219  16.459 -0.3359  0.2027 -0.0153
 2350TIP3    H128541   0.463   1.294  16.401 -0.2699  0.2008 -0.0098
 2350TIP3    H228542   0.443   1.144  16.401 -1.7393  0.3825  0.0441
 2351TIP3   OH228543   3.167   2.339   0.594  0.9118 -0.2166  0.3147
 2351TIP3    H128544   3.188   2.426   0.627  1.0077  0.6005 -1.7380
 2351TIP3    H228545   3.119   2.355   0.513 -0.9141 -2.0929  0.9305
 2352TIP3   OH228546   4.313   2.974  12.933  0.1907  0.3902 -0.2104
 2352TIP3    H128547   4.394   2.927  12.914 -0.3423  0.2235 -2.3900
 2352TIP3    H228548   4.315   2.989  13.027  1.3543 -2.2091  0.2657
 2353TIP3   OH228549   5.593   4.574   2.038  0.7447  0.2520  0.4354
 2353TIP3    H128550   5.515   4.519   2.051  1.0985 -0.0069  1.5576
 2353TIP3    H228551   5.569   4.633   1.967  0.8549 -2.3105 -1.9130
 2354TIP3   OH228552   0.258   1.689  15.968 -0.0713  0.5480  0.3399
 2354TIP3    H128553   0.163   1.704  15.976 -0.3571 -0.8009 -0.2329
 2354TIP3    H228554   0.269   1.649  15.882  0.7719 -1.0546  1.1389
 2355TIP3   OH228555   5.774   4.588  17.317  0.2767  0.4659  0.1553
 2355TIP3    H128556   5.690   4.550  17.294  0.8936 -0.3216 -0.9103
 2355TIP3    H228557   5.812   4.617  17.234  1.3406  0.1913  0.5188
 2356TIP3   OH228558   1.238   4.957   6.290 -0.7572 -0.0947  0.0153
 2356TIP3    H128559   1.257   4.899   6.364  1.3471  2.1669  1.4370
 2356TIP3    H228560   1.157   5.002   6.316 -0.1621  0.5090  0.9242
 2357TIP3   OH228561   0.638   4.319  15.978 -0.2420  0.1139 -0.2061
 2357TIP3    H128562   0.658   4.242  15.926  1.1316  0.6781 -0.5666
 2357TIP3    H228563   0.587   4.286  16.052 -0.0803 -1.0603 -0.6019
 2358TIP3   OH228564   5.837   5.567   1.752  0.2395  0.1038  0.1609
 2358TIP3    H128565   5.808   5.479   1.780 -0.8520  0.3262 -0.2075
 2358TIP3    H228566   5.842   5.561   1.657 -0.5829  0.6368  0.0697
 2359TIP3   OH228567   6.694   4.473  15.221  0.1903 -0.3377 -0.2277
 2359TIP3    H128568   6.771   4.429  15.184 -0.1792 -0.6571 -0.6340
 2359TIP3    H228569   6.722   4.563  15.236  0.5763 -0.3978 -0.5769
 2360TIP3   OH228570   2.143   4.348  15.538  0.6809  0.1025 -0.2193
 2360TIP3    H128571   2.133   4.346  15.633  2.2053  0.0542 -0.0306
 2360TIP3    H228572   2.055   4.336  15.504  0.0026  0.8550  1.1913
 2361TIP3   OH228573   5.166   2.071  11.300  0.2807 -0.2814 -0.1163
 2361TIP3    H128574   5.202   2.120  11.225  0.3627 -0.2104 -0.0308
 2361TIP3    H228575   5.239   2.019  11.332  0.7646  1.0379  1.0455
 2362TIP3   OH228576   6.374   6.628   5.870 -0.5890 -0.7238  0.2338
 2362TIP3    H128577   6.385   6.544   5.915 -0.8055 -0.4431  0.8144
 2362TIP3    H228578   6.308   6.610   5.803 -1.9230 -0.6087  1.4776
 2363TIP3   OH228579   0.990   3.569   4.183  0.0169 -0.8605  0.3996
 2363TIP3    H128580   1.058   3.605   4.240  1.5651 -0.9589 -1.2810
 2363TIP3    H228581   0.951   3.645   4.141  0.5651 -0.9051 -0.2055
 2364TIP3   OH228582   6.317   2.482   0.048 -0.3843  0.3907 -0.4081
 2364TIP3    H128583   6.297   2.389   0.042 -1.7783  0.4986  1.5004
 2364TIP3    H228584   6.394   2.487   0.105  0.3395  0.3819 -1.3602
 2365TIP3   OH228585   6.330   1.956  13.861 -0.2715 -0.1866  0.4272
 2365TIP3    H128586   6.341   1.920  13.773  0.5038  0.0592  0.4141
 2365TIP3    H228587   6.309   2.049  13.847 -1.7208 -0.4817  0.4745
 2366TIP3   OH228588   0.463   5.779   0.070 -0.0375 -0.0149 -0.2315
 2366TIP3    H128589   0.462   5.683   0.072 -0.6828 -0.0242 -0.6020
 2366TIP3    H228590   0.483   5.805   0.160  0.7354 -0.4945 -0.2485
 2367TIP3   OH228591   6.113   1.471   2.763  0.2371 -0.2044  0.3036
 2367TIP3    H128592   6.026   1.511   2.775  0.5213  0.2455  0.9015
 2367TIP3    H228593   6.162   1.496   2.841  0.4171 -1.8055  0.7390
 2368TIP3   OH228594   1.826   3.613   3.156  0.3373  0.7952  0.2979
 2368TIP3    H128595   1.755   3.590   3.215 -0.1006  1.0174 -0.1354
 2368TIP3    H228596   1.875   3.681   3.201 -0.7739  1.9129 -0.1482
 2369TIP3   OH228597   3.716   3.471   2.340 -0.1746 -0.0405  0.6548
 2369TIP3    H128598   3.657   3.488   2.413 -1.2284  0.3958 -0.2627
 2369TIP3    H228599   3.658   3.439   2.270  0.8762 -0.9602  0.1814
 2370TIP3   OH228600   1.384   5.340   5.847  0.5898  0.9363 -0.3784
 2370TIP3    H128601   1.357   5.419   5.893  0.9946  0.9204 -0.1098
 2370TIP3    H228602   1.417   5.372   5.763 -1.4706  0.8540 -1.2727
 2371TIP3   OH228603   5.929   6.699   5.149 -0.3959  0.2445 -0.1945
 2371TIP3    H128604   5.856   6.734   5.097 -0.3784  1.7656  0.7427
 2371TIP3    H228605   5.936   6.608   5.121 -1.0595  0.7214 -2.0930
 2372TIP3   OH228606   2.943   5.727   3.392 -0.2865 -0.1112  0.6077
 2372TIP3    H128607   2.970   5.735   3.484  0.0852 -1.4634  0.6396
 2372TIP3    H228608   2.899   5.810   3.373  0.9008  0.7841  1.5663
 2373TIP3   OH228609   2.630   3.463   3.857 -0.0121  0.3088 -0.4645
 2373TIP3    H128610   2.697   3.523   3.825 -0.5102  1.4744  0.6027
 2373TIP3    H228611   2.639   3.466   3.953  0.0199 -1.4158 -0.3896
 2374TIP3   OH228612   6.223   6.681   2.545  0.2127  0.0259 -0.0462
 2374TIP3    H128613   6.281   6.683   2.470  0.3261  1.0214  0.0521
 2374TIP3    H228614   6.169   6.759   2.535 -0.4803 -0.3944  0.3543
 2375TIP3   OH228615   2.863   6.400   5.156  0.4169 -0.3703  0.2573
 2375TIP3    H128616   2.783   6.453   5.162  1.3079  1.1027 -0.1054
 2375TIP3    H228617   2.888   6.405   5.063  1.7608  0.5369  0.6370
 2376TIP3   OH228618   4.931   3.467   4.220 -0.2002 -0.0318 -0.2943
 2376TIP3    H128619   4.900   3.442   4.307  0.4850  1.5771  0.4565
 2376TIP3    H228620   4.859   3.516   4.181  0.3538  1.3267  0.3497
 2377TIP3   OH228621   3.284   0.294  11.825 -0.1218 -0.0441 -0.0141
 2377TIP3    H128622   3.266   0.220  11.767 -0.4722 -1.7167  2.0804
 2377TIP3    H228623   3.200   0.339  11.833 -0.3558 -0.4759  0.0310
 2378TIP3   OH228624   3.982   4.013   3.783 -0.0204  0.4723 -0.5651
 2378TIP3    H128625   3.973   4.099   3.742 -1.4712 -0.1652 -1.6862
 2378TIP3    H228626   3.904   3.965   3.755 -0.9141 -0.1866  2.6249
 2379TIP3   OH228627   2.167   4.573  13.971 -0.4606 -0.2891 -0.1104
 2379TIP3    H128628   2.239   4.560  13.909 -0.6906  0.4868 -0.5477
 2379TIP3    H228629   2.191   4.520  14.047  0.5379 -0.0913 -0.2768
 2380TIP3   OH228630   6.264   1.520   2.533  0.1605 -0.1171 -0.0349
 2380TIP3    H128631   6.186   1.549   2.485 -0.0037 -0.2669  0.1407
 2380TIP3    H228632   6.230   1.492   2.618  0.4772  0.3372  0.2418
 2381TIP3   OH228633   0.875   2.662   4.645 -0.0472  0.0340 -0.4122
 2381TIP3    H128634   0.967   2.655   4.671  0.3618  2.2953 -1.0485
 2381TIP3    H228635   0.834   2.715   4.714 -0.6270 -0.0817 -0.6618
 2382TIP3   OH228636   0.352   1.122   3.654 -0.4715  0.7964 -0.1019
 2382TIP3    H128637   0.272   1.174   3.650 -0.5205  0.7566  0.3164
 2382TIP3    H228638   0.421   1.180   3.622 -0.3821  1.4068  1.1354
 2383TIP3   OH228639   5.129   4.030   5.363  0.0116  0.3633  0.1172
 2383TIP3    H128640   5.136   4.072   5.278 -1.5887 -1.3683 -0.9648
 2383TIP3    H228641   5.166   3.942   5.350 -0.6537 -0.0807  1.0530
 2384TIP3   OH228642   5.734   2.163  17.406  0.1137  0.2605  0.0417
 2384TIP3    H128643   5.726   2.092  17.341  0.2027 -0.4170  0.7571
 2384TIP3    H228644   5.734   2.118  17.490  0.7550  1.0772  0.4875
 2385TIP3   OH228645   1.028   0.893   4.074  0.3228 -0.0159  0.5348
 2385TIP3    H128646   1.064   0.974   4.037 -1.8483  0.3025 -1.0462
 2385TIP3    H228647   0.997   0.843   3.999  1.9229 -2.5821  1.4393
 2386TIP3   OH228648   3.528   3.190  15.515 -0.1398  0.1838 -0.2194
 2386TIP3    H128649   3.502   3.108  15.557 -0.5300  0.0340 -0.7406
 2386TIP3    H228650   3.447   3.223  15.475  0.1019  0.6180 -0.3545
 2387TIP3   OH228651   4.425   0.469   0.311 -0.2003  0.0506 -0.2504
 2387TIP3    H128652   4.370   0.540   0.278 -0.9883 -0.4861 -0.1108
 2387TIP3    H228653   4.454   0.422   0.233 -0.0183  0.2675 -0.3156
 2388TIP3   OH228654   4.730   2.583   5.210  0.4987  0.7755  1.0969
 2388TIP3    H128655   4.647   2.599   5.256  1.0440  2.6825  1.4792
 2388TIP3    H228656   4.735   2.651   5.144  1.4441  0.2533  0.6062
 2389TIP3   OH228657   0.780   2.138  13.655  0.0334  0.3943 -0.4675
 2389TIP3    H128658   0.704   2.196  13.653 -0.0169  0.3144 -2.2661
 2389TIP3    H228659   0.745   2.055  13.687  0.2993  1.5104  3.1051
 2390TIP3   OH228660   3.224   3.469   2.076 -0.4329  0.2947 -0.5165
 2390TIP3    H128661   3.185   3.424   2.151  1.2549 -0.6385 -0.1455
 2390TIP3    H228662   3.241   3.557   2.107  0.3196 -0.1078  0.2354
 2391TIP3   OH228663   5.260   3.566   6.654  0.2772 -0.0316  0.0291
 2391TIP3    H128664   5.340   3.564   6.706 -0.0414  0.4103  0.5517
 2391TIP3    H228665   5.190   3.548   6.717 -0.1001  0.3009 -0.2839
 2392TIP3   OH228666   5.860   5.552   4.320 -0.0062  0.1403  0.4091
 2392TIP3    H128667   5.773   5.512   4.309 -0.9187  1.6204  1.8725
 2392TIP3    H228668   5.856   5.633   4.269  0.2657  0.5556  1.0398
 2393TIP3   OH228669   2.611   3.149  12.434  0.3260 -0.3182 -0.0282
 2393TIP3    H128670   2.703   3.176  12.437  1.2971 -3.2166 -0.4146
 2393TIP3    H228671   2.601   3.109  12.347 -1.0713 -0.8200  0.3410
 2394TIP3   OH228672   0.993   3.984  13.698  0.5727 -0.1340 -0.1418
 2394TIP3    H128673   0.898   3.980  13.706  0.4885  0.5671 -0.6700
 2394TIP3    H228674   1.010   4.068  13.655  1.4917  0.2120  0.8477
 2395TIP3   OH228675   5.784   6.045  15.514 -0.4701  0.3783  0.5333
 2395TIP3    H128676   5.719   6.090  15.568 -1.2071 -0.4390  0.3480
 2395TIP3    H228677   5.753   5.955  15.508 -0.6051  0.5191 -1.5511
 2396TIP3   OH228678   4.667   4.438  14.749  0.9852 -0.0273 -0.7437
 2396TIP3    H128679   4.682   4.484  14.667  0.8589  1.7002  0.1509
 2396TIP3    H228680   4.586   4.476  14.784  2.3167  1.1105  1.3334
 2397TIP3   OH228681   0.671   3.411  12.310 -0.3059 -0.5577  0.6962
 2397TIP3    H128682   0.713   3.329  12.283 -0.6560 -0.3024 -0.6648
 2397TIP3    H228683   0.598   3.383  12.366 -0.6498 -1.2064 -0.0568
 2398TIP3   OH228684   3.861   0.053   4.301 -0.3043 -0.5657 -0.2437
 2398TIP3    H128685   3.786   0.039   4.359  0.9385 -0.9416  1.3553
 2398TIP3    H228686   3.936   0.026   4.353  0.8562 -1.3604 -2.2153
 2399TIP3   OH228687   3.066   6.675  11.793 -0.4575 -0.3305 -0.8794
 2399TIP3    H128688   3.144   6.621  11.786  0.6077  0.8773  0.9344
 2399TIP3    H228689   3.075   6.740  11.723  1.6617  1.5180  0.9538
 2400TIP3   OH228690   4.690   0.732   0.246 -0.2949  0.0437 -0.1725
 2400TIP3    H128691   4.625   0.721   0.317  1.9482 -1.5160  1.8064
 2400TIP3    H228692   4.745   0.804   0.275  1.5922 -1.5992  0.5728
 2401TIP3   OH228693   5.985   5.602  16.589 -0.0450  0.4825  0.0828
 2401TIP3    H128694   5.970   5.533  16.654  0.7534 -0.4328 -0.6666
 2401TIP3    H228695   6.036   5.559  16.521 -1.2086  1.3223 -1.3575
 2402TIP3   OH228696   1.372   4.282   6.053  0.0218  0.3744 -0.8938
 2402TIP3    H128697   1.411   4.357   6.010 -0.9212  1.7633  0.5504
 2402TIP3    H228698   1.391   4.295   6.146  1.6211 -2.2841 -0.7514
 2403TIP3   OH228699   0.818   0.402   6.052 -0.3805 -0.4294 -0.1351
 2403TIP3    H128700   0.751   0.365   6.110 -0.7527 -0.4094 -0.5476
 2403TIP3    H228701   0.880   0.445   6.111 -0.4896 -0.8367  0.2798
 2404TIP3   OH228702   0.096   4.759   2.597  0.1275  0.1832 -0.0822
 2404TIP3    H128703   0.017   4.793   2.555  0.1248 -0.0944 -0.3074
 2404TIP3    H228704   0.096   4.798   2.684 -0.4835 -0.1502  0.0681
 2405TIP3   OH228705   2.860   2.021  15.951  0.0128  0.8190 -0.7927
 2405TIP3    H128706   2.875   1.932  15.920 -0.3069  1.3488 -2.5491
 2405TIP3    H228707   2.780   2.049  15.906 -0.1233  1.8692  0.0498
 2406TIP3   OH228708   0.123   4.962   4.504 -0.0848 -0.3074  0.2201
 2406TIP3    H128709   0.124   4.869   4.478  1.3533 -0.7074  1.5291
 2406TIP3    H228710   0.038   4.974   4.546 -0.6145 -0.8079 -0.6634
 2407TIP3   OH228711   2.569   4.161  11.178 -0.3605 -0.0490  0.3448
 2407TIP3    H128712   2.611   4.235  11.134 -0.8706 -0.3519 -0.6812
 2407TIP3    H228713   2.640   4.103  11.202 -0.0992 -0.0472 -0.4113
 2408TIP3   OH228714   6.427   0.594   0.462 -0.1614 -0.0405 -0.0675
 2408TIP3    H128715   6.366   0.556   0.525  1.4804 -1.1849  0.9172
 2408TIP3    H228716   6.401   0.557   0.378 -1.8216  0.8011  0.0276
 2409TIP3   OH228717   0.445   3.657   1.502  0.6035 -0.1610 -0.4706
 2409TIP3    H128718   0.417   3.614   1.583  1.4666 -0.5115 -0.3421
 2409TIP3    H228719   0.372   3.645   1.441  0.0275 -0.0590  0.1980
 2410TIP3   OH228720   3.172   1.231   6.888  0.3990 -0.1279  0.2061
 2410TIP3    H128721   3.267   1.229   6.884  0.4156  0.7944 -0.2736
 2410TIP3    H228722   3.148   1.316   6.849 -0.6389 -0.6201 -0.2757
 2411TIP3   OH228723   3.365   0.462  16.682  0.0283  0.4486  0.1275
 2411TIP3    H128724   3.356   0.412  16.601 -0.1213 -0.1824  0.5227
 2411TIP3    H228725   3.448   0.509  16.672  0.3374 -0.1347 -0.1192
 2412TIP3   OH228726   3.278   6.537   6.036 -0.1882  0.5762  0.2658
 2412TIP3    H128727   3.347   6.487   5.992 -2.7450  0.2542 -3.8683
 2412TIP3    H228728   3.300   6.628   6.019  0.2015  0.5645  0.6802
 2413TIP3   OH228729   0.851   0.166   2.194 -0.3293  0.3823 -0.4828
 2413TIP3    H128730   0.777   0.160   2.134 -1.4917 -0.0869  0.9516
 2413TIP3    H228731   0.895   0.082   2.187 -2.3763 -0.9972  1.6340
 2414TIP3   OH228732   5.745   2.144   2.421 -0.5003  0.1478 -0.5783
 2414TIP3    H128733   5.821   2.185   2.380  1.2407 -0.0977  2.1553
 2414TIP3    H228734   5.736   2.189   2.505 -1.2818 -2.0079  0.5864
 2415TIP3   OH228735   5.767   3.668  16.601  0.8285  0.0569  0.0486
 2415TIP3    H128736   5.775   3.650  16.695  3.3279 -1.7002 -0.4175
 2415TIP3    H228737   5.730   3.588  16.565 -0.3724  0.8199 -0.4876
 2416TIP3   OH228738   2.888   1.506   2.309  0.2614  0.1949 -0.1013
 2416TIP3    H128739   2.928   1.419   2.318  0.3617  0.4614  3.2453
 2416TIP3    H228740   2.943   1.563   2.361 -1.8177  1.5216  0.7833
 2417TIP3   OH228741   1.509   4.870   6.476  0.7915  0.3305 -0.6860
 2417TIP3    H128742   1.434   4.914   6.516  1.5686 -0.6083  2.0161
 2417TIP3    H228743   1.505   4.781   6.510  2.6264  0.0166 -1.2098
 2418TIP3   OH228744   4.742   4.297   1.233 -0.0525  0.9089 -0.1918
 2418TIP3    H128745   4.753   4.383   1.193  2.2585  1.0164  0.5687
 2418TIP3    H228746   4.656   4.302   1.275 -1.9960  1.2787 -3.7273
 2419TIP3   OH228747   5.301   3.222   0.101  0.1510 -0.1638 -0.1262
 2419TIP3    H128748   5.257   3.143   0.069  0.2065  0.1130 -0.8982
 2419TIP3    H228749   5.321   3.272   0.023 -1.7759  1.6702  0.4744
 2420TIP3   OH228750   5.951   2.962  11.512 -0.0898  0.0317 -0.3729
 2420TIP3    H128751   5.920   2.947  11.423 -1.6999  0.8997 -0.0143
 2420TIP3    H228752   5.992   2.879  11.538 -0.7192 -0.6497 -1.4724
 2421TIP3   OH228753   5.270   5.715   3.350 -0.4299  0.4250  0.2913
 2421TIP3    H128754   5.356   5.688   3.316 -1.1252 -1.4451 -0.0752
 2421TIP3    H228755   5.253   5.798   3.306  1.8614  1.6959  1.5691
 2422TIP3   OH228756   5.612   4.303  17.135  0.1251 -0.3933  0.6063
 2422TIP3    H128757   5.562   4.348  17.203  0.5955  0.7391  0.2408
 2422TIP3    H228758   5.691   4.271  17.180 -0.3151 -1.0591  0.9157
 2423TIP3   OH228759   3.823   0.152   2.676 -0.1669  0.1915 -0.2687
 2423TIP3    H128760   3.845   0.061   2.695 -1.6020 -0.6975 -2.4320
 2423TIP3    H228761   3.906   0.200   2.685  1.2456 -1.8281 -1.8101
 2424TIP3   OH228762   3.085   3.119  14.912  0.6761 -0.4393  0.4645
 2424TIP3    H128763   3.090   3.055  14.842  1.7635  0.0325  0.0775
 2424TIP3    H228764   3.037   3.193  14.874  0.4747 -0.5420  0.5178
 2425TIP3   OH228765   1.965   5.394  10.700 -0.1172  0.0746  0.5756
 2425TIP3    H128766   2.008   5.451  10.764 -1.8416 -0.3030  2.1748
 2425TIP3    H228767   2.015   5.313  10.702 -0.7090 -0.2890  2.2459
 2426TIP3   OH228768   4.589   4.464  13.937  0.4238  0.0989  0.3175
 2426TIP3    H128769   4.646   4.410  13.881 -0.7455  0.2075 -1.0509
 2426TIP3    H228770   4.577   4.545  13.887  1.5859  1.3785  2.0242
 2427TIP3   OH228771   5.934   2.804  17.431  0.4047 -0.7328  0.3796
 2427TIP3    H128772   5.942   2.740  17.502  0.7084 -1.2591 -0.1284
 2427TIP3    H228773   5.854   2.780  17.386 -0.4677  0.3561  1.2752
 2428TIP3   OH228774   6.254   4.850   2.401  0.4919  0.6161  0.0119
 2428TIP3    H128775   6.194   4.779   2.378  0.3676 -0.1880  2.4982
 2428TIP3    H228776   6.316   4.854   2.328 -1.5903  0.3989 -1.8695
 2429TIP3   OH228777   6.389   2.805  12.939 -0.7535 -0.2242  0.1879
 2429TIP3    H128778   6.440   2.870  12.988 -0.3598  0.9470 -1.7054
 2429TIP3    H228779   6.316   2.854  12.903 -0.8211 -0.9768 -0.7217
 2430TIP3   OH228780   6.079   1.389   0.667  0.1040 -0.3047 -0.0611
 2430TIP3    H128781   6.137   1.351   0.601  1.0588  0.8914  0.0540
 2430TIP3    H228782   5.992   1.355   0.645  0.9960 -3.3074  0.6304
 2431TIP3   OH228783   2.770   4.051   4.365 -0.3828  0.1713 -0.6865
 2431TIP3    H128784   2.850   4.040   4.417 -0.0947  0.6334 -1.0339
 2431TIP3    H228785   2.748   3.962   4.338  0.0503  0.0466 -0.6445
 2432TIP3   OH228786   5.549   5.977   0.030 -0.8576 -0.0827 -0.1322
 2432TIP3    H128787   5.523   5.891  -0.002 -2.5811  0.2830  0.1956
 2432TIP3    H228788   5.642   5.967   0.053 -0.8466 -1.6441 -0.7300
 2433TIP3   OH228789   1.646   0.211   5.527  0.1364  0.0817 -0.7093
 2433TIP3    H128790   1.571   0.155   5.548  0.8460 -0.3292  0.9119
 2433TIP3    H228791   1.713   0.185   5.590  0.8004  2.1411 -0.4959
 2434TIP3   OH228792   3.766   5.828  16.200 -0.1610 -0.0584  0.1451
 2434TIP3    H128793   3.763   5.781  16.117  2.5898 -1.3106  0.6544
 2434TIP3    H228794   3.707   5.903  16.187 -0.2393 -0.5094 -2.7239
 2435TIP3   OH228795   4.587   5.061   1.302  0.6343 -0.1165  0.2916
 2435TIP3    H128796   4.561   5.063   1.210  1.0563  0.3985  0.1785
 2435TIP3    H228797   4.654   4.993   1.307 -0.3470 -1.0955  0.4869
 2436TIP3   OH228798   6.056   3.489  13.453  0.5512  0.0196 -0.3622
 2436TIP3    H128799   6.100   3.571  13.429 -3.7439  2.7923  0.1210
 2436TIP3    H228800   6.026   3.453  13.369  0.5986  0.1335 -0.4289
 2437TIP3   OH228801   2.352   0.233   4.060 -0.1149 -0.0271 -0.2483
 2437TIP3    H128802   2.305   0.222   3.978 -0.3082 -0.1376 -0.1239
 2437TIP3    H228803   2.290   0.278   4.117  0.1122  0.2881 -0.2478
 2438TIP3   OH228804   3.099   5.126  13.272 -0.3254  0.2758 -0.5368
 2438TIP3    H128805   3.029   5.175  13.315  0.3990  0.3825  0.5702
 2438TIP3    H228806   3.145   5.082  13.344  0.0586 -0.7013 -1.3495
 2439TIP3   OH228807   0.907   5.353   1.205  0.1950  0.2643  1.2277
 2439TIP3    H128808   0.919   5.429   1.149 -0.4838 -0.4614  0.0495
 2439TIP3    H228809   0.815   5.357   1.232 -0.8046 -1.7124 -1.3854
 2440TIP3   OH228810   5.156   5.713   1.120 -0.3225  0.4486  0.2991
 2440TIP3    H128811   5.247   5.741   1.128 -0.4758  1.0002  0.0932
 2440TIP3    H228812   5.119   5.768   1.051 -0.4755 -0.6195 -0.4925
 2441TIP3   OH228813   5.864   5.239   4.800 -0.1614  0.5807 -0.1481
 2441TIP3    H128814   5.821   5.175   4.857 -0.7610  1.7340  0.7411
 2441TIP3    H228815   5.938   5.192   4.762  1.3178  0.1897  2.9125
 2442TIP3   OH228816   0.856   0.411  17.649 -0.1937 -0.4935 -1.1022
 2442TIP3    H128817   0.891   0.399  17.737 -0.0977 -2.4092 -1.3516
 2442TIP3    H228818   0.765   0.381  17.655  0.0610 -1.4727 -1.8179
 2443TIP3   OH228819   2.040   1.025   1.765 -0.4839 -0.1363 -0.0981
 2443TIP3    H128820   2.017   0.971   1.841  2.1296  0.0582  0.9194
 2443TIP3    H228821   2.102   1.090   1.799 -1.9057  2.2474 -1.7060
 2444TIP3   OH228822   5.035   3.252   0.420 -0.4445  0.3367  0.4223
 2444TIP3    H128823   4.977   3.180   0.395 -0.5488  0.0938  1.3535
 2444TIP3    H228824   5.027   3.315   0.348 -0.1468 -0.6855 -0.5394
 2445TIP3   OH228825   2.888   2.649   3.802 -0.0199  0.5810  0.3192
 2445TIP3    H128826   2.921   2.739   3.809 -1.4853  1.2215 -0.6442
 2445TIP3    H228827   2.914   2.608   3.885  2.0863  1.3781  0.1326
 2446TIP3   OH228828   3.311   2.350  11.484  0.0665 -0.1338  0.4890
 2446TIP3    H128829   3.302   2.446  11.480 -0.5687 -0.1499  1.3643
 2446TIP3    H228830   3.358   2.328  11.403 -1.3493  0.7224 -0.6161
 2447TIP3   OH228831   1.347   3.964   1.335 -0.2947 -0.4293  0.0629
 2447TIP3    H128832   1.441   3.975   1.324 -0.3915  1.0978  0.5569
 2447TIP3    H228833   1.323   3.894   1.274  1.2084 -1.1206  0.2291
 2448TIP3   OH228834   6.013   3.491  12.806 -0.8456 -0.5501 -0.0457
 2448TIP3    H128835   6.083   3.540  12.762 -1.4671  0.5819  0.1856
 2448TIP3    H228836   5.959   3.457  12.735 -1.3170  0.4848 -0.2040
 2449TIP3   OH228837   2.811   4.106   5.310  0.0216 -0.0758  0.5663
 2449TIP3    H128838   2.791   4.199   5.297  0.6897  0.0842  0.6629
 2449TIP3    H228839   2.771   4.062   5.235 -0.2828  0.2902  0.5129
 2450TIP3   OH228840   2.048   4.984  16.037  0.3812  0.1563  0.4159
 2450TIP3    H128841   1.979   4.919  16.019 -0.2109  0.7288  0.6052
 2450TIP3    H228842   2.109   4.974  15.964  1.3005 -1.9082  1.3838
 2451TIP3   OH228843   3.682   5.208  17.668  0.3926 -0.0796 -0.3314
 2451TIP3    H128844   3.601   5.158  17.680 -1.5723  2.8506 -0.2271
 2451TIP3    H228845   3.714   5.223  17.757  0.5811 -0.5118 -0.3250
 2452TIP3   OH228846   4.928   4.378  14.083 -0.4098 -0.5134 -0.2764
 2452TIP3    H128847   4.856   4.346  14.029 -1.5797 -1.5963  1.7796
 2452TIP3    H228848   4.885   4.419  14.158  1.1273 -0.0525  0.3833
 2453TIP3   OH228849   3.559   2.583   3.985 -0.2813 -0.1704 -0.5162
 2453TIP3    H128850   3.584   2.665   3.941 -1.2726  0.0674 -0.6554
 2453TIP3    H228851   3.558   2.606   4.078  0.7329 -0.3832 -0.4408
 2454TIP3   OH228852   1.247   6.617   0.491 -0.5996  0.0756 -0.1690
 2454TIP3    H128853   1.303   6.680   0.446  0.7266 -0.5824  0.5048
 2454TIP3    H228854   1.268   6.627   0.583 -2.0935  0.2585  0.1849
 2455TIP3   OH228855   1.593   2.003  11.468 -0.4863  0.7411 -0.2154
 2455TIP3    H128856   1.606   2.039  11.381  0.2688  0.7516 -0.0981
 2455TIP3    H228857   1.670   2.031  11.518  0.4730 -1.5938 -0.2875
 2456TIP3   OH228858   1.313   4.861  12.158  0.4517  0.6163  0.1547
 2456TIP3    H128859   1.397   4.880  12.199  0.3835 -0.8738  1.0609
 2456TIP3    H228860   1.286   4.944  12.119  3.6022  0.5278 -2.6231
 2457TIP3   OH228861   2.540   4.190  14.466  0.3843 -0.5050 -0.0594
 2457TIP3    H128862   2.446   4.209  14.465  0.5810  0.5106 -0.0617
 2457TIP3    H228863   2.580   4.266  14.425  1.2626 -0.6477  0.5217
 2458TIP3   OH228864   5.775   3.359  16.214  0.2292 -0.0627 -0.1462
 2458TIP3    H128865   5.823   3.366  16.131  1.8186  0.1427  0.7628
 2458TIP3    H228866   5.833   3.309  16.271 -0.6770  0.1332  0.9726
 2459TIP3   OH228867   3.775   2.138   0.027 -0.0506  0.4092  0.2162
 2459TIP3    H128868   3.858   2.116   0.070  0.6403 -3.3899 -2.6199
 2459TIP3    H228869   3.721   2.060   0.037 -1.7044  1.2392 -1.5954
 2460TIP3   OH228870   2.778   0.256  15.251  0.1264  0.5760 -0.0037
 2460TIP3    H128871   2.698   0.205  15.236  1.6137 -2.0698  0.5481
 2460TIP3    H228872   2.788   0.256  15.346  0.7871  0.8752 -0.0741
 2461TIP3   OH228873   2.562   1.036   5.801  0.3684 -0.7675 -0.4732
 2461TIP3    H128874   2.556   0.942   5.784  0.2861 -0.8287 -0.1013
 2461TIP3    H228875   2.643   1.063   5.757  0.3603 -0.9990 -0.6326
 2462TIP3   OH228876   3.481   5.621  12.199 -0.3859 -0.3394  0.0661
 2462TIP3    H128877   3.518   5.681  12.264 -0.1722  0.5425 -0.8433
 2462TIP3    H228878   3.500   5.662  12.115 -2.3751 -0.4804 -0.4931
 2463TIP3   OH228879   3.076   5.364   3.966  0.7721 -0.1454 -0.3510
 2463TIP3    H128880   3.097   5.457   3.958 -0.0599  0.0384 -0.5226
 2463TIP3    H228881   3.131   5.321   3.900  1.3694  0.1848 -0.0728
 2464TIP3   OH228882   4.192   5.841  12.078 -0.2689  0.0594 -0.3560
 2464TIP3    H128883   4.262   5.906  12.075  1.4391 -1.5778  1.3563
 2464TIP3    H228884   4.113   5.892  12.097  0.9490  1.6914  0.6408
 2465TIP3   OH228885   5.372   5.626  15.605 -0.1263 -0.1858  0.0023
 2465TIP3    H128886   5.350   5.616  15.513  3.1594 -0.9846 -0.8196
 2465TIP3    H228887   5.339   5.713  15.628 -2.2926 -0.5451 -1.4591
 2466TIP3   OH228888   0.209   3.160   0.820  0.3616 -0.3169 -0.0746
 2466TIP3    H128889   0.296   3.120   0.815  0.4839  0.0491 -0.8617
 2466TIP3    H228890   0.192   3.167   0.914  0.6669 -1.4982  0.0793
 2467TIP3   OH228891   5.895   5.013  11.509  0.6690 -0.0499 -0.0635
 2467TIP3    H128892   5.900   5.002  11.604 -0.2903  0.4197  0.0532
 2467TIP3    H228893   5.939   5.096  11.491 -1.4660  1.2224  0.3012
 2468TIP3   OH228894   4.535   2.296   0.771 -0.4634  0.7106  0.1824
 2468TIP3    H128895   4.600   2.227   0.759 -0.6123  0.4420  0.9239
 2468TIP3    H228896   4.560   2.363   0.707 -0.1462  0.1045 -0.3412
 2469TIP3   OH228897   2.442   6.639   5.083 -0.3574  0.2908  0.3553
 2469TIP3    H128898   2.415   6.715   5.032 -2.0097 -0.4231  0.1141
 2469TIP3    H228899   2.448   6.670   5.173 -2.1152  0.4848  0.4338
 2470TIP3   OH228900   0.287   0.330  14.531  0.4250  0.2232 -0.1349
 2470TIP3    H128901   0.200   0.321  14.493  0.5582  1.2612 -0.7278
 2470TIP3    H228902   0.327   0.244  14.520 -0.4346 -0.1939 -0.0804
 2471TIP3   OH228903   5.518   3.428   2.117  0.0041 -0.0618  0.4694
 2471TIP3    H128904   5.494   3.521   2.122 -1.3279 -0.4512  2.5334
 2471TIP3    H228905   5.525   3.410   2.024 -2.3805  1.4837 -0.1022
 2472TIP3   OH228906   5.372   0.123   0.269 -0.3107 -1.0951 -0.0382
 2472TIP3    H128907   5.308   0.054   0.252 -0.6723 -0.5846 -0.7915
 2472TIP3    H228908   5.324   0.205   0.256  0.2385 -0.6953  0.3646
 2473TIP3   OH228909   4.314   1.665  16.286  0.1636 -0.3359  0.3078
 2473TIP3    H128910   4.390   1.707  16.245  0.3422 -0.4321  0.5369
 2473TIP3    H228911   4.243   1.729  16.276 -0.1144 -0.8324 -1.2048
 2474TIP3   OH228912   6.538   5.670  15.944 -0.1631  0.0111 -0.0121
 2474TIP3    H128913   6.513   5.580  15.924 -0.6686  0.0920  0.2305
 2474TIP3    H228914   6.490   5.691  16.024 -0.7503  0.7879 -0.5450
 2475TIP3   OH228915   6.226   5.180   4.396  0.0210 -0.0090  0.2217
 2475TIP3    H128916   6.241   5.120   4.323  0.3152  1.8416 -1.3217
 2475TIP3    H228917   6.137   5.212   4.382 -0.3527 -0.4896  1.3733
 2476TIP3   OH228918   2.024   4.247   4.027 -0.5225 -0.6185 -0.1569
 2476TIP3    H128919   1.938   4.275   4.059 -0.4877 -1.3151  0.5695
 2476TIP3    H228920   2.032   4.289   3.941 -0.4218  1.7221  0.9016
 2477TIP3   OH228921   4.714   2.358   4.493  0.5925 -0.2140  0.0498
 2477TIP3    H128922   4.744   2.447   4.515  2.3883 -0.8596  0.3658
 2477TIP3    H228923   4.631   2.372   4.449  1.4269  1.7305 -1.0750
 2478TIP3   OH228924   1.391   4.452   5.091 -0.0122  0.3771 -0.0962
 2478TIP3    H128925   1.436   4.395   5.154 -0.0342 -0.6167 -0.9635
 2478TIP3    H228926   1.325   4.497   5.144 -0.2875 -0.7332  0.5351
 2479TIP3   OH228927   5.026   4.021  15.172 -0.4475 -0.2590 -0.0707
 2479TIP3    H128928   4.987   4.042  15.088 -1.6232 -1.0090  0.2643
 2479TIP3    H228929   5.105   4.075  15.176 -0.9833  0.6477 -1.1489
 2480TIP3   OH228930   4.578   2.936   3.077  0.0534  0.1240 -0.0662
 2480TIP3    H128931   4.637   3.003   3.112 -1.6620  1.8603 -0.2969
 2480TIP3    H228932   4.529   2.982   3.009  0.0490 -1.9022 -1.5137
 2481TIP3   OH228933   1.673   6.271  17.401  0.3178 -0.2821  0.9379
 2481TIP3    H128934   1.659   6.336  17.470  0.9026  2.0072 -1.0050
 2481TIP3    H228935   1.767   6.252  17.406  0.2476 -0.5842  1.1468
 2482TIP3   OH228936   6.678   6.070  11.655 -0.2436  0.2321  0.1693
 2482TIP3    H128937   6.692   6.066  11.560 -0.0632 -1.8076  0.2470
 2482TIP3    H228938   6.588   6.102  11.664 -0.2128  0.5977 -0.6851
 2483TIP3   OH228939   1.060   6.399   0.774  0.1307  0.8539  0.2848
 2483TIP3    H128940   1.053   6.322   0.717 -1.4090  0.9945  0.2653
 2483TIP3    H228941   1.135   6.378   0.831 -0.4256 -0.7983  0.4767
 2484TIP3   OH228942   2.240   6.436  12.201  0.2500 -0.0197 -0.0834
 2484TIP3    H128943   2.160   6.384  12.203  0.3737 -0.2306 -0.6182
 2484TIP3    H228944   2.260   6.452  12.294 -1.2243  1.3008  0.0498
 2485TIP3   OH228945   4.496   1.578  15.362 -0.2148  0.1106  0.0689
 2485TIP3    H128946   4.415   1.526  15.363 -1.0436  1.3507 -0.2712
 2485TIP3    H228947   4.560   1.522  15.319 -0.0860 -1.9894  2.7459
 2486TIP3   OH228948   5.095   0.167   5.688 -0.0760  0.2370 -0.5736
 2486TIP3    H128949   5.081   0.198   5.598 -1.7419  0.0408 -0.4075
 2486TIP3    H228950   5.009   0.139   5.717  0.2041  1.3890  1.5218
 2487TIP3   OH228951   5.853   0.366  16.370 -0.2662  0.3126 -0.0735
 2487TIP3    H128952   5.829   0.283  16.412 -0.5227 -0.4558 -1.6949
 2487TIP3    H228953   5.925   0.399  16.424 -0.6002 -0.6106  0.9942
 2488TIP3   OH228954   1.046   5.892  13.327  0.5996 -0.4084 -0.3395
 2488TIP3    H128955   1.097   5.941  13.263 -0.0608  0.3671 -0.2926
 2488TIP3    H228956   1.010   5.818  13.278  0.7697 -0.2770 -0.6680
 2489TIP3   OH228957   2.465   5.283   0.996 -0.2839  0.4559  0.3373
 2489TIP3    H128958   2.380   5.324   0.980  0.0873  1.1796  0.1970
 2489TIP3    H228959   2.448   5.189   0.987 -0.9057  0.6326 -0.4431
 2490TIP3   OH228960   0.290   4.686   3.969 -0.2203  0.2689  0.2571
 2490TIP3    H128961   0.322   4.607   4.012  0.1860 -0.4137 -1.2040
 2490TIP3    H228962   0.331   4.758   4.016  3.5953 -0.5297 -1.4444
 2491TIP3   OH228963   4.269   0.287   1.796  0.0637 -0.0243 -0.4270
 2491TIP3    H128964   4.238   0.283   1.705  0.7120 -0.9299 -0.6189
 2491TIP3    H228965   4.236   0.206   1.836  2.0586 -0.9819 -0.6160
 2492TIP3   OH228966   2.273   2.292  15.695  0.2135  0.3950 -0.1603
 2492TIP3    H128967   2.335   2.232  15.736 -1.1373 -0.2029  1.0914
 2492TIP3    H228968   2.325   2.340  15.630  1.5127 -1.5343 -0.6221
 2493TIP3   OH228969   1.691   0.564  13.710 -0.3443 -0.9938  0.5857
 2493TIP3    H128970   1.628   0.493  13.698 -2.7690  0.8155  1.6768
 2493TIP3    H228971   1.691   0.610  13.626 -0.1644 -1.2368  0.4525
 2494TIP3   OH228972   0.619   4.195  16.631 -0.2191  0.2041  0.1989
 2494TIP3    H128973   0.609   4.285  16.599 -1.3008 -0.0317 -0.1450
 2494TIP3    H228974   0.530   4.161  16.637  0.0948 -0.4617  1.4705
 2495TIP3   OH228975   2.569   5.909   3.362 -0.2975 -0.4658 -0.4526
 2495TIP3    H128976   2.502   5.944   3.421 -0.4267  0.4861 -1.1376
 2495TIP3    H228977   2.531   5.828   3.329  0.0427 -1.3765  1.2395
 2496TIP3   OH228978   4.643   3.298   0.588  0.0508 -0.3005 -0.0001
 2496TIP3    H128979   4.601   3.299   0.674  0.3711  0.6409  0.1648
 2496TIP3    H228980   4.696   3.378   0.587  0.9827 -0.9189 -0.6173
 2497TIP3   OH228981   2.648   5.926  15.780  0.1890 -0.2941 -0.1516
 2497TIP3    H128982   2.595   5.941  15.859  1.3633 -0.1523  0.6377
 2497TIP3    H228983   2.731   5.892  15.814  1.4220  1.5445 -1.1813
 2498TIP3   OH228984   1.145   1.043   2.990  0.2883  0.4391 -0.3343
 2498TIP3    H128985   1.230   1.026   2.949 -0.1650 -0.5602 -0.8784
 2498TIP3    H228986   1.092   0.966   2.970 -0.6893  0.9559  0.1774
 2499TIP3   OH228987   1.870   4.614  17.079 -0.0571  0.1599 -0.1162
 2499TIP3    H128988   1.870   4.518  17.079  1.0045  0.1370  0.9908
 2499TIP3    H228989   1.864   4.637  16.986  0.7865 -0.9921 -0.4885
 2500TIP3   OH228990   4.393   6.284   5.893 -0.2980  0.3650  0.3264
 2500TIP3    H128991   4.485   6.265   5.906 -0.2637  0.3188  0.0129
 2500TIP3    H228992   4.368   6.235   5.815 -0.5382  0.5343  0.2928
 2501TIP3   OH228993   1.384   6.255   1.667 -0.5073  0.0830  0.0464
 2501TIP3    H128994   1.413   6.334   1.712  0.0935 -1.4069  2.5076
 2501TIP3    H228995   1.402   6.271   1.574  1.0566  2.1784  0.6477
 2502TIP3   OH228996   3.956   1.568   0.819 -0.3604  0.1712  0.2047
 2502TIP3    H128997   3.901   1.639   0.854 -0.2768  0.7575 -0.8125
 2502TIP3    H228998   4.046   1.601   0.829 -0.3409  0.3975 -0.6377
 2503TIP3   OH228999   6.293   5.003  14.912  0.0839 -0.1719  0.1796
 2503TIP3    H129000   6.307   4.909  14.908  0.9301 -0.2758  3.1625
 2503TIP3    H229001   6.298   5.032  14.821  1.3845 -2.7830 -0.6768
 2504TIP3   OH229002   6.105   4.404  17.319 -0.1694  0.1457 -0.6360
 2504TIP3    H129003   6.177   4.347  17.293 -0.1300  0.5463 -1.4246
 2504TIP3    H229004   6.118   4.484  17.269 -1.1354  0.2415 -0.7545
 2505TIP3   OH229005   3.133   0.846  16.824 -0.1036 -0.2502 -0.1885
 2505TIP3    H129006   3.127   0.753  16.845 -1.3249  0.1159  1.3509
 2505TIP3    H229007   3.053   0.884  16.861  1.0650  1.6288  0.5912
 2506TIP3   OH229008   0.840   5.052   4.781 -0.4887 -0.1232 -0.1349
 2506TIP3    H129009   0.889   4.985   4.828  0.1921  0.3539 -0.1640
 2506TIP3    H229010   0.748   5.032   4.801 -0.2560 -0.5407  0.5535
 2507TIP3   OH229011   4.442   0.525   1.643 -0.5356 -0.0302  0.7214
 2507TIP3    H129012   4.401   0.606   1.673 -0.4330 -0.1011  1.0477
 2507TIP3    H229013   4.470   0.544   1.553 -0.2390  0.3894  0.9045
 2508TIP3   OH229014   2.876   4.611   1.006 -0.6183  0.0637 -0.8713
 2508TIP3    H129015   2.862   4.698   0.969  0.8336  1.5176  1.7333
 2508TIP3    H229016   2.967   4.590   0.985 -0.3117  0.1616  0.2715
 2509TIP3   OH229017   5.535   6.226   0.813  0.0830  0.0339  0.6760
 2509TIP3    H129018   5.495   6.310   0.791  1.4722 -0.0137 -2.5117
 2509TIP3    H229019   5.464   6.162   0.803 -0.1363  0.4410 -0.5209
 2510TIP3   OH229020   1.938   3.756   1.984 -0.3385  0.2381 -0.3652
 2510TIP3    H129021   2.010   3.699   1.958 -0.7262 -2.2018  3.1393
 2510TIP3    H229022   1.953   3.838   1.937  3.4393 -0.9031 -1.4551
 2511TIP3   OH229023   0.431   2.525  12.231  0.1159 -0.1618 -0.3263
 2511TIP3    H129024   0.432   2.467  12.307  1.0441  0.2700  0.0043
 2511TIP3    H229025   0.361   2.490  12.175  0.0509 -1.0423  0.2862
 2512TIP3   OH229026   4.816   5.663  16.190  0.0714  0.9653  0.3695
 2512TIP3    H129027   4.830   5.726  16.119 -2.0317 -0.1753 -1.1371
 2512TIP3    H229028   4.785   5.717  16.263 -1.1615  1.7708 -0.7122
 2513TIP3   OH229029   2.438   0.353  14.033 -0.0644 -0.2954 -0.2035
 2513TIP3    H129030   2.443   0.364  14.128  2.5198 -0.0366 -0.3021
 2513TIP3    H229031   2.371   0.416  14.005  0.2633  0.7695  1.2699
 2514TIP3   OH229032   1.026   2.184   4.708  0.1433  0.7890  0.3047
 2514TIP3    H129033   1.049   2.095   4.735  2.3923  1.1349 -0.2906
 2514TIP3    H229034   1.037   2.236   4.788 -1.8656  0.4779  0.8360
 2515TIP3   OH229035   0.750   5.219  14.681  0.0055 -0.5330 -0.1198
 2515TIP3    H129036   0.692   5.198  14.608 -1.0153  1.3033  0.1069
 2515TIP3    H229037   0.707   5.179  14.757 -1.3692  1.3134  0.1453
 2516TIP3   OH229038   0.114   1.427  11.765  0.7334  0.3229  0.5551
 2516TIP3    H129039   0.087   1.518  11.754 -0.4926 -0.1724 -0.8609
 2516TIP3    H229040   0.125   1.417  11.860 -0.7737  1.4926  0.8956
 2517TIP3   OH229041   4.522   1.453   2.052  0.4824 -0.2491  0.0831
 2517TIP3    H129042   4.435   1.442   2.090 -1.2737 -0.6661 -3.6357
 2517TIP3    H229043   4.556   1.363   2.043  1.1611 -0.1136  1.1575
 2518TIP3   OH229044   2.893   3.022  13.285 -0.1373  0.2415 -0.0225
 2518TIP3    H129045   2.829   3.090  13.304 -2.4318 -1.6478 -0.5048
 2518TIP3    H229046   2.889   2.963  13.360  1.0437  0.0508 -0.0795
 2519TIP3   OH229047   3.041   2.459   0.323  0.5156  0.5663 -0.4698
 2519TIP3    H129048   2.969   2.447   0.384 -0.1681  0.1585 -1.3392
 2519TIP3    H229049   3.001   2.455   0.237  1.7268 -0.9529 -1.0248
 2520TIP3   OH229050   4.667   3.065   0.156 -0.1800 -0.7135 -0.1311
 2520TIP3    H129051   4.666   3.143   0.102  0.3966 -1.0235 -0.6036
 2520TIP3    H229052   4.615   3.001   0.107 -0.2469 -0.7751  0.0205
 2521TIP3   OH229053   1.926   3.691  16.756 -0.0599 -0.4686 -0.3645
 2521TIP3    H129054   1.929   3.688  16.852 -1.0769  1.3449 -0.2266
 2521TIP3    H229055   1.939   3.783  16.735 -0.1520 -0.7994 -1.9610
 2522TIP3   OH229056   4.762   5.313   2.303  0.5071 -0.5947 -0.4501
 2522TIP3    H129057   4.667   5.312   2.295  0.5441 -0.2117 -1.0266
 2522TIP3    H229058   4.778   5.293   2.395 -0.0572 -2.3446 -0.6939
 2523TIP3   OH229059   0.541   3.858   6.641  0.7517 -0.1805 -0.2591
 2523TIP3    H129060   0.460   3.814   6.612  0.0600  0.5772  0.4768
 2523TIP3    H229061   0.609   3.791   6.629  0.1079 -0.6911 -1.3103
 2524TIP3   OH229062   0.629   5.445  11.289  0.2590  0.1119  0.2666
 2524TIP3    H129063   0.659   5.512  11.227 -1.1363 -0.0807 -0.6660
 2524TIP3    H229064   0.603   5.495  11.366 -2.9478  1.0109 -1.2278
 2525TIP3   OH229065   2.025   6.639   6.586  0.1423 -0.4134  0.0617
 2525TIP3    H129066   2.065   6.552   6.583  1.7587  0.2852  0.3117
 2525TIP3    H229067   1.976   6.641   6.669  0.0749 -1.0750  0.0428
 2526TIP3   OH229068   1.726   4.291   4.037 -0.3086 -0.2917 -0.0505
 2526TIP3    H129069   1.639   4.326   4.055 -0.1221  0.5658 -0.7533
 2526TIP3    H229070   1.771   4.360   3.989  0.1255 -1.4285 -1.3674
 2527TIP3   OH229071   5.472   0.027  12.217 -0.1721 -0.5177  0.7599
 2527TIP3    H129072   5.381   0.054  12.204 -0.6364 -1.3166  2.1322
 2527TIP3    H229073   5.515   0.045  12.133 -0.3351  4.4885  1.4452
 2528TIP3   OH229074   3.805   4.196  12.872  1.0454  0.3319  0.1692
 2528TIP3    H129075   3.832   4.249  12.948  0.3554 -1.2217  1.5740
 2528TIP3    H229076   3.860   4.118  12.877  1.1271  0.3044 -1.0695
 2529TIP3   OH229077   4.472   1.108   5.884 -0.5228  0.7593  0.1787
 2529TIP3    H129078   4.547   1.067   5.841 -0.2695  0.1580  1.1689
 2529TIP3    H229079   4.398   1.089   5.825  0.2411  2.2568 -1.3430
 2530TIP3   OH229080   1.290   5.536   0.410  0.0621 -0.4895  0.1817
 2530TIP3    H129081   1.262   5.626   0.427  0.3455 -0.3100 -0.3023
 2530TIP3    H229082   1.212   5.483   0.427 -0.2360 -0.1077  0.0032
 2531TIP3   OH229083   3.367   4.198  12.878  0.1370  0.1969  0.1068
 2531TIP3    H129084   3.298   4.237  12.931 -0.5492 -0.3302 -0.3748
 2531TIP3    H229085   3.320   4.144  12.814  0.9741  0.2772 -0.5881
 2532TIP3   OH229086   4.763   3.225  11.176  0.2552  0.3627 -0.4413
 2532TIP3    H129087   4.834   3.288  11.182 -0.3230  1.0066 -0.2036
 2532TIP3    H229088   4.782   3.175  11.097  0.4159  1.2267 -0.9671
 2533TIP3   OH229089   1.893   0.004   6.197  0.5874  0.1912 -0.0767
 2533TIP3    H129090   1.878   0.067   6.268  0.5064  0.4160 -0.2921
 2533TIP3    H229091   1.854  -0.077   6.229  1.0013  0.1555  0.3474
 2534TIP3   OH229092   2.758   4.092  12.150  0.3478  0.0073 -0.5385
 2534TIP3    H129093   2.698   4.153  12.193 -0.1596  0.0765 -1.3194
 2534TIP3    H229094   2.737   4.007  12.186  1.2911  0.3062  0.8182
 2535TIP3   OH229095   0.374   6.670   6.113  0.7290  0.0303  1.2294
 2535TIP3    H129096   0.302   6.633   6.164  0.5074 -1.6797 -0.1998
 2535TIP3    H229097   0.398   6.600   6.052  1.6277  1.6123 -0.3199
 2536TIP3   OH229098   0.293   2.501  13.335  0.0425 -0.0104  0.4092
 2536TIP3    H129099   0.216   2.478  13.282 -0.6799  1.4588  0.7738
 2536TIP3    H229100   0.346   2.556  13.279  0.4414 -0.3743  0.4271
 2537TIP3   OH229101   1.711   5.677   3.680  0.1096 -0.3072  0.5725
 2537TIP3    H129102   1.747   5.591   3.658 -1.9100 -1.2015  0.4977
 2537TIP3    H229103   1.647   5.659   3.750  0.2103  1.2499  1.1011
 2538TIP3   OH229104   6.424   4.042  14.394  0.1224 -0.3887  0.4279
 2538TIP3    H129105   6.449   4.072  14.481 -1.6778 -1.2472  1.2891
 2538TIP3    H229106   6.433   3.947  14.398  0.3138 -0.4174 -0.4436
 2539TIP3   OH229107   4.373   1.785   6.106  0.1495 -0.6514 -0.4321
 2539TIP3    H129108   4.423   1.833   6.171 -0.0351 -0.8239 -0.1615
 2539TIP3    H229109   4.392   1.829   6.023  0.7511 -0.7145 -0.3330
 2540TIP3   OH229110   3.246   6.495  13.362  0.1774 -0.1646 -0.6728
 2540TIP3    H129111   3.152   6.479  13.370 -0.7494  3.0600 -2.7709
 2540TIP3    H229112   3.270   6.542  13.442 -0.4053  0.3302 -0.7789
 2541TIP3   OH229113   5.931   3.060   5.345  0.5288 -0.2148  0.6004
 2541TIP3    H129114   5.854   3.038   5.399  1.6258  0.0704  2.3613
 2541TIP3    H229115   5.987   2.984   5.352  0.7448 -0.1183 -0.0600
 2542TIP3   OH229116   1.667   4.721  14.798  0.2903  0.0313  0.2579
 2542TIP3    H129117   1.649   4.646  14.741 -0.0507 -0.2780  0.7607
 2542TIP3    H229118   1.607   4.789  14.767 -0.9144 -0.5887  1.1173
 2543TIP3   OH229119   0.798   1.624   2.139  0.8154 -0.6703 -0.6884
 2543TIP3    H129120   0.811   1.717   2.154  0.5744 -0.8623  0.8466
 2543TIP3    H229121   0.868   1.582   2.189  0.1258 -1.3560 -0.2889
 2544TIP3   OH229122   2.054   6.238  15.610  0.5100  0.1014  0.3045
 2544TIP3    H129123   1.983   6.186  15.648  1.2381 -0.9907  0.2005
 2544TIP3    H229124   2.027   6.329  15.624 -0.4940 -0.2949  1.0403
 2545TIP3   OH229125   3.170   3.334   3.147  0.3438 -0.1368 -0.1315
 2545TIP3    H129126   3.128   3.249   3.130  1.4497 -0.7644  0.2059
 2545TIP3    H229127   3.246   3.335   3.090  0.3527  0.6312 -0.1098
 2546TIP3   OH229128   1.318   6.216  13.745  0.8862 -0.0321  0.0861
 2546TIP3    H129129   1.252   6.206  13.677  0.2025 -0.3548  0.7744
 2546TIP3    H229130   1.315   6.309  13.768 -1.2443 -0.4391  1.9186
 2547TIP3   OH229131   0.638   1.527  15.613 -0.7171 -0.1459  0.1787
 2547TIP3    H129132   0.552   1.488  15.601 -0.7395  0.2876 -1.1939
 2547TIP3    H229133   0.682   1.517  15.528  0.1263  0.7418  0.4850
 2548TIP3   OH229134   4.032   0.232  14.223  0.1969 -0.0490 -0.1425
 2548TIP3    H129135   3.982   0.299  14.270  1.3352  1.3276 -0.8054
 2548TIP3    H229136   3.988   0.224  14.139 -0.5538 -0.9180  0.3206
 2549TIP3   OH229137   4.874   3.951  16.850 -0.5255  0.0111 -0.1666
 2549TIP3    H129138   4.783   3.971  16.828 -0.3231  0.7904 -0.3382
 2549TIP3    H229139   4.872   3.925  16.942 -0.9959 -0.5247 -0.3279
 2550TIP3   OH229140   4.506   5.980  12.433  0.4554 -0.2217  0.1392
 2550TIP3    H129141   4.411   5.980  12.450  0.0999 -1.5658 -1.5752
 2550TIP3    H229142   4.516   6.028  12.351  1.2581 -0.1425  0.2762
 2551TIP3   OH229143   6.232   3.005   1.435  0.5638  0.3958  0.1710
 2551TIP3    H129144   6.140   2.994   1.414  0.9600  0.5369 -1.8070
 2551TIP3    H229145   6.258   2.923   1.477 -0.0903 -0.2549 -0.6857
 2552TIP3   OH229146   6.013   3.791   5.899 -0.2498 -0.4406 -0.3726
 2552TIP3    H129147   6.081   3.778   5.964 -1.4993 -0.9842  0.8678
 2552TIP3    H229148   5.955   3.715   5.908 -1.1043  0.0760 -1.2744
 2553TIP3   OH229149   1.022   5.352   4.533 -0.1915 -0.2461  0.1443
 2553TIP3    H129150   1.087   5.282   4.525  2.3238  1.9280  0.2378
 2553TIP3    H229151   0.999   5.353   4.626  2.8581  1.4925  1.0114
 2554TIP3   OH229152   2.586   5.636  11.734  0.4475  0.2262 -0.7656
 2554TIP3    H129153   2.494   5.615  11.719  0.3038 -0.9250  1.2147
 2554TIP3    H229154   2.606   5.595  11.819  2.5227  1.2696 -0.6748
 2555TIP3   OH229155   4.670   2.292  14.655 -0.1443  0.2555 -0.2322
 2555TIP3    H129156   4.700   2.310  14.566 -2.5162  0.4253 -1.0820
 2555TIP3    H229157   4.735   2.333  14.712  0.9848  0.8774 -1.8944
 2556TIP3   OH229158   6.688   1.512  13.100 -0.0626  0.5854 -0.0504
 2556TIP3    H129159   6.706   1.605  13.088 -1.2779  0.7711 -0.6060
 2556TIP3    H229160   6.629   1.508  13.176 -0.2002  0.3016 -0.1700
 2557TIP3   OH229161   5.696   5.022   2.417  0.0232 -0.4178  0.1835
 2557TIP3    H129162   5.624   5.079   2.392 -1.5691 -2.2357  0.3613
 2557TIP3    H229163   5.727   4.984   2.335 -0.6515 -1.2141  0.2810
 2558TIP3   OH229164   2.072   2.030   3.156 -0.3895  0.3316 -0.0586
 2558TIP3    H129165   2.088   1.957   3.215 -0.0134 -0.0853 -0.6699
 2558TIP3    H229166   2.083   1.994   3.068  0.2574  1.2215 -0.3628
 2559TIP3   OH229167   5.798   3.441  14.026  0.5269  0.3691 -0.2706
 2559TIP3    H129168   5.712   3.459  14.065  1.1798 -1.3048  2.1547
 2559TIP3    H229169   5.822   3.523  13.982 -0.9876  1.9049  1.5826
 2560TIP3   OH229170   2.174   2.941   4.225 -0.1337 -0.8567 -0.1565
 2560TIP3    H129171   2.134   2.873   4.279  1.2049 -1.1986  0.4490
 2560TIP3    H229172   2.110   3.012   4.226 -0.5334 -1.1994  1.1699
 2561TIP3   OH229173   1.085   3.460  12.603  0.0490 -0.1957 -0.0997
 2561TIP3    H129174   1.004   3.414  12.584 -0.4188  0.6664 -0.2731
 2561TIP3    H229175   1.062   3.521  12.673  0.1060  1.2141 -1.2550
 2562TIP3   OH229176   2.898   3.679   6.321 -0.0639 -0.3361 -0.2141
 2562TIP3    H129177   2.894   3.590   6.356  0.6130  0.0479  0.8835
 2562TIP3    H229178   2.903   3.735   6.399 -2.0217  0.7742 -0.8347
 2563TIP3   OH229179   3.420   0.902  15.459  0.3771 -0.4986  0.0230
 2563TIP3    H129180   3.384   0.862  15.538  0.2808  0.6096  0.5709
 2563TIP3    H229181   3.357   0.971  15.436  1.2719  0.3407  0.0067
 2564TIP3   OH229182   1.247   2.299   3.669 -0.0968  0.5665  0.3809
 2564TIP3    H129183   1.340   2.279   3.666 -0.1375 -0.7644  3.2819
 2564TIP3    H229184   1.240   2.378   3.723 -0.6435  0.3764  0.6055
 2565TIP3   OH229185   3.831   4.798  12.359  0.4980 -0.3158  0.2346
 2565TIP3    H129186   3.915   4.844  12.350  0.7210 -0.9297 -1.1253
 2565TIP3    H229187   3.775   4.837  12.291 -0.2064 -0.1906  0.8692
 2566TIP3   OH229188   2.562   4.285   2.027 -0.3110  0.0812 -0.4591
 2566TIP3    H129189   2.477   4.303   1.986 -0.3249 -0.9524 -0.9361
 2566TIP3    H229190   2.597   4.211   1.976 -0.6405 -1.7648  1.8392
 2567TIP3   OH229191   2.419   5.863   2.046  0.1393 -0.1814 -0.0712
 2567TIP3    H129192   2.379   5.807   2.112  1.0185 -0.8213 -0.0632
 2567TIP3    H229193   2.425   5.949   2.087 -2.8689  0.4475 -0.7014
 2568TIP3   OH229194   4.777   4.146   0.280  0.3039  0.0363  1.1327
 2568TIP3    H129195   4.794   4.206   0.352  2.1780 -1.1319  1.7458
 2568TIP3    H229196   4.822   4.185   0.205  1.1809 -0.3941  1.4307
 2569TIP3   OH229197   2.748   4.014  15.097 -0.4983 -0.7549 -0.2253
 2569TIP3    H129198   2.658   4.002  15.126 -0.3795  0.2877  0.6283
 2569TIP3    H229199   2.776   4.097  15.136  0.7704 -0.9639 -0.6202
 2570TIP3   OH229200   4.188   0.528   1.137 -1.5615  0.2002  0.6392
 2570TIP3    H129201   4.195   0.445   1.182  2.7159  0.9314  1.6955
 2570TIP3    H229202   4.200   0.594   1.205  1.7154  1.4212 -0.9164
 2571TIP3   OH229203   3.334   0.237  15.553  0.4053  0.6375  0.0089
 2571TIP3    H129204   3.393   0.193  15.615 -1.6291 -2.0334  0.2329
 2571TIP3    H229205   3.263   0.270  15.607 -1.2162 -1.4092 -0.7448
 2572TIP3   OH229206   5.114   0.206  16.542 -0.7738  0.0512  0.0524
 2572TIP3    H129207   5.139   0.124  16.500  1.6545 -0.4672  2.2486
 2572TIP3    H229208   5.040   0.183  16.599 -2.1733  0.1489 -1.6473
 2573TIP3   OH229209   2.607   2.544  12.746 -0.1622 -0.5667 -0.0484
 2573TIP3    H129210   2.520   2.507  12.735 -0.9636 -0.0482  3.3417
 2573TIP3    H229211   2.663   2.469  12.766 -0.3421 -0.6768  0.0457
 2574TIP3   OH229212   4.294   1.361   3.503 -0.2653  0.4594  0.4614
 2574TIP3    H129213   4.244   1.442   3.491  0.0720  0.6655  0.4344
 2574TIP3    H229214   4.229   1.291   3.493 -0.3896  0.6906 -0.4389
 2575TIP3   OH229215   5.405   1.347  13.408 -0.0768 -0.4099 -0.4006
 2575TIP3    H129216   5.424   1.423  13.464  1.0080 -0.7549 -0.2915
 2575TIP3    H229217   5.422   1.271  13.464 -1.5389 -0.7522 -0.3816
 2576TIP3   OH229218   5.048   3.190  13.903 -0.0061  0.4405 -0.2190
 2576TIP3    H129219   5.108   3.214  13.973  0.5303  0.1377 -0.5692
 2576TIP3    H229220   5.103   3.146  13.838 -0.5645  0.3657 -0.6496
 2577TIP3   OH229221   4.782   1.636  13.862 -0.5357  0.3175  0.4326
 2577TIP3    H129222   4.787   1.554  13.911 -1.3446 -0.5902 -0.9384
 2577TIP3    H229223   4.697   1.674  13.888 -0.0442  0.8764  1.2673
 2578TIP3   OH229224   2.713   6.564   5.348  0.6933 -0.2286  0.1673
 2578TIP3    H129225   2.804   6.549   5.371  1.2878  1.2136 -1.0630
 2578TIP3    H229226   2.711   6.654   5.316 -1.2465 -0.0932  0.5217
 2579TIP3   OH229227   5.636   3.072   4.287 -0.3198 -0.2810 -0.8548
 2579TIP3    H129228   5.652   3.145   4.346 -0.2911 -1.1379  0.2441
 2579TIP3    H229229   5.578   3.107   4.219  0.2639  0.9232 -0.7451
 2580TIP3   OH229230   4.037   3.946   1.388  0.3399 -0.2137  0.0367
 2580TIP3    H129231   3.959   3.909   1.429  0.2476  0.3738  0.4052
 2580TIP3    H229232   4.023   3.935   1.295 -0.3096  0.1149  0.0869
 2581TIP3   OH229233   1.156   2.241   1.238 -0.2275 -0.2642  0.1808
 2581TIP3    H129234   1.218   2.168   1.237  0.9094  0.6569  0.7408
 2581TIP3    H229235   1.077   2.206   1.196  1.7353 -0.5479 -3.8394
 2582TIP3   OH229236   2.213   6.593   5.598  0.1471  0.0083  0.5270
 2582TIP3    H129237   2.212   6.501   5.573  2.0760  0.7228 -2.7419
 2582TIP3    H229238   2.176   6.639   5.523  0.3880  2.0173  1.5633
 2583TIP3   OH229239   0.951   6.244   4.412 -0.0274 -0.0123 -0.2116
 2583TIP3    H129240   0.990   6.202   4.335  0.8773 -1.0449  0.7651
 2583TIP3    H229241   1.017   6.307   4.441 -0.0562 -0.1378  0.1294
 2584TIP3   OH229242   6.526   0.969  14.547 -0.1413 -0.1614  0.6174
 2584TIP3    H129243   6.547   0.877  14.529 -0.8729 -0.2318  0.0983
 2584TIP3    H229244   6.559   1.017  14.472 -1.6847 -0.2604 -0.1482
 2585TIP3   OH229245   3.443   0.884  17.501  0.2808 -0.2170  0.5521
 2585TIP3    H129246   3.520   0.830  17.486 -0.8404 -1.9838  0.8934
 2585TIP3    H229247   3.476   0.963  17.542  1.7862 -1.4356  1.7656
 2586TIP3   OH229248   4.814   0.243   3.740  0.1933 -0.6220 -0.5097
 2586TIP3    H129249   4.793   0.296   3.816 -0.1164 -0.2887 -0.8225
 2586TIP3    H229250   4.780   0.156   3.761 -0.5020 -0.3628 -0.5480
 2587TIP3   OH229251   1.926   2.846  14.183 -0.2099 -0.3445  0.3592
 2587TIP3    H129252   1.858   2.787  14.216 -1.1367  0.9594  0.8992
 2587TIP3    H229253   1.956   2.893  14.261  2.0655 -1.5737  0.2939
 2588TIP3   OH229254   6.170   0.518   1.103 -0.5326 -0.5256 -0.2205
 2588TIP3    H129255   6.116   0.535   1.026 -1.4700 -1.0671  0.3031
 2588TIP3    H229256   6.230   0.448   1.075 -1.8042 -1.7209 -0.0573
 2589TIP3   OH229257   5.095   2.248   5.132  0.0860  0.2347  0.0262
 2589TIP3    H129258   5.033   2.229   5.062  0.8199 -1.3353 -0.2251
 2589TIP3    H229259   5.104   2.166   5.180  1.9328  0.4261  0.0648
 2590TIP3   OH229260   3.613   2.242  16.878 -0.7910  0.1589 -0.0499
 2590TIP3    H129261   3.519   2.228  16.879 -0.7658 -0.0625  1.0685
 2590TIP3    H229262   3.627   2.313  16.815 -1.6989  0.1692 -0.2413
 2591TIP3   OH229263   6.594   5.531   0.071  0.0706 -0.2978  0.2985
 2591TIP3    H129264   6.514   5.549   0.122 -0.8579 -1.0971 -0.8164
 2591TIP3    H229265   6.575   5.566  -0.016  0.1305 -2.2344 -0.5448
 2592TIP3   OH229266   3.002   4.746  17.073 -0.2885  0.3499 -0.1613
 2592TIP3    H129267   2.910   4.770  17.083  0.2372  1.8296  1.5651
 2592TIP3    H229268   3.010   4.719  16.981 -2.1581  1.3977 -0.6814
 2593TIP3   OH229269   1.647   1.653  11.772 -0.2869 -0.1244 -0.7534
 2593TIP3    H129270   1.725   1.703  11.794 -1.1799  0.8474  0.4010
 2593TIP3    H229271   1.641   1.657  11.677  1.2369 -0.5112 -0.8812
 2594TIP3   OH229272   6.043   3.431  14.824  0.4099 -0.0570 -0.0754
 2594TIP3    H129273   6.106   3.482  14.875 -0.2294 -0.0300  0.7074
 2594TIP3    H229274   6.095   3.391  14.754  0.9663  1.5404 -0.6256
 2595TIP3   OH229275   2.624   2.171   2.481  0.6893  1.3061 -0.4160
 2595TIP3    H129276   2.716   2.146   2.488 -0.1861 -2.3704 -0.0476
 2595TIP3    H229277   2.605   2.213   2.564  1.5458  0.0718  0.4471
 2596TIP3   OH229278   1.353   4.548  16.890 -0.0864 -0.5151  0.1662
 2596TIP3    H129279   1.322   4.463  16.859 -1.1903  0.1879 -0.7533
 2596TIP3    H229280   1.285   4.610  16.863  1.2245  0.8223 -0.2210
 2597TIP3   OH229281   0.914   2.909   6.889  0.3862 -0.1911  0.2555
 2597TIP3    H129282   0.886   2.819   6.874  1.1481 -0.0834 -2.1590
 2597TIP3    H229283   0.833   2.960   6.894 -0.1083 -0.3678 -3.3179
 2598TIP3   OH229284   0.715   0.140   1.226  0.2283  0.0758  0.2461
 2598TIP3    H129285   0.803   0.109   1.207  0.6368  1.2910  0.0383
 2598TIP3    H229286   0.682   0.173   1.142  0.5975  2.0026  0.7986
 2599TIP3   OH229287   0.873   5.070  15.967  0.5672 -0.4452 -0.9907
 2599TIP3    H129288   0.880   5.153  16.014  1.9035 -0.3030 -1.4057
 2599TIP3    H229289   0.962   5.035  15.966  0.1070 -1.6547 -1.2442
 2600TIP3   OH229290   0.569   5.844  16.881  0.2341  0.0489 -0.0719
 2600TIP3    H129291   0.513   5.766  16.889 -1.0573  1.0084  0.6082
 2600TIP3    H229292   0.631   5.822  16.811  0.5388 -1.9531  0.7522
 2601TIP3   OH229293   3.245   0.300   1.305 -0.6995  0.0300 -0.3557
 2601TIP3    H129294   3.335   0.330   1.294 -0.7540  0.3572  0.0523
 2601TIP3    H229295   3.204   0.315   1.220 -0.8818  1.6891 -0.0120
 2602TIP3   OH229296   1.654   5.395  12.145  0.1216  0.1593 -0.0593
 2602TIP3    H129297   1.635   5.315  12.194 -1.3182 -0.8128 -2.0552
 2602TIP3    H229298   1.568   5.435  12.131  0.5361  0.6180 -1.3984
 2603TIP3   OH229299   6.417   2.115  15.630 -0.2149  0.7011  0.1120
 2603TIP3    H129300   6.369   2.048  15.678  0.3677  1.3142  1.5900
 2603TIP3    H229301   6.444   2.071  15.549  1.2013 -1.2903  1.5566
 2604TIP3   OH229302   2.484   5.059   0.239  0.1525 -0.0278 -0.0535
 2604TIP3    H129303   2.496   4.997   0.167  0.5584  1.2386 -1.1353
 2604TIP3    H229304   2.514   5.143   0.203 -0.2148  0.7657  1.4035
 2605TIP3   OH229305   0.585   3.234   3.726 -0.0512 -0.4577  0.8464
 2605TIP3    H129306   0.615   3.292   3.796 -1.5752  1.5332 -0.0576
 2605TIP3    H229307   0.564   3.293   3.653  0.2897 -2.3428 -0.8838
 2606TIP3   OH229308   3.813   0.769   4.903 -0.6560 -0.6819 -0.3255
 2606TIP3    H129309   3.718   0.773   4.895 -0.8151 -2.7259  0.0676
 2606TIP3    H229310   3.844   0.848   4.859 -2.5910  0.9855  1.0897
 2607TIP3   OH229311   4.067   3.930  13.597  0.1299 -0.9097 -0.5766
 2607TIP3    H129312   4.074   3.904  13.506 -2.5232 -1.7216 -0.6345
 2607TIP3    H229313   3.979   3.965  13.606  0.0206 -1.5678  1.8374
 2608TIP3   OH229314   2.410   0.615  10.951 -0.3481  0.7791  0.4048
 2608TIP3    H129315   2.490   0.629  10.901 -0.8285 -1.2457 -1.0238
 2608TIP3    H229316   2.420   0.527  10.988 -1.5863  0.8215  0.8772
 2609TIP3   OH229317   2.273   2.203   6.313  0.7421 -0.3154 -0.0120
 2609TIP3    H129318   2.228   2.233   6.234  2.0551  2.4433  0.1518
 2609TIP3    H229319   2.208   2.150   6.359 -1.5793  1.6501 -0.8167
 2610TIP3   OH229320   2.886   3.712  16.827 -0.7091 -0.2147 -0.1492
 2610TIP3    H129321   2.796   3.732  16.802 -0.7630  3.0740  2.0046
 2610TIP3    H229322   2.881   3.689  16.919  0.4711 -2.2851 -0.5582
 2611TIP3   OH229323   1.566   3.725   4.316  0.3929  0.5739  0.2164
 2611TIP3    H129324   1.522   3.684   4.242 -0.2635 -0.3861  1.1199
 2611TIP3    H229325   1.657   3.732   4.289  0.4679 -1.2365 -0.0726
 2612TIP3   OH229326   4.046   3.616  13.519 -0.2590 -0.1170 -0.0716
 2612TIP3    H129327   4.013   3.650  13.436 -0.3522 -1.9025 -0.8168
 2612TIP3    H229328   4.142   3.621  13.510 -0.2094 -1.9718 -1.0896
 2613TIP3   OH229329   1.485   4.482  17.128 -0.0522  0.8055  0.4776
 2613TIP3    H129330   1.449   4.517  17.046  0.9447  0.2082 -0.2407
 2613TIP3    H229331   1.533   4.404  17.101 -0.4078  0.1211  1.7578
 2614TIP3   OH229332   1.029   1.438  14.261 -0.2941 -0.2301  0.1741
 2614TIP3    H129333   1.082   1.422  14.338  1.9059  0.5052 -1.1017
 2614TIP3    H229334   1.055   1.370  14.198 -0.8185  0.1796 -0.5113
 2615TIP3   OH229335   5.423   4.188   1.449  0.3192  0.3082  0.0973
 2615TIP3    H129336   5.476   4.158   1.523 -0.3943  1.8361  1.2697
 2615TIP3    H229337   5.442   4.125   1.380  3.9306  0.9139  0.3075
 2616TIP3   OH229338   1.554   2.098  11.214  0.3335 -0.0379  0.0589
 2616TIP3    H129339   1.471   2.103  11.166  0.0282 -2.0496  0.3175
 2616TIP3    H229340   1.621   2.111  11.147 -0.1462  0.6647 -0.3056
 2617TIP3   OH229341   3.552   3.180   5.898 -0.2053  0.0712 -0.0520
 2617TIP3    H129342   3.501   3.113   5.851 -0.4676 -0.7877  1.3771
 2617TIP3    H229343   3.632   3.135   5.925  0.9405  1.1698 -1.5116
 2618TIP3   OH229344   5.336   6.524  17.643 -0.0453 -0.0515  0.0318
 2618TIP3    H129345   5.422   6.497  17.610 -0.2911 -1.0151  0.1517
 2618TIP3    H229346   5.274   6.496  17.575 -0.1832  1.5426 -0.5286
 2619TIP3   OH229347   2.199   1.481  13.796  0.0564  0.1103 -0.1879
 2619TIP3    H129348   2.282   1.436  13.811  1.3300  2.2211 -0.4113
 2619TIP3    H229349   2.215   1.570  13.828 -2.7323  0.1375  1.4218
 2620TIP3   OH229350   3.700   3.023  15.337 -0.3772 -0.1210  0.3113
 2620TIP3    H129351   3.660   3.101  15.377  0.0230  1.7740 -2.6448
 2620TIP3    H229352   3.625   2.969  15.311 -0.7081 -0.1897  1.3691
 2621TIP3   OH229353   5.124   5.190   4.816  0.3280 -0.4512 -0.1510
 2621TIP3    H129354   5.148   5.200   4.908 -1.1320  0.1250  0.1770
 2621TIP3    H229355   5.142   5.275   4.777 -0.0543 -0.3752 -0.1637
 2622TIP3   OH229356   1.718   2.921  12.250  1.0224 -0.3297 -0.2769
 2622TIP3    H129357   1.627   2.943  12.230  1.3564  0.3688 -1.0660
 2622TIP3    H229358   1.768   2.956  12.177  2.0450  0.2933  0.6791
 2623TIP3   OH229359   3.695   6.517  12.009  0.2719 -0.2272  0.5461
 2623TIP3    H129360   3.770   6.575  12.017  0.7402 -0.7669  0.1427
 2623TIP3    H229361   3.624   6.574  11.978  0.6539  0.1786  0.4032
 2624TIP3   OH229362   5.794   3.901  17.160  0.2999 -0.6672 -0.6755
 2624TIP3    H129363   5.863   3.962  17.188  0.0416 -0.2504 -0.9297
 2624TIP3    H229364   5.783   3.919  17.067  0.5503 -1.4401 -0.8601
 2625TIP3   OH229365   3.740   3.866   0.356  0.5813 -0.5158 -0.9781
 2625TIP3    H129366   3.711   3.938   0.301  0.4643 -1.4111 -2.1517
 2625TIP3    H229367   3.683   3.793   0.332  1.1079 -1.1706 -0.3001
 2626TIP3   OH229368   0.882   0.554   1.025 -0.6504 -0.1812 -0.4215
 2626TIP3    H129369   0.917   0.563   0.936  1.5116 -1.6123  0.2006
 2626TIP3    H229370   0.950   0.591   1.082 -0.9045 -1.4288  0.7599
 2627TIP3   OH229371   6.649   1.681   2.605  0.4148 -0.6693  0.0184
 2627TIP3    H129372   6.606   1.616   2.660  1.6643 -0.2330  1.5476
 2627TIP3    H229373   6.742   1.663   2.613  0.6813 -0.0376 -1.2848
 2628TIP3   OH229374   3.299   1.715  16.500  0.1008 -0.1271  0.0441
 2628TIP3    H129375   3.337   1.700  16.413  0.1958  1.3517 -0.2016
 2628TIP3    H229376   3.375   1.728  16.557  0.0508 -1.4405  0.4465
 2629TIP3   OH229377   1.980   3.210  16.757  0.0923  0.2389 -0.3751
 2629TIP3    H129378   2.062   3.223  16.805 -0.0048 -1.9184  0.4809
 2629TIP3    H229379   1.932   3.292  16.769  1.9885  1.4740 -0.7079
 2630TIP3   OH229380   5.783   4.079   0.630  0.0289  0.1282  0.4965
 2630TIP3    H129381   5.737   4.163   0.642 -0.1886  0.4958 -2.2315
 2630TIP3    H229382   5.876   4.103   0.627 -0.0738  0.4142 -0.9882
 2631TIP3   OH229383   3.648   1.149  11.795  0.1213  0.4219  0.1657
 2631TIP3    H129384   3.635   1.215  11.728  0.2364 -1.6440 -2.0403
 2631TIP3    H229385   3.719   1.094  11.761  1.2270  0.1061  2.7090
 2632TIP3   OH229386   1.349   1.334   2.149  0.4369  0.1472  0.1046
 2632TIP3    H129387   1.342   1.387   2.070  1.3240 -1.1208 -0.8690
 2632TIP3    H229388   1.369   1.246   2.117  1.1684 -0.3325  1.7607
 2633TIP3   OH229389   4.339   5.387  12.683  0.6764  0.4481  0.5381
 2633TIP3    H129390   4.367   5.442  12.756 -0.6518  0.9909  0.6782
 2633TIP3    H229391   4.360   5.438  12.605 -1.2834  1.5855  0.6898
 2634TIP3   OH229392   1.619   4.508  16.203 -0.4935 -0.0166  0.2785
 2634TIP3    H129393   1.666   4.521  16.120 -0.7810 -1.5544 -0.1503
 2634TIP3    H229394   1.664   4.435  16.245 -2.1936 -1.2284  0.0704
 2635TIP3   OH229395   0.196   4.436  12.132 -0.0491 -0.0096 -1.0802
 2635TIP3    H129396   0.277   4.426  12.183  1.0368  2.2585 -2.1887
 2635TIP3    H229397   0.127   4.405  12.190  1.4285 -0.1569  0.6882
 2636TIP3   OH229398   6.386   0.684  12.159  0.2946  0.5346  0.4022
 2636TIP3    H129399   6.317   0.618  12.154  0.6387  0.1396  0.7383
 2636TIP3    H229400   6.383   0.715  12.249  1.2557 -0.2755  0.7421
 2637TIP3   OH229401   1.359   1.060  15.692  0.5649  0.4874  0.6073
 2637TIP3    H129402   1.438   1.069  15.639  0.2119  0.9309  0.1441
 2637TIP3    H229403   1.388   1.013  15.770  0.6262 -2.3572 -0.9922
 2638TIP3   OH229404   3.187   3.042  16.421  0.2288  0.1250 -0.1227
 2638TIP3    H129405   3.172   3.118  16.365  1.1844 -0.1750 -0.8057
 2638TIP3    H229406   3.127   2.975  16.387  1.0091 -0.1485 -0.9958
 2639TIP3   OH229407   0.415   0.552  13.349  0.1689  0.1651 -0.5066
 2639TIP3    H129408   0.371   0.507  13.277  3.3374  0.0554 -2.5635
 2639TIP3    H229409   0.437   0.482  13.411  0.4576 -0.2745 -1.1068
 2640TIP3   OH229410   3.236   2.109  11.374 -0.2516  0.4934 -0.0935
 2640TIP3    H129411   3.151   2.089  11.335  0.0140  0.3234 -0.5924
 2640TIP3    H229412   3.224   2.196  11.413 -0.0130  1.4905 -2.1190
 2641TIP3   OH229413   3.228   3.584   0.898  0.0647  0.0539  0.3203
 2641TIP3    H129414   3.158   3.519   0.891 -0.2555  0.4308 -0.0590
 2641TIP3    H229415   3.215   3.641   0.823  2.2265 -1.2371 -1.1232
 2642TIP3   OH229416   1.112   0.627  12.177  0.4133 -0.5800  0.0074
 2642TIP3    H129417   1.084   0.702  12.229  0.9019 -0.8220  0.6419
 2642TIP3    H229418   1.196   0.601  12.216  0.0510 -1.7140  0.0928
 2643TIP3   OH229419   3.025   2.402  12.627  0.0309 -0.2453  0.2980
 2643TIP3    H129420   3.107   2.357  12.650  1.0028  1.8886  1.2252
 2643TIP3    H229421   3.035   2.424  12.535  0.3271 -0.2946  0.3177
 2644TIP3   OH229422   4.634   3.183   2.764  0.0526  0.1130 -0.4724
 2644TIP3    H129423   4.723   3.209   2.737  0.1808  0.7731  0.5176
 2644TIP3    H229424   4.625   3.093   2.733  0.8645  0.2223 -1.0716
 2645TIP3   OH229425   6.712   2.454  13.686 -0.1648 -0.2051  0.1311
 2645TIP3    H129426   6.745   2.513  13.619  1.8820  0.7420  1.8537
 2645TIP3    H229427   6.619   2.443  13.665  0.3896 -0.1349 -2.9083
 2646TIP3   OH229428   0.801   1.811  13.767 -0.3668 -0.3344 -0.0684
 2646TIP3    H129429   0.783   1.790  13.675 -0.3668  1.4302 -0.5116
 2646TIP3    H229430   0.892   1.842  13.767 -1.1213  2.0312  0.0505
 2647TIP3   OH229431   0.802   1.407   5.044  0.0409  0.3860  0.6279
 2647TIP3    H129432   0.822   1.319   5.076  2.3561  1.2349  1.7888
 2647TIP3    H229433   0.876   1.429   4.987 -0.3148  1.7123  0.6373
 2648TIP3   OH229434   0.520   4.133   2.831 -0.0601  0.1089  0.2677
 2648TIP3    H129435   0.568   4.194   2.887  2.0454 -0.4434 -0.8635
 2648TIP3    H229436   0.527   4.049   2.876 -3.0354  0.5488  1.8722
 2649TIP3   OH229437   0.239   2.099  11.212  0.0118  0.0581  0.6272
 2649TIP3    H129438   0.185   2.128  11.138 -1.3948 -0.8744  1.2450
 2649TIP3    H229439   0.329   2.108  11.180 -0.5052  1.1611 -0.6263
 2650TIP3   OH229440   2.062   1.474  12.777 -0.1648  0.2566 -0.2553
 2650TIP3    H129441   2.005   1.550  12.789  0.5630  0.7984 -0.1922
 2650TIP3    H229442   2.008   1.400  12.806  0.2062  1.0777  2.8813
 2651TIP3   OH229443   5.403   5.575   6.328 -0.4293 -0.2847 -0.3427
 2651TIP3    H129444   5.437   5.658   6.294  0.8461 -1.2250 -1.4450
 2651TIP3    H229445   5.431   5.574   6.419  1.7986 -0.6147 -0.9793
 2652TIP3   OH229446   3.523   1.877  11.041  0.5366  1.2600  0.4220
 2652TIP3    H129447   3.568   1.935  10.980 -0.4631  0.1265 -1.4632
 2652TIP3    H229448   3.494   1.803  10.988 -0.9888  0.5393  2.1385
 2653TIP3   OH229449   4.344   0.814   6.541  0.0207 -0.2999 -0.2053
 2653TIP3    H129450   4.357   0.897   6.495 -1.1244 -0.0175 -0.0483
 2653TIP3    H229451   4.269   0.774   6.498 -1.4348  0.2274  1.7054
 2654TIP3   OH229452   5.465   3.677   6.101 -0.1840 -0.4495  0.0996
 2654TIP3    H129453   5.534   3.615   6.078 -0.4881 -0.5932 -0.4306
 2654TIP3    H229454   5.406   3.676   6.026  0.2801  1.1590 -0.3176
 2655TIP3   OH229455   2.943   6.069   4.722 -0.5207  0.2848  0.1371
 2655TIP3    H129456   2.971   6.159   4.738 -1.5637  0.6566 -0.0629
 2655TIP3    H229457   2.947   6.059   4.627  0.0060 -0.0215  0.1893
 2656TIP3   OH229458   4.310   4.807  15.903 -0.2968  0.1558  0.1150
 2656TIP3    H129459   4.397   4.841  15.923 -0.2213  0.7359 -1.1087
 2656TIP3    H229460   4.279   4.769  15.986  1.0401  0.0874  0.6025
 2657TIP3   OH229461   1.917   0.083  15.856  0.5351 -0.1553 -0.1631
 2657TIP3    H129462   1.990   0.140  15.880  0.8605 -0.8528  0.5838
 2657TIP3    H229463   1.898   0.104  15.765 -0.5078  2.3758  0.5506
 2658TIP3   OH229464   6.580   5.061   6.140  0.0594 -0.0888  0.2840
 2658TIP3    H129465   6.623   4.990   6.187  1.8100 -0.7350 -2.1033
 2658TIP3    H229466   6.496   5.024   6.113  0.9883 -1.4067 -1.0225
 2659TIP3   OH229467   4.342   5.759   3.224 -0.7186 -0.7117  0.0929
 2659TIP3    H129468   4.269   5.799   3.271 -1.0259  0.9671 -1.6872
 2659TIP3    H229469   4.338   5.797   3.136  1.3630 -1.7684 -0.5265
 2660TIP3   OH229470   2.803   1.611  17.231 -0.5889 -0.2118 -0.2485
 2660TIP3    H129471   2.712   1.611  17.200 -0.8767 -0.1343  0.5712
 2660TIP3    H229472   2.818   1.700  17.263  0.1113  0.0683 -1.2895
 2661TIP3   OH229473   4.811   3.796  11.691 -0.6013 -0.0534 -0.2926
 2661TIP3    H129474   4.882   3.732  11.690  0.2407  0.8497  0.2208
 2661TIP3    H229475   4.772   3.788  11.778 -0.9387 -0.3229 -0.4626
 2662TIP3   OH229476   3.062   5.656  16.064  0.3121 -0.5082 -0.4644
 2662TIP3    H129477   3.070   5.600  16.141  0.3312  0.5887  0.3468
 2662TIP3    H229478   3.065   5.595  15.990 -1.4804 -1.7756  0.4204
 2663TIP3   OH229479   4.588   2.455  15.685 -0.3357 -0.4801 -0.1878
 2663TIP3    H129480   4.644   2.405  15.744 -1.4877 -2.0873 -0.3764
 2663TIP3    H229481   4.648   2.502  15.628  0.8014  0.4090  1.6625
 2664TIP3   OH229482   1.503   4.009  13.137 -0.7826 -0.0768  0.2366
 2664TIP3    H129483   1.568   4.011  13.067  0.4682  1.2420  1.3622
 2664TIP3    H229484   1.445   4.083  13.117 -0.0547  0.6943  0.8787
 2665TIP3   OH229485   6.316   1.794  15.317  0.1341 -0.2432  0.6186
 2665TIP3    H129486   6.258   1.717  15.317  1.0753 -1.0154  2.1350
 2665TIP3    H229487   6.263   1.864  15.280 -1.3711 -1.2103  0.8382
 2666TIP3   OH229488   2.328   5.949   4.272 -0.2017 -0.4040 -0.2343
 2666TIP3    H129489   2.317   6.042   4.256  1.3220 -0.3894 -1.4416
 2666TIP3    H229490   2.240   5.917   4.291 -0.9567  1.0261 -1.1488
 2667TIP3   OH229491   4.440   6.644  11.523  0.8271  0.3737 -0.0205
 2667TIP3    H129492   4.424   6.736  11.545 -0.5706 -0.5309  3.2166
 2667TIP3    H229493   4.530   6.628  11.552  1.6478  1.0090 -2.0127
 2668TIP3   OH229494   6.428   5.839   0.332  0.2412 -0.0444 -0.3919
 2668TIP3    H129495   6.451   5.778   0.402  0.2530  0.9261  0.4876
 2668TIP3    H229496   6.384   5.911   0.377  0.4582  0.7138 -1.3525
 2669TIP3   OH229497   0.322   0.842   1.927  0.3164 -0.0700 -0.5045
 2669TIP3    H129498   0.412   0.829   1.898  0.6506  0.5836  0.2033
 2669TIP3    H229499   0.301   0.932   1.901 -0.9589 -0.9392 -2.7614
 2670TIP3   OH229500   4.732   0.053  17.230 -0.0884 -0.2528 -0.0285
 2670TIP3    H129501   4.716  -0.039  17.251 -1.1120  0.3381  2.0263
 2670TIP3    H229502   4.659   0.078  17.173  0.5299 -0.8532 -1.1029
 2671TIP3   OH229503   3.270   5.350  13.163 -0.8181 -0.1349  0.6317
 2671TIP3    H129504   3.207   5.282  13.188  0.3451 -0.4909  2.8114
 2671TIP3    H229505   3.265   5.353  13.067 -3.7874 -0.4518  0.6765
 2672TIP3   OH229506   2.609   4.252  13.031 -0.1003  0.0259  0.0360
 2672TIP3    H129507   2.519   4.220  13.024  0.0067 -0.1349 -0.6325
 2672TIP3    H229508   2.650   4.227  12.949  0.2886  0.9405 -0.0646
 2673TIP3   OH229509   5.707   4.852  13.363  0.6848  0.1542 -0.2797
 2673TIP3    H129510   5.677   4.765  13.390  1.0472  0.2876  0.5936
 2673TIP3    H229511   5.744   4.838  13.276 -1.6957 -0.0451 -1.3253
 2674TIP3   OH229512   4.435   5.480   2.399 -0.4721 -0.0139  0.3295
 2674TIP3    H129513   4.437   5.489   2.304  1.6310 -0.6215  0.2811
 2674TIP3    H229514   4.342   5.472   2.420 -1.0189  0.7439 -1.6022
 2675TIP3   OH229515   1.726   5.169   0.577 -0.5636 -0.0662 -0.0942
 2675TIP3    H129516   1.720   5.232   0.648  2.4269 -0.6859  0.8277
 2675TIP3    H229517   1.679   5.210   0.505 -2.1782  1.3589  1.6676
 2676TIP3   OH229518   5.325   6.455   6.723 -0.1190  0.5527 -0.3203
 2676TIP3    H129519   5.407   6.504   6.722 -0.7493  1.6255 -0.5422
 2676TIP3    H229520   5.350   6.366   6.750  0.8263  1.3554  1.5934
 2677TIP3   OH229521   5.890   2.343   5.222  0.3622 -0.2537 -0.1537
 2677TIP3    H129522   5.981   2.359   5.198  0.4893 -0.5900  0.0852
 2677TIP3    H229523   5.839   2.405   5.170  0.7045 -0.2852 -0.5264
 2678TIP3   OH229524   3.201   2.249  12.232 -0.0449  0.0793 -0.7024
 2678TIP3    H129525   3.136   2.272  12.166 -0.8504 -1.0025 -0.3154
 2678TIP3    H229526   3.159   2.182  12.286  1.5126 -0.9064 -0.6395
 2679TIP3   OH229527   1.069   0.931  15.080  0.0417 -0.0917  0.0295
 2679TIP3    H129528   1.005   1.002  15.075 -0.9244 -1.0013 -1.3088
 2679TIP3    H229529   1.024   0.860  15.125  0.9200  0.0278  1.1519
 2680TIP3   OH229530   1.334   1.309   3.396  0.7228  0.0045 -0.4161
 2680TIP3    H129531   1.372   1.273   3.315  0.0022  0.4612 -0.9704
 2680TIP3    H229532   1.359   1.247   3.464  0.7230 -0.7839 -1.1181
 2681TIP3   OH229533   4.315   1.898  12.030  0.4085  0.3240  0.5205
 2681TIP3    H129534   4.289   1.988  12.008  1.3538  0.6650  0.7467
 2681TIP3    H229535   4.378   1.908  12.101  1.4843 -0.4275 -0.2766
 2682TIP3   OH229536   2.740   2.007   6.515  0.1016 -0.2784  0.1691
 2682TIP3    H129537   2.815   2.067   6.523 -0.5800  0.9017 -1.7150
 2682TIP3    H229538   2.716   2.011   6.423 -1.5262 -1.5925  0.5037
 2683TIP3   OH229539   5.545   1.977   1.131  0.5727 -0.3346 -0.0643
 2683TIP3    H129540   5.641   1.980   1.133  0.6849  0.0917 -2.6718
 2683TIP3    H229541   5.524   1.903   1.075 -0.7154 -1.1322  1.3750
 2684TIP3   OH229542   0.238   0.105   2.806 -0.5062 -0.0517  0.8195
 2684TIP3    H129543   0.161   0.158   2.830 -0.5893 -0.4219  1.3749
 2684TIP3    H229544   0.289   0.163   2.748  1.0477  1.9343  3.9049
 2685TIP3   OH229545   6.572   1.162   1.556 -0.6524 -0.0555 -0.2233
 2685TIP3    H129546   6.544   1.252   1.542  0.9101  0.3950 -0.6878
 2685TIP3    H229547   6.618   1.138   1.475  0.0261 -0.8345  0.3659
 2686TIP3   OH229548   4.690   6.587   5.250  0.1639  0.6039 -0.2903
 2686TIP3    H129549   4.694   6.590   5.154  1.4730 -2.0248 -0.4027
 2686TIP3    H229550   4.615   6.530   5.269  0.0465  0.9350  0.2594
 2687TIP3   OH229551   1.696   1.862   6.425  0.2982  0.0488  0.8930
 2687TIP3    H129552   1.619   1.876   6.480  0.3234  1.3335  0.6403
 2687TIP3    H229553   1.761   1.823   6.483 -0.2390 -0.1820  1.3447
 2688TIP3   OH229554   0.820   0.721   3.160 -0.5636 -0.1741 -0.1346
 2688TIP3    H129555   0.830   0.658   3.089  2.0326 -0.8001  0.7058
 2688TIP3    H229556   0.838   0.671   3.239 -0.8231  1.1008  0.7535
 2689TIP3   OH229557   0.939   2.494  16.771 -0.5289  0.6959 -0.4522
 2689TIP3    H129558   0.913   2.483  16.863  0.6550  1.5084  0.0101
 2689TIP3    H229559   0.982   2.580  16.769  2.3136 -0.6314 -1.0658
 2690TIP3   OH229560   3.835   6.461   2.947  0.7678  0.2266  0.1862
 2690TIP3    H129561   3.883   6.378   2.948  0.8228  0.2444 -0.5244
 2690TIP3    H229562   3.747   6.438   2.917  0.5303  0.2967  0.8294
 2691TIP3   OH229563   4.159   3.651   4.208  0.4755 -0.3987 -0.0615
 2691TIP3    H129564   4.226   3.622   4.270 -0.2967  0.2949  1.1239
 2691TIP3    H229565   4.202   3.720   4.158  0.8178 -0.3088  0.3459
 2692TIP3   OH229566   4.941   3.642  12.103 -0.2634  0.2537  0.3053
 2692TIP3    H129567   5.006   3.696  12.058  1.9518 -0.8091  2.0394
 2692TIP3    H229568   4.974   3.634  12.193 -2.2833 -1.1888  0.9977
 2693TIP3   OH229569   2.113   5.792  12.911  0.0387  0.1681 -0.3662
 2693TIP3    H129570   2.125   5.796  13.006  0.1580  3.1537 -0.3992
 2693TIP3    H229571   2.199   5.771  12.876  0.2399  0.1118  0.1599
 2694TIP3   OH229572   4.242   6.010   5.116 -0.1306  0.2810  0.7008
 2694TIP3    H129573   4.326   5.973   5.087 -0.4246  0.2661 -0.1345
 2694TIP3    H229574   4.176   5.952   5.079 -0.6660  2.2526 -1.6371
 2695TIP3   OH229575   1.107   3.098   4.431 -0.1826  0.2032  0.3402
 2695TIP3    H129576   1.025   3.052   4.450 -0.5038  0.4221 -0.4851
 2695TIP3    H229577   1.106   3.174   4.491 -0.7291  0.3691  0.1303
 2696TIP3   OH229578   0.790   0.873  14.525  0.6025  0.3060  0.0128
 2696TIP3    H129579   0.758   0.880  14.615 -1.7809  1.2883 -0.8487
 2696TIP3    H229580   0.863   0.935  14.521  0.8685  0.1098  1.2922
 2697TIP3   OH229581   1.596   5.567   2.037 -0.3653  0.0325 -0.5717
 2697TIP3    H129582   1.575   5.502   2.103 -0.0859 -0.3841 -0.8883
 2697TIP3    H229583   1.565   5.529   1.955 -2.4717  1.3557 -0.4800
 2698TIP3   OH229584   0.199   1.659   0.111  0.1098 -0.2131 -0.4809
 2698TIP3    H129585   0.184   1.732   0.051 -0.8956  1.9862  2.1789
 2698TIP3    H229586   0.247   1.698   0.184  1.9656 -2.9078 -0.1145
 2699TIP3   OH229587   5.869   1.313  15.062 -0.1045 -0.2908  0.6065
 2699TIP3    H129588   5.789   1.281  15.103 -2.0105  1.7682 -1.1756
 2699TIP3    H229589   5.923   1.344  15.134 -1.5508 -0.4372  1.7950
 2700TIP3   OH229590   3.319   6.689   4.664 -0.2730 -0.4285 -0.4659
 2700TIP3    H129591   3.259   6.614   4.659  0.3728 -0.9497 -0.5800
 2700TIP3    H229592   3.343   6.706   4.573  0.6733 -0.9979 -0.3399
 2701TIP3   OH229593   4.265   2.333  15.262 -0.2963  0.7368 -0.0091
 2701TIP3    H129594   4.274   2.246  15.222 -1.1570  1.8493 -2.8680
 2701TIP3    H229595   4.189   2.325  15.320 -1.4529 -0.0474 -1.5472
 2702TIP3   OH229596   6.213   0.983  16.009  0.0752  0.5681 -0.5605
 2702TIP3    H129597   6.233   0.916  16.074 -1.3340  0.8983  0.2397
 2702TIP3    H229598   6.197   0.934  15.928 -0.2174 -0.0107 -0.1570
 2703TIP3   OH229599   1.705   0.116  14.188  0.2852  0.2642  0.4649
 2703TIP3    H129600   1.713   0.022  14.172 -1.0543  0.2637 -0.3530
 2703TIP3    H229601   1.651   0.122  14.267  1.7033  0.3509  1.4621
 2704TIP3   OH229602   1.741   5.030  11.441  0.5607 -0.4646 -0.0274
 2704TIP3    H129603   1.812   5.069  11.493 -0.4280  2.0984 -0.4662
 2704TIP3    H229604   1.668   5.022  11.503  0.1019  0.4578 -0.4207
 2705TIP3   OH229605   4.092   3.071  16.491 -0.1293 -0.0317  0.1021
 2705TIP3    H129606   4.140   3.073  16.409 -0.1603  0.0770  0.0868
 2705TIP3    H229607   4.056   3.159  16.501  0.0370  0.0115  0.3292
 2706TIP3   OH229608   5.972   6.430   0.139 -0.4532 -0.0703 -0.5083
 2706TIP3    H129609   5.992   6.343   0.104 -1.6856 -0.9238  0.7935
 2706TIP3    H229610   5.924   6.413   0.219 -1.0714  1.8378 -0.4225
 2707TIP3   OH229611   4.962   0.286   6.014  0.1859  0.7232  0.0434
 2707TIP3    H129612   5.033   0.330   5.967  1.5256 -2.6739 -1.4267
 2707TIP3    H229613   4.896   0.268   5.947  1.1127 -2.1801 -0.2144
 2708TIP3   OH229614   5.750   2.897   3.758 -0.9779  0.5011  0.1428
 2708TIP3    H129615   5.704   2.928   3.836 -1.6678  0.3294 -0.1871
 2708TIP3    H229616   5.772   2.977   3.709  0.1236  0.6641  0.8603
 2709TIP3   OH229617   6.255   0.102  14.047 -0.5574  0.0400  0.0544
 2709TIP3    H129618   6.282   0.018  14.010  0.0068  0.2707 -0.0684
 2709TIP3    H229619   6.264   0.089  14.142 -0.3141  0.0176  0.0284
 2710TIP3   OH229620   1.930   6.449   2.154  0.0235 -0.0369 -0.6482
 2710TIP3    H129621   1.910   6.541   2.141 -0.2656  0.1207  0.7637
 2710TIP3    H229622   1.845   6.405   2.151  0.1662 -0.2802 -1.3773
 2711TIP3   OH229623   2.555   4.916   3.652  0.1035  0.2009 -0.3693
 2711TIP3    H129624   2.593   4.858   3.586  3.4802 -0.2691  1.7536
 2711TIP3    H229625   2.504   4.858   3.709 -1.8315  0.4364 -1.7504
 2712TIP3   OH229626   2.475   2.867   0.926 -0.1863  0.4471  0.6107
 2712TIP3    H129627   2.465   2.821   0.843 -0.9761  0.1584  0.8587
 2712TIP3    H229628   2.526   2.807   0.981 -1.7493 -0.4444  1.1490
 2713TIP3   OH229629   5.531   4.394   4.796  0.0091  0.3881  0.4427
 2713TIP3    H129630   5.575   4.312   4.818 -0.1986  0.1196 -0.1438
 2713TIP3    H229631   5.464   4.370   4.733  1.5916  1.3399 -1.7398
 2714TIP3   OH229632   3.325   5.599  12.583 -0.3000  0.0508 -0.1983
 2714TIP3    H129633   3.341   5.504  12.581  0.7561  0.2187 -0.0402
 2714TIP3    H229634   3.257   5.610  12.649  0.7969 -0.4439  1.0460
 2715TIP3   OH229635   5.706   6.670   3.955 -0.4708 -0.2915  0.0586
 2715TIP3    H129636   5.651   6.592   3.961 -1.7425  0.5711 -0.1106
 2715TIP3    H229637   5.794   6.639   3.979 -0.7318 -1.9832 -1.0220
 2716TIP3   OH229638   1.819   1.104   3.887 -0.1478 -0.2552  0.3384
 2716TIP3    H129639   1.749   1.134   3.829 -0.2712 -1.5442 -0.2014
 2716TIP3    H229640   1.773   1.080   3.968 -0.0596  0.8825  0.7395
 2717TIP3   OH229641   0.160   4.142  11.114  0.3295 -0.5536 -0.2699
 2717TIP3    H129642   0.214   4.064  11.125  1.8535  0.5714  0.6365
 2717TIP3    H229643   0.223   4.213  11.097 -1.0729  0.2680 -2.6073
 2718TIP3   OH229644   4.334   3.750  17.255  0.4983 -0.5717 -0.0953
 2718TIP3    H129645   4.248   3.708  17.250  1.4263 -2.4274 -2.3454
 2718TIP3    H229646   4.382   3.699  17.319  0.4775 -0.6616 -0.1504
 2719TIP3   OH229647   1.804   4.586  15.650 -0.2626  0.1202 -0.4252
 2719TIP3    H129648   1.711   4.591  15.671 -0.2704 -0.0585 -0.4132
 2719TIP3    H229649   1.839   4.671  15.676 -0.0697 -0.4665  1.3681
 2720TIP3   OH229650   1.319   2.035  13.502  0.3699  0.0269  0.4397
 2720TIP3    H129651   1.330   1.971  13.432 -0.0585 -0.3432  0.7082
 2720TIP3    H229652   1.387   2.013  13.566  1.1668  0.7471 -0.1283
 2721TIP3   OH229653   1.695   6.669  17.106  0.0340  0.1564  0.3234
 2721TIP3    H129654   1.719   6.681  17.198  0.4426 -4.3940  1.0007
 2721TIP3    H229655   1.770   6.625  17.067 -1.0664 -0.0971 -1.5981
 2722TIP3   OH229656   1.905   4.385   0.749 -0.3957  0.4894  0.3123
 2722TIP3    H129657   1.907   4.396   0.654 -2.7556  0.9720  0.2450
 2722TIP3    H229658   1.934   4.295   0.764  1.7881  0.9681 -0.6644
 2723TIP3   OH229659   0.335   2.617   6.087  0.1678  1.3666  0.0375
 2723TIP3    H129660   0.382   2.592   6.008  0.3498 -1.0558  0.8172
 2723TIP3    H229661   0.243   2.596   6.068  0.4855 -1.4146  1.1523
 2724TIP3   OH229662   2.389   1.329  11.469 -0.2873  0.4338 -0.2986
 2724TIP3    H129663   2.351   1.348  11.555  0.7991 -3.9167  1.3708
 2724TIP3    H229664   2.474   1.374  11.470 -1.0361  1.9255  0.0587
 2725TIP3   OH229665   0.974   1.348  12.302 -0.3661  0.0452 -0.3493
 2725TIP3    H129666   1.012   1.334  12.389 -0.0612 -1.9473 -0.7576
 2725TIP3    H229667   0.911   1.277  12.292 -1.8944  1.4275 -0.9962
 2726TIP3   OH229668   0.770   1.023   0.656 -0.0536 -0.2112 -0.5241
 2726TIP3    H129669   0.717   0.947   0.630 -0.1365 -0.6423  0.8409
 2726TIP3    H229670   0.711   1.076   0.709  0.3901  0.1592 -0.3972
 2727TIP3   OH229671   4.547   5.098  13.641 -1.0114  0.1740 -0.4070
 2727TIP3    H129672   4.475   5.037  13.652  0.3759 -1.4258  0.2053
 2727TIP3    H229673   4.623   5.043  13.622  0.0600  1.7969 -1.0422
 2728TIP3   OH229674   4.323   3.442  17.355 -0.3997  0.2849 -0.4431
 2728TIP3    H129675   4.242   3.396  17.332  0.3352 -1.5567  0.4565
 2728TIP3    H229676   4.363   3.388  17.423  0.8896  1.9197  0.1692
 2729TIP3   OH229677   1.941   6.122  14.048 -0.3940 -0.0955 -0.2158
 2729TIP3    H129678   1.951   6.064  13.972 -0.1999  0.6861 -0.7949
 2729TIP3    H229679   1.902   6.202  14.012  1.2199  0.9200  0.1933
 2730TIP3   OH229680   3.801   5.860   5.082 -0.8411 -0.5073  0.3972
 2730TIP3    H129681   3.768   5.804   5.153 -1.6712  0.8183  1.0933
 2730TIP3    H229682   3.733   5.857   5.015 -0.3927 -1.1620 -0.0477
 2731TIP3   OH229683   2.144   0.300  14.461  0.7272  0.5043 -0.2346
 2731TIP3    H129684   2.060   0.288  14.505 -0.3255  0.4801 -2.1608
 2731TIP3    H229685   2.179   0.212  14.450 -0.1795  0.2977 -1.6042
 2732TIP3   OH229686   0.313   0.753   2.895  0.1617  0.1810 -0.1273
 2732TIP3    H129687   0.313   0.790   2.984 -2.6497  0.6148 -0.2119
 2732TIP3    H229688   0.323   0.830   2.838  1.0874 -0.0005 -0.2217
 2733TIP3   OH229689   6.045   2.244  12.342  0.3075  0.0950  0.0575
 2733TIP3    H129690   6.020   2.173  12.283  1.4151 -0.2747 -0.0072
 2733TIP3    H229691   6.111   2.204  12.399 -0.5199  0.5210  1.3630
 2734TIP3   OH229692   2.972   5.576   0.656 -0.0432 -0.1721 -0.0475
 2734TIP3    H129693   3.050   5.631   0.665 -0.0074 -0.1887 -0.2558
 2734TIP3    H229694   2.978   5.514   0.729 -0.0820  0.0936  0.1856
 2735TIP3   OH229695   5.536   6.585  16.650  0.4375  0.1858 -0.0639
 2735TIP3    H129696   5.511   6.627  16.732 -1.6271  0.9037 -0.9954
 2735TIP3    H229697   5.532   6.655  16.585  0.1690 -0.7591 -1.0970
 2736TIP3   OH229698   1.191   5.371   1.695  0.0028  0.3598 -0.7156
 2736TIP3    H129699   1.131   5.431   1.739 -0.1774  0.5330 -1.1827
 2736TIP3    H229700   1.143   5.288   1.691  0.7574 -0.2119  1.0999
 2737TIP3   OH229701   2.035   3.528  15.284  0.2842  0.9701 -0.2153
 2737TIP3    H129702   2.064   3.619  15.278  2.9074  0.3098  0.7489
 2737TIP3    H229703   2.056   3.502  15.374  1.6995 -1.1764 -1.0713
 2738TIP3   OH229704   5.343   3.700  14.147  0.0662  0.0625  0.3502
 2738TIP3    H129705   5.392   3.753  14.210 -0.9488  0.4522  0.8336
 2738TIP3    H229706   5.254   3.698  14.182 -0.4714  0.1225 -0.9850
 2739TIP3   OH229707   6.008   4.719   1.784 -0.2262  0.1394 -0.2244
 2739TIP3    H129708   6.035   4.807   1.757  1.1757  0.5089  2.0694
 2739TIP3    H229709   5.936   4.735   1.846 -1.6634 -0.5198 -1.6587
 2740TIP3   OH229710   6.472   4.211   3.408  0.2759 -0.2893  0.5372
 2740TIP3    H129711   6.482   4.137   3.348 -0.9659  0.7527 -1.0529
 2740TIP3    H229712   6.419   4.274   3.359 -1.6408  0.2331  3.0744
 2741TIP3   OH229713   5.528   2.125  11.172 -0.5149  0.7066 -0.0302
 2741TIP3    H129714   5.580   2.143  11.093 -1.8895  3.0271 -0.4927
 2741TIP3    H229715   5.437   2.137  11.144 -1.0927  0.5107  1.6696
 2742TIP3   OH229716   5.326   4.508  14.949  0.1712  0.3050  0.0474
 2742TIP3    H129717   5.378   4.587  14.931 -1.3382  1.1727 -0.6941
 2742TIP3    H229718   5.249   4.540  14.995 -1.0494 -0.5486 -1.3336
 2743TIP3   OH229719   5.122   0.066  11.249 -0.1504 -0.3609 -0.3129
 2743TIP3    H129720   5.204   0.024  11.274 -0.1464  0.2492  0.7528
 2743TIP3    H229721   5.145   0.117  11.171  0.4339 -0.3654 -0.1501
 2744TIP3   OH229722   3.678   6.441   2.609 -0.5036  0.1100 -0.1286
 2744TIP3    H129723   3.668   6.512   2.545  1.4996 -0.8803 -1.6631
 2744TIP3    H229724   3.740   6.381   2.568 -2.0490 -2.5246  1.1520
 2745TIP3   OH229725   3.451   4.022   6.013 -0.0580 -0.4156 -0.3668
 2745TIP3    H129726   3.361   4.046   5.990  0.1267 -0.2975 -0.9787
 2745TIP3    H229727   3.449   4.011   6.108 -1.0647 -1.8095 -0.5094
 2746TIP3   OH229728   1.969   3.165  12.831 -0.5368 -0.0198 -0.4792
 2746TIP3    H129729   1.969   3.247  12.879  0.0193  0.1745 -0.8090
 2746TIP3    H229730   2.061   3.150  12.808 -0.5736 -0.9129 -0.1104
 2747TIP3   OH229731   1.041   6.065  15.023  0.4062  0.0650  0.0751
 2747TIP3    H129732   1.079   6.152  15.010 -0.8151  0.5592 -0.3410
 2747TIP3    H229733   0.997   6.070  15.108 -1.1776  0.4708 -0.7121
 2748TIP3   OH229734   2.044   2.047   4.669 -0.0493 -0.1217  0.0413
 2748TIP3    H129735   1.977   2.036   4.736 -1.4221 -1.8115 -1.4745
 2748TIP3    H229736   2.068   2.139   4.673  0.6229 -0.3367  3.4193
 2749TIP3   OH229737   5.790   5.752   5.251  0.1510  0.2094  0.7001
 2749TIP3    H129738   5.752   5.684   5.195 -1.2730  1.3644  0.2157
 2749TIP3    H229739   5.736   5.752   5.329  1.8792 -1.1078  1.9773
 2750TIP3   OH229740   4.350   4.661   3.135 -0.1263  0.0168  0.1060
 2750TIP3    H129741   4.380   4.712   3.060 -0.4433 -1.4206 -1.0519
 2750TIP3    H229742   4.317   4.726   3.197 -1.2025  1.1968 -1.5998
 2751TIP3   OH229743   0.547   0.562   0.386  0.5839  0.0412  0.2402
 2751TIP3    H129744   0.542   0.570   0.481 -0.1969 -1.2536  0.3288
 2751TIP3    H229745   0.456   0.567   0.356  0.8765  1.1200 -0.5103
 2752TIP3   OH229746   1.740   6.341  17.113 -0.5682  0.2907 -0.6793
 2752TIP3    H129747   1.758   6.312  17.202 -0.2150 -0.5657 -1.0206
 2752TIP3    H229748   1.821   6.383  17.084 -0.9562  1.3138 -0.3167
 2753TIP3   OH229749   4.576   3.750  15.804 -0.0209 -0.1054  0.4716
 2753TIP3    H129750   4.576   3.737  15.899  0.4640 -1.2308  0.3314
 2753TIP3    H229751   4.504   3.695  15.773  0.2603 -0.2695  0.1162
 2754TIP3   OH229752   6.236   3.419  13.622 -0.4725  0.6277 -1.0605
 2754TIP3    H129753   6.249   3.493  13.682  1.7748  0.4081 -1.2114
 2754TIP3    H229754   6.166   3.448  13.564 -2.3617  1.0873  1.2447
 2755TIP3   OH229755   1.527   0.759   4.609 -0.1868  0.0928 -0.8275
 2755TIP3    H129756   1.478   0.788   4.532  0.2400  0.9267 -0.7965
 2755TIP3    H229757   1.598   0.705   4.574  0.0490  0.5298 -1.0274
 2756TIP3   OH229758   3.753   5.388   2.307  0.2289 -0.3026 -0.7389
 2756TIP3    H129759   3.676   5.417   2.257  0.0117 -0.7464 -0.6656
 2756TIP3    H229760   3.828   5.410   2.252  0.1712  1.6167 -0.1420
 2757TIP3   OH229761   3.425   3.737   6.905 -0.0211  0.3314 -0.6227
 2757TIP3    H129762   3.479   3.806   6.943 -0.7954  0.9110 -0.5417
 2757TIP3    H229763   3.487   3.679   6.862  0.8708 -0.2122  1.2771
 2758TIP3   OH229764   6.400   0.370   5.271 -0.0439 -0.2653  0.2941
 2758TIP3    H129765   6.388   0.343   5.179 -1.1908 -1.8009  0.8466
 2758TIP3    H229766   6.493   0.356   5.287  0.2549  0.4057 -0.7488
 2759TIP3   OH229767   1.865   6.292   1.161 -0.4772 -0.2464  0.0818
 2759TIP3    H129768   1.912   6.261   1.084 -1.1798 -0.0964 -0.4205
 2759TIP3    H229769   1.817   6.369   1.131  0.9024  1.1028  1.2093
 2760TIP3   OH229770   4.528   1.272   4.790  0.2993  0.0664 -0.4064
 2760TIP3    H129771   4.491   1.247   4.875  1.6541 -0.1639  0.1528
 2760TIP3    H229772   4.462   1.329   4.751  1.5054  4.3555  2.9116
 2761TIP3   OH229773   5.568   0.345   1.648  0.1360  0.2292  0.4666
 2761TIP3    H129774   5.619   0.392   1.715 -0.4684  0.8197  0.5306
 2761TIP3    H229775   5.576   0.399   1.569  0.8942 -0.4981  0.0375
 2762TIP3   OH229776   2.481   0.103   1.527  0.0167  0.1732  0.2668
 2762TIP3    H129777   2.529   0.140   1.453 -2.0144 -0.7211 -1.6288
 2762TIP3    H229778   2.391   0.131   1.514 -1.0699 -2.8895  0.3776
 2763TIP3   OH229779   3.685   0.285   4.606  0.7008 -0.1463  0.0498
 2763TIP3    H129780   3.742   0.359   4.583 -0.4037  0.2318 -1.6893
 2763TIP3    H229781   3.642   0.262   4.524 -1.0704 -0.9130  1.1344
 2764TIP3   OH229782   4.326   3.114  16.224  0.4702 -0.4411  0.0488
 2764TIP3    H129783   4.375   3.163  16.157  0.7946 -1.1873 -0.2660
 2764TIP3    H229784   4.387   3.047  16.255 -0.8110 -2.4375 -1.4886
 2765TIP3   OH229785   5.034   1.554   0.780 -0.6608 -0.4076  0.1397
 2765TIP3    H129786   5.044   1.599   0.864 -0.7666  1.6165 -0.8960
 2765TIP3    H229787   5.017   1.463   0.804 -0.9274  0.1685  2.3138
 2766TIP3   OH229788   4.261   1.293  14.784 -0.2053  0.2329  0.4584
 2766TIP3    H129789   4.193   1.232  14.814 -0.8784  0.5528 -0.3711
 2766TIP3    H229790   4.340   1.240  14.776 -0.2256 -0.0553  1.8716
 2767TIP3   OH229791   2.767   1.037   0.739  0.1791 -0.1441  0.5805
 2767TIP3    H129792   2.702   1.002   0.678 -0.2059  3.0519 -1.0654
 2767TIP3    H229793   2.850   1.031   0.692 -0.1939  2.8298 -0.7184
 2768TIP3   OH229794   1.738   3.833   5.253  0.3330 -0.0525 -0.5936
 2768TIP3    H129795   1.683   3.852   5.329 -0.4097 -0.0451 -1.1240
 2768TIP3    H229796   1.787   3.755   5.278  0.5072  0.2672  0.1013
 2769TIP3   OH229797   4.354   2.486  15.047  0.3220  0.0460 -0.5980
 2769TIP3    H129798   4.336   2.452  15.134 -0.8293  1.3444 -0.2994
 2769TIP3    H229799   4.440   2.451  15.025  0.1939 -1.1183  0.6294
 2770TIP3   OH229800   4.453   4.883   2.896  0.3024  0.5242 -0.9862
 2770TIP3    H129801   4.513   4.957   2.906 -0.2162  0.6495  3.0973
 2770TIP3    H229802   4.366   4.922   2.892  0.0434  0.2611  0.9550
 2771TIP3   OH229803   1.415   0.771  12.426 -0.2166  0.2276  0.8026
 2771TIP3    H129804   1.508   0.756  12.440 -0.2332  0.5655  1.2815
 2771TIP3    H229805   1.406   0.779  12.331  0.6132  2.4685  0.8610
 2772TIP3   OH229806   5.346   1.774  12.353 -0.4753  0.0432 -0.1716
 2772TIP3    H129807   5.296   1.763  12.272  0.1969 -0.2624 -0.5540
 2772TIP3    H229808   5.373   1.865  12.354 -0.2335 -0.0260 -0.4404
 2773TIP3   OH229809   5.306   5.718  12.970  0.0767 -0.1626 -0.0504
 2773TIP3    H129810   5.226   5.693  12.923 -1.2228  1.4253  1.1938
 2773TIP3    H229811   5.290   5.690  13.060  1.2409 -0.4159  0.0994
 2774TIP3   OH229812   4.259   4.893   3.268 -0.6000 -0.6896 -0.7796
 2774TIP3    H129813   4.263   4.960   3.200  0.5014 -2.6991 -2.8489
 2774TIP3    H229814   4.320   4.924   3.335 -1.3310  1.1166 -0.8890
 2775TIP3   OH229815   5.237   5.301  16.642 -0.0482 -0.2505  0.1980
 2775TIP3    H129816   5.199   5.375  16.690 -0.1592 -0.8600  1.0809
 2775TIP3    H229817   5.174   5.283  16.572 -0.1148  0.3666  0.0955
 2776TIP3   OH229818   5.564   3.777  13.400 -0.2120 -0.2021  0.7904
 2776TIP3    H129819   5.614   3.699  13.375 -1.2297 -0.4357 -0.6621
 2776TIP3    H229820   5.547   3.765  13.494  1.4297 -0.6702  1.0614
 2777TIP3   OH229821   4.180   5.899  11.421  0.6676 -0.1936 -0.0015
 2777TIP3    H129822   4.216   5.965  11.361  1.2049  0.2261  0.7682
 2777TIP3    H229823   4.235   5.822  11.407  0.8279 -0.0790 -0.0131
 2778TIP3   OH229824   0.065   6.224   5.263 -0.2589 -0.0721 -0.2983
 2778TIP3    H129825  -0.013   6.170   5.275 -0.6498  0.9016  2.0523
 2778TIP3    H229826   0.032   6.305   5.224 -0.6846  0.7374  1.5907
 2779TIP3   OH229827   3.390   4.489   3.931 -1.2049  0.3350 -0.2048
 2779TIP3    H129828   3.336   4.568   3.926 -1.8535 -0.1331 -0.8627
 2779TIP3    H229829   3.371   4.442   3.849 -1.0350 -0.6268  0.2934
 2780TIP3   OH229830   3.076   1.811  13.684  1.2653  0.2066  0.0953
 2780TIP3    H129831   3.135   1.831  13.757 -0.3436  0.9220  1.2403
 2780TIP3    H229832   3.024   1.737  13.714  0.9225  0.1840 -0.5361
 2781TIP3   OH229833   3.688   0.027  17.074 -0.0582 -0.0245 -0.1642
 2781TIP3    H129834   3.761   0.023  17.134 -0.0086 -1.4673 -0.2998
 2781TIP3    H229835   3.650   0.114  17.089 -0.4407 -0.5599  2.3884
 2782TIP3   OH229836   1.504   4.541   1.447 -0.1525 -0.1172  0.6159
 2782TIP3    H129837   1.565   4.567   1.378 -2.0956  0.6563 -0.8974
 2782TIP3    H229838   1.558   4.490   1.508  1.9289  0.3054 -0.7557
 2783TIP3   OH229839   3.425   1.891   0.716 -0.0639 -0.0465  0.0086
 2783TIP3    H129840   3.510   1.934   0.722 -0.4831  0.5995  2.1450
 2783TIP3    H229841   3.382   1.933   0.642  0.7452  1.0155  0.1236
 2784TIP3   OH229842   4.590   2.899   2.742 -0.2202 -0.1163 -0.4093
 2784TIP3    H129843   4.665   2.850   2.776 -0.0248 -0.6455 -1.5632
 2784TIP3    H229844   4.513   2.848   2.769 -0.1770  0.3277  0.6094
 2785TIP3   OH229845   0.080   6.543   3.324 -0.0284 -0.2953  0.3845
 2785TIP3    H129846   0.073   6.604   3.397 -2.4622  0.0824 -0.0885
 2785TIP3    H229847   0.162   6.566   3.280 -0.2465  1.7498  0.9808
 2786TIP3   OH229848   6.099   5.530  11.413 -0.5418 -0.4475  0.0157
 2786TIP3    H129849   6.180   5.556  11.369 -2.0369  2.5668 -1.2936
 2786TIP3    H229850   6.047   5.488  11.344 -1.4400  0.9546 -0.2190
 2787TIP3   OH229851   3.082   4.621   6.859  0.1265  0.5412  0.3937
 2787TIP3    H129852   3.118   4.707   6.838 -0.1572  1.2844  2.6770
 2787TIP3    H229853   3.016   4.606   6.791  0.9752  1.5882 -0.7036
 2788TIP3   OH229854   1.791   1.313  12.935  0.1348  0.3028  0.5533
 2788TIP3    H129855   1.774   1.225  12.899  1.2674  0.2686  0.0703
 2788TIP3    H229856   1.853   1.298  13.006 -0.7217  0.5722  1.3665
 2789TIP3   OH229857   2.105   1.435   0.688  0.1959 -0.1171 -0.2926
 2789TIP3    H129858   2.198   1.415   0.681 -0.1999 -1.5953 -2.2178
 2789TIP3    H229859   2.090   1.449   0.781  2.5090  1.1266 -0.0494
 2790TIP3   OH229860   5.605   4.034  11.653  0.0326 -0.3131  0.9191
 2790TIP3    H129861   5.701   4.032  11.645 -0.0196 -1.2067  0.3744
 2790TIP3    H229862   5.581   4.124  11.631  0.4697 -0.9509 -2.7909
 2791TIP3   OH229863   5.734   3.532   2.764 -0.2601  0.2383 -0.1818
 2791TIP3    H129864   5.721   3.465   2.831 -2.0310 -0.5086 -1.1787
 2791TIP3    H229865   5.700   3.491   2.684  2.4588  0.8073 -1.7336
 2792TIP3   OH229866   3.317   2.539  12.369 -0.0088 -0.8788 -0.7645
 2792TIP3    H129867   3.302   2.554  12.275 -1.5706  0.8904 -0.3114
 2792TIP3    H229868   3.330   2.627  12.405 -1.0227 -1.3660  0.8913
 2793TIP3   OH229869   5.592   6.167  15.674 -0.6735 -0.2452 -0.2947
 2793TIP3    H129870   5.592   6.185  15.768 -0.6262 -2.2651  0.1386
 2793TIP3    H229871   5.635   6.243  15.635  1.0748 -0.2219  1.5141
 2794TIP3   OH229872   2.999   0.042  16.611 -0.2719 -0.5475 -0.1934
 2794TIP3    H129873   2.917   0.083  16.584  0.0559 -0.0951 -0.5134
 2794TIP3    H229874   2.997   0.044  16.707  2.7734  6.7593  0.3587
 2795TIP3   OH229875   3.972   4.935  13.481 -0.1846 -0.1801  0.5758
 2795TIP3    H129876   3.941   4.849  13.508 -2.7182  0.6669  0.5986
 2795TIP3    H229877   3.987   4.983  13.563  0.8663 -0.4561  0.5575
 2796TIP3   OH229878   1.346   2.036   4.381  0.6787  0.3576  0.5810
 2796TIP3    H129879   1.258   2.047   4.348  1.1768  2.5072 -0.2127
 2796TIP3    H229880   1.335   1.994   4.467 -0.9869 -0.5341 -0.0383
 2797TIP3   OH229881   2.300   2.013   6.786  0.0276 -0.2430 -0.3512
 2797TIP3    H129882   2.393   2.010   6.807 -0.0621 -1.7459 -0.0701
 2797TIP3    H229883   2.258   2.047   6.865  0.1287 -1.7288  0.3691
 2798TIP3   OH229884   5.857   4.839  14.436 -0.3044 -0.3309 -0.6300
 2798TIP3    H129885   5.822   4.824  14.524  0.6000  2.1467  0.2317
 2798TIP3    H229886   5.785   4.881  14.388 -0.9137 -1.9813 -1.2590
 2799TIP3   OH229887   3.470   1.654   2.872  0.3143 -0.0271  0.2966
 2799TIP3    H129888   3.545   1.597   2.854 -0.2534 -1.0353  1.0315
 2799TIP3    H229889   3.495   1.739   2.834  1.0217 -0.8510 -1.1601
 2800TIP3   OH229890   5.952   2.416  16.456 -0.4491 -0.0676 -0.5481
 2800TIP3    H129891   5.868   2.436  16.415 -1.1458  0.5125  1.0699
 2800TIP3    H229892   5.929   2.375  16.540  0.7868  1.8353  0.8172
 2801TIP3   OH229893   3.524   2.825  12.222  0.4968 -0.0181 -0.8218
 2801TIP3    H129894   3.587   2.846  12.153 -0.0162 -2.1768 -2.0275
 2801TIP3    H229895   3.440   2.819  12.177 -0.0319 -0.3561  0.1927
 2802TIP3   OH229896   3.256   6.712  17.024  0.1658 -0.1153 -0.2699
 2802TIP3    H129897   3.333   6.659  17.005 -1.5722 -1.9166 -2.9143
 2802TIP3    H229898   3.263   6.788  16.966 -0.2879 -0.5540 -0.9078
 2803TIP3   OH229899   1.278   6.439   4.757  0.0192 -0.5739  0.0419
 2803TIP3    H129900   1.315   6.506   4.699 -0.0341  0.1253  0.7957
 2803TIP3    H229901   1.191   6.422   4.721 -0.8184  1.3367  1.0472
 2804TIP3   OH229902   1.055   5.820   2.637  0.3720  0.1940  0.0416
 2804TIP3    H129903   1.130   5.767   2.666 -0.8331 -0.8024  1.4959
 2804TIP3    H229904   1.056   5.896   2.695  1.5942  1.4229 -1.4884
 2805TIP3   OH229905   6.419   3.495   4.964  0.2456  0.0362  0.2583
 2805TIP3    H129906   6.361   3.571   4.956 -0.3345 -0.4854 -0.7956
 2805TIP3    H229907   6.364   3.426   5.000  0.5783 -0.0985  0.5219
 2806TIP3   OH229908   4.722   1.287   2.309 -0.5279 -0.3249 -0.2562
 2806TIP3    H129909   4.690   1.300   2.399  2.3159  0.7346  0.7338
 2806TIP3    H229910   4.758   1.372   2.284 -1.4316 -0.5491 -2.5487
 2807TIP3   OH229911   2.493   0.188  15.252 -0.2412 -0.0821  0.5275
 2807TIP3    H129912   2.527   0.109  15.294  0.6653 -0.0763 -0.1795
 2807TIP3    H229913   2.432   0.224  15.316  0.9445 -0.1968  1.7622
 2808TIP3   OH229914   1.863   0.771  11.289 -0.1912 -0.3226  0.4745
 2808TIP3    H129915   1.779   0.743  11.253  0.1028 -0.3788 -0.1876
 2808TIP3    H229916   1.892   0.841  11.230 -0.1330  0.2311  1.1444
 2809TIP3   OH229917   0.048   1.615   2.099  0.2657 -0.5730  0.3741
 2809TIP3    H129918   0.115   1.673   2.062  0.3418 -1.3425 -0.7863
 2809TIP3    H229919  -0.011   1.672   2.147  2.2524  0.0457  2.2437
 2810TIP3   OH229920   4.358   1.696   2.804  0.2396  0.1747  0.4739
 2810TIP3    H129921   4.272   1.654   2.802  0.6352 -0.6406  0.2693
 2810TIP3    H229922   4.363   1.737   2.890 -0.1955 -0.1066  0.6355
 2811TIP3   OH229923   3.910   2.246  14.710  0.3278 -0.1187 -0.1040
 2811TIP3    H129924   3.887   2.268  14.620 -0.1113  2.1313  0.4855
 2811TIP3    H229925   4.004   2.230  14.708  0.4938  0.8733 -0.8168
 2812TIP3   OH229926   4.077   2.221   5.205 -0.3705 -0.2008  0.6343
 2812TIP3    H129927   4.152   2.281   5.201 -0.1326 -0.5272 -2.5607
 2812TIP3    H229928   4.032   2.233   5.122 -2.9210 -1.2827  1.7505
 2813TIP3   OH229929   4.579   6.332  15.740 -0.6635  0.3062  0.0489
 2813TIP3    H129930   4.657   6.280  15.757 -0.5467  0.7670  0.9910
 2813TIP3    H229931   4.547   6.300  15.655  0.2195 -0.2739 -0.0820
 2814TIP3   OH229932   1.013   4.283  14.574  0.2715 -0.1939  0.4793
 2814TIP3    H129933   0.951   4.218  14.541  0.4914 -1.1839  1.9410
 2814TIP3    H229934   1.022   4.346  14.503 -1.6572 -0.5567 -0.1236
 2815TIP3   OH229935   3.197   1.202  13.960 -0.4164  0.4882 -0.1859
 2815TIP3    H129936   3.217   1.119  13.916 -2.5008 -0.6214  0.7810
 2815TIP3    H229937   3.245   1.197  14.043 -0.5043  0.2481 -0.1473
 2816TIP3   OH229938   4.857   2.044  17.098  0.1767 -0.1694 -0.2455
 2816TIP3    H129939   4.847   1.964  17.149 -1.2548  0.8197  1.1343
 2816TIP3    H229940   4.767   2.077  17.088  0.4826  0.1362 -2.7226
 2817TIP3   OH229941   3.155   2.576   4.827  0.7725  0.9214  0.0917
 2817TIP3    H129942   3.204   2.619   4.898  0.8244  0.0352  0.5996
 2817TIP3    H229943   3.219   2.518   4.786  0.2442 -0.0063  0.5579
 2818TIP3   OH229944   5.974   5.767  17.410 -0.0176 -0.1963  0.1612
 2818TIP3    H129945   5.894   5.715  17.418  0.3916 -0.8582 -0.0007
 2818TIP3    H229946   6.028   5.740  17.484  0.7056 -0.9260 -0.6073
 2819TIP3   OH229947   0.043   5.101  17.235 -0.2161 -0.2212 -0.3088
 2819TIP3    H129948   0.024   5.154  17.312  2.1775 -0.0368  0.2138
 2819TIP3    H229949   0.098   5.030  17.267  0.8458 -0.1252 -1.8302
 2820TIP3   OH229950   1.416   6.161  17.348  0.2038 -0.1460  0.6902
 2820TIP3    H129951   1.494   6.215  17.356 -0.8343  1.7132 -0.6678
 2820TIP3    H229952   1.384   6.179  17.259 -1.0163 -1.9050  0.7225
 2821TIP3   OH229953   3.822   4.501  15.478 -0.7942  0.5477 -0.1390
 2821TIP3    H129954   3.902   4.477  15.524  0.2024  1.0935 -1.5233
 2821TIP3    H229955   3.817   4.439  15.405 -1.6824  0.4723 -0.0258
 2822TIP3   OH229956   3.987   6.582   4.766 -0.0227  0.5412  0.3889
 2822TIP3    H129957   3.927   6.646   4.804 -1.0064  0.4120 -0.8844
 2822TIP3    H229958   4.016   6.530   4.841 -0.3188  1.5487  1.2439
 2823TIP3   OH229959   4.631   4.821   0.202  0.2275  0.1161  0.0291
 2823TIP3    H129960   4.563   4.758   0.226  1.7958 -1.5089  0.4197
 2823TIP3    H229961   4.604   4.853   0.116  0.5358 -2.9606 -1.3728
 2824TIP3   OH229962   5.701   3.830   4.844 -0.1036 -0.4434 -0.3368
 2824TIP3    H129963   5.666   3.741   4.844  2.2858 -1.4723  1.0729
 2824TIP3    H229964   5.754   3.835   4.765 -0.7203 -0.0145 -0.7401
 2825TIP3   OH229965   0.824   5.238  13.106 -0.0499 -0.3080 -0.4234
 2825TIP3    H129966   0.840   5.295  13.181 -0.1024  0.0794 -0.7026
 2825TIP3    H229967   0.738   5.200  13.123 -0.9241  1.2626 -1.2082
 2826TIP3   OH229968   0.326   3.147   3.257  0.2016 -0.1847  0.0684
 2826TIP3    H129969   0.409   3.176   3.220  0.9316 -1.5803  0.5198
 2826TIP3    H229970   0.278   3.227   3.276  1.0407  0.6246 -1.1035
 2827TIP3   OH229971   4.938   2.338  11.519 -0.0442  0.1143 -0.2206
 2827TIP3    H129972   4.970   2.426  11.500 -0.3575  0.2468 -0.1396
 2827TIP3    H229973   5.017   2.287  11.537  0.0602  0.7064  1.1069
 2828TIP3   OH229974   4.743   0.473   6.530 -0.1681  0.1348 -0.0365
 2828TIP3    H129975   4.744   0.564   6.498 -0.4012  0.4211  0.7472
 2828TIP3    H229976   4.747   0.481   6.625 -0.2310 -0.6813  0.0418
 2829TIP3   OH229977   5.112   3.091   2.760 -0.0405 -0.5562  0.2258
 2829TIP3    H129978   5.131   2.998   2.760 -1.1381 -0.8114 -1.1736
 2829TIP3    H229979   5.151   3.124   2.842  1.2216 -2.0359  0.2575
 2830TIP3   OH229980   2.240   2.719   3.493  0.4956  0.2917 -0.1338
 2830TIP3    H129981   2.220   2.723   3.586 -0.1843  2.2865 -0.3189
 2830TIP3    H229982   2.236   2.626   3.471  2.0856 -0.3755  2.0883
 2831TIP3   OH229983   0.205   0.789   5.612 -0.2364 -0.3144  0.1436
 2831TIP3    H129984   0.235   0.851   5.678  1.7205 -2.0935  1.0682
 2831TIP3    H229985   0.279   0.728   5.602 -0.5221 -0.3062 -3.5114
 2832TIP3   OH229986   0.120   2.661   3.841  0.1985  0.6253 -0.0213
 2832TIP3    H129987   0.177   2.626   3.909 -0.7098 -1.1326 -0.1203
 2832TIP3    H229988   0.076   2.585   3.804 -1.1890  1.7882 -0.8919
 2833TIP3   OH229989   3.312   3.352  13.583  0.2266  0.2696  0.4700
 2833TIP3    H129990   3.281   3.428  13.534  2.3689  0.2858 -0.9599
 2833TIP3    H229991   3.233   3.317  13.624 -1.7233  0.4707 -2.7266
 2834TIP3   OH229992   4.947   0.094   2.966  0.6461 -0.2531  0.1834
 2834TIP3    H129993   4.876   0.152   2.940  0.5534 -0.6468 -0.4496
 2834TIP3    H229994   4.906   0.008   2.975  1.0631 -0.5174 -0.3431
 2835TIP3   OH229995   5.822   2.095  14.281  0.1265 -0.2317 -0.6523
 2835TIP3    H129996   5.874   2.130  14.209  0.0514 -0.8381 -1.0050
 2835TIP3    H229997   5.734   2.130  14.266  0.7767  2.5168  1.0809
 2836TIP3   OH229998   5.063   0.034   0.536 -0.6564 -0.8865 -0.4008
 2836TIP3    H129999   4.986   0.063   0.486 -2.5833 -2.1384  1.6703
 2836TIP3    H230000   5.061   0.086   0.616  0.7755 -0.8750 -0.3374
 2837TIP3   OH230001   2.130   5.715  12.526  0.0708  0.0010 -0.0295
 2837TIP3    H130002   2.219   5.715  12.493  1.0280  1.8785  2.2331
 2837TIP3    H230003   2.136   5.670  12.611 -0.8733  1.0842  0.6413
 2838TIP3   OH230004   1.724   2.291   0.881 -0.0321  0.2565 -0.0566
 2838TIP3    H130005   1.664   2.266   0.950 -1.7946 -0.4049 -1.7325
 2838TIP3    H230006   1.756   2.208   0.845  0.5840  0.5798 -0.2832
 2839TIP3   OH230007   3.444   0.857   0.720 -0.2617 -0.4748 -0.0394
 2839TIP3    H130008   3.409   0.858   0.631  1.4036  1.2041 -0.7335
 2839TIP3    H230009   3.500   0.934   0.725 -1.7243  0.5635  3.0869
 2840TIP3   OH230010   1.230   1.802  17.233 -0.1588 -0.0515 -0.3760
 2840TIP3    H130011   1.268   1.835  17.151 -1.6001 -3.0012 -2.4446
 2840TIP3    H230012   1.302   1.754  17.274  0.0015 -0.4832 -1.1315
 2841TIP3   OH230013   5.252   2.523   2.451  1.2360  0.1426 -0.3435
 2841TIP3    H130014   5.310   2.598   2.449  1.1363  0.2201 -1.7041
 2841TIP3    H230015   5.302   2.453   2.408  0.8296 -0.1681 -0.3169
 2842TIP3   OH230016   0.339   0.604  17.664  0.1577  0.3098 -0.5383
 2842TIP3    H130017   0.296   0.523  17.636  2.7974 -0.6122 -2.3170
 2842TIP3    H230018   0.320   0.667  17.594  1.6308 -0.1382 -1.3985
 2843TIP3   OH230019   4.137   2.412  14.382  0.1882  0.7069  0.3195
 2843TIP3    H130020   4.159   2.329  14.341  2.1390  0.4719  1.7162
 2843TIP3    H230021   4.182   2.478  14.328 -0.1535  0.7292  0.0588
 2844TIP3   OH230022   4.317   1.390  12.895 -0.0542 -0.1063  0.0751
 2844TIP3    H130023   4.360   1.313  12.931  2.7132  1.8414  1.2328
 2844TIP3    H230024   4.388   1.444  12.861 -1.6474  2.7876  1.0137
 2845TIP3   OH230025   5.289   4.916   1.905  0.4726  0.4972  0.1322
 2845TIP3    H130026   5.201   4.952   1.902  0.8150  1.3498 -0.0279
 2845TIP3    H230027   5.340   4.980   1.954  1.4880  1.1152 -1.6560
 2846TIP3   OH230028   0.577   2.732  13.994 -0.6426  0.9312 -0.6022
 2846TIP3    H130029   0.580   2.811  13.939 -0.7991  2.5813  1.6189
 2846TIP3    H230030   0.599   2.763  14.082 -0.9409 -1.4896  0.4015
 2847TIP3   OH230031   1.317   0.221  14.347 -0.3310 -0.4657 -0.0572
 2847TIP3    H130032   1.281   0.142  14.388 -0.6720 -0.6518 -0.6994
 2847TIP3    H230033   1.379   0.188  14.282 -0.6988 -0.2176 -0.5395
 2848TIP3   OH230034   4.323   2.772   1.761 -0.9066  0.2784 -0.2921
 2848TIP3    H130035   4.354   2.845   1.815 -0.0217 -0.8434  0.7672
 2848TIP3    H230036   4.228   2.785   1.757 -0.9710  0.5867  1.2872
 2849TIP3   OH230037   0.619   6.310   0.654 -0.5238  0.3389  0.3025
 2849TIP3    H130038   0.682   6.355   0.599  0.4042  0.1550  1.1840
 2849TIP3    H230039   0.668   6.239   0.695 -1.7296 -0.9345 -0.3413
 2850TIP3   OH230040   0.073   5.604  15.469  0.9041 -0.8388 -0.0840
 2850TIP3    H130041   0.099   5.681  15.418  0.5572  0.4241  1.5462
 2850TIP3    H230042   0.113   5.618  15.555 -0.1527 -1.8935  0.6038
 2851TIP3   OH230043   2.232   1.752  14.681  0.4195  0.5884 -0.5017
 2851TIP3    H130044   2.176   1.804  14.739  0.2163 -0.4823  0.2833
 2851TIP3    H230045   2.309   1.732  14.733  0.5433  0.2035 -0.8305
 2852TIP3   OH230046   3.373   4.042  15.025  0.4594  0.0209  0.1244
 2852TIP3    H130047   3.356   4.097  15.102  1.3431 -0.5524  0.7506
 2852TIP3    H230048   3.301   4.061  14.965 -0.5909  0.0217  1.3496
 2853TIP3   OH230049   3.219   0.368   3.773 -0.3548 -0.2364  0.4662
 2853TIP3    H130050   3.147   0.428   3.796  0.2283  0.1913  1.2130
 2853TIP3    H230051   3.292   0.397   3.827  1.0138  0.6296 -1.7101
 2854TIP3   OH230052   5.469   3.946  11.873  0.0749 -0.5151 -0.0304
 2854TIP3    H130053   5.494   3.996  11.796  2.0469 -0.1821  0.7777
 2854TIP3    H230054   5.518   3.864  11.866 -0.0638 -0.6655  0.6670
 2855TIP3   OH230055   2.977   1.070  16.929  0.6565  0.6335  0.3061
 2855TIP3    H130056   3.056   1.123  16.921  1.7226 -0.7485  1.3525
 2855TIP3    H230057   2.945   1.087  17.018  0.2552  0.5055  0.1912
 2856TIP3   OH230058   6.157   3.499  12.425  0.1910  0.1720 -0.4045
 2856TIP3    H130059   6.211   3.519  12.502  0.9545  0.1821 -0.9426
 2856TIP3    H230060   6.089   3.567  12.425  0.7820  0.7662 -0.3082
 2857TIP3   OH230061   4.265   0.151  15.434 -0.3561 -0.1766 -0.3909
 2857TIP3    H130062   4.220   0.234  15.454 -0.7339 -0.8416  1.8132
 2857TIP3    H230063   4.348   0.157  15.481 -0.9059 -1.5013  0.8155
 2858TIP3   OH230064   4.038   6.253  17.391  0.3917 -0.0083 -0.2580
 2858TIP3    H130065   4.003   6.231  17.477  4.4122  1.1091  1.8514
 2858TIP3    H230066   4.002   6.186  17.333 -1.6456 -1.4109  2.4334
 2859TIP3   OH230067   3.060   4.763   7.250 -0.2556 -0.3157 -0.2910
 2859TIP3    H130068   3.085   4.684   7.202 -0.4255  0.0451 -0.9958
 2859TIP3    H230069   2.972   4.783   7.219  0.0305  0.5083 -0.6037
 2860TIP3   OH230070   5.684   6.577  12.221 -0.2226  0.9040 -0.1906
 2860TIP3    H130071   5.596   6.613  12.224  0.0037  1.3779  2.1407
 2860TIP3    H230072   5.739   6.646  12.258  0.5408 -0.8860  2.2415
 2861TIP3   OH230073   3.531   0.588  17.125 -0.6282 -0.1968 -0.5545
 2861TIP3    H130074   3.453   0.569  17.177 -0.9081 -0.4739 -1.0668
 2861TIP3    H230075   3.528   0.525  17.053 -0.2341  0.1584 -0.8897
 2862TIP3   OH230076   4.584   6.555  15.958 -0.2011  0.1408 -0.4085
 2862TIP3    H130077   4.672   6.591  15.945 -0.6338  1.2594 -0.2883
 2862TIP3    H230078   4.582   6.479  15.900  0.0536  1.4630 -2.2425
 2863TIP3   OH230079   6.726   5.687   0.692  0.7333 -0.3725 -0.3609
 2863TIP3    H130080   6.689   5.667   0.606 -1.0236  0.0976  0.2511
 2863TIP3    H230081   6.662   5.654   0.754  1.1161  0.8755  0.7499
 2864TIP3   OH230082   3.817   0.205   0.043 -0.3463 -0.3778  0.2795
 2864TIP3    H130083   3.784   0.130   0.091  1.8168 -2.4111 -1.1722
 2864TIP3    H230084   3.772   0.201  -0.042 -0.4821  0.2081  0.3166
 2865TIP3   OH230085   0.700   4.910   0.163  0.6902 -0.0159  0.0476
 2865TIP3    H130086   0.793   4.930   0.152  0.7751 -1.1820 -1.7969
 2865TIP3    H230087   0.669   4.974   0.227  2.6032  0.8489  0.1775
 2866TIP3   OH230088   6.129   5.268  15.449  0.0420 -0.0441 -0.5321
 2866TIP3    H130089   6.146   5.242  15.359 -0.5160 -0.8011 -0.4365
 2866TIP3    H230090   6.034   5.259  15.459  0.0220  0.6369 -0.0525
 2867TIP3   OH230091   1.941   0.542  14.705  0.1360 -0.1296 -0.0554
 2867TIP3    H130092   1.961   0.612  14.642  0.2103 -0.6465 -0.6180
 2867TIP3    H230093   2.007   0.553  14.774 -0.5313  1.0336  0.4295
 2868TIP3   OH230094   6.204   3.802  12.081  0.4374  0.0584  0.0987
 2868TIP3    H130095   6.140   3.731  12.088  0.0243  0.3646 -0.4636
 2868TIP3    H230096   6.279   3.772  12.132 -0.2241 -0.2221  0.9203
 2869TIP3   OH230097   5.501   5.758  12.455  0.0076  0.0250  0.1522
 2869TIP3    H130098   5.564   5.766  12.383  0.6284 -0.7088  0.5924
 2869TIP3    H230099   5.536   5.687  12.509 -1.4007 -0.6580  0.2067
 2870TIP3   OH230100   0.810   0.567  11.769  0.0039  0.1149 -0.6483
 2870TIP3    H130101   0.878   0.580  11.835 -0.6709  0.6501 -0.0385
 2870TIP3    H230102   0.732   0.545  11.820 -0.5782  0.7414 -1.2516
 2871TIP3   OH230103   0.969   2.835   5.291  0.1693  0.7749 -0.1999
 2871TIP3    H130104   0.879   2.851   5.319  0.4119  0.8123  0.5564
 2871TIP3    H230105   1.023   2.855   5.367  0.8283  0.7969 -0.6590
 2872TIP3   OH230106   1.147   2.842  11.862  0.2535 -0.7823 -0.5056
 2872TIP3    H130107   1.109   2.777  11.802 -2.9089 -0.4981  1.0087
 2872TIP3    H230108   1.183   2.790  11.934 -0.3873 -0.9510 -0.3026
 2873TIP3   OH230109   1.154   1.058   4.290 -0.1748  0.3082  0.0688
 2873TIP3    H130110   1.097   0.998   4.242 -1.1965  0.4523  1.0638
 2873TIP3    H230111   1.209   1.097   4.223 -0.1056 -1.0739 -0.7063
 2874TIP3   OH230112   2.966   5.725   2.981  0.3727  0.1453 -0.2493
 2874TIP3    H130113   3.036   5.734   3.045 -0.5544  0.3676  0.7736
 2874TIP3    H230114   2.995   5.655   2.922  0.6068 -1.1147  1.3018
 2875TIP3   OH230115   3.195   5.781   1.131  0.0507 -0.1263 -0.0307
 2875TIP3    H130116   3.159   5.866   1.103  1.5873  0.9569  1.1098
 2875TIP3    H230117   3.275   5.771   1.080  2.0735  1.1449  2.6407
 2876TIP3   OH230118   0.345   0.998   2.743 -0.0189  0.2377 -0.1882
 2876TIP3    H130119   0.256   1.031   2.730  0.7445  2.4993 -0.0780
 2876TIP3    H230120   0.396   1.040   2.673  1.3569  0.7315  1.0734
 2877TIP3   OH230121   4.937   0.350   3.295  0.2949  0.3702 -0.1710
 2877TIP3    H130122   4.856   0.303   3.319 -0.2240  0.6899 -1.2383
 2877TIP3    H230123   4.948   0.415   3.364  0.2586 -0.4142  0.5867
 2878TIP3   OH230124   3.746   1.220  12.043  0.6708 -0.5639 -0.1268
 2878TIP3    H130125   3.660   1.224  12.084  1.0165 -0.1297  0.5812
 2878TIP3    H230126   3.728   1.221  11.949 -0.0620  0.2946  0.0113
 2879TIP3   OH230127   1.091   1.712  14.115  0.0061 -0.9636  0.7456
 2879TIP3    H130128   1.080   1.726  14.021 -0.0366 -0.3687  0.8335
 2879TIP3    H230129   1.131   1.625  14.122  0.2586 -0.8978  0.1676
 2880TIP3   OH230130   3.132   5.153  13.979 -0.2475  0.0146  0.7044
 2880TIP3    H130131   3.087   5.107  14.049 -1.0564  0.1513  0.2877
 2880TIP3    H230132   3.222   5.121  13.982 -0.1538  0.3721  2.1016
 2881TIP3   OH230133   4.305   0.935  16.121 -0.0598  0.3090  0.0244
 2881TIP3    H130134   4.311   0.904  16.031  2.4513  1.4395 -0.2756
 2881TIP3    H230135   4.373   0.885  16.167 -0.8265  0.2706  1.1566
 2882TIP3   OH230136   0.581   3.412  13.956 -0.2696  0.3027 -0.4866
 2882TIP3    H130137   0.631   3.392  14.035 -1.0016  0.0566 -0.0708
 2882TIP3    H230138   0.500   3.361  13.966 -1.3972  2.0664 -0.2756
 2883TIP3   OH230139   0.827   6.057  12.500 -0.2499  0.4730 -0.5485
 2883TIP3    H130140   0.809   6.117  12.572  2.1557 -0.1023  0.6331
 2883TIP3    H230141   0.832   6.113  12.423 -0.0926  1.5052  0.1870
 2884TIP3   OH230142   0.993   3.845  11.325  0.1567 -0.5121  0.3957
 2884TIP3    H130143   1.051   3.904  11.276 -0.4536  0.5648  0.9383
 2884TIP3    H230144   0.970   3.777  11.262 -1.0729  1.1318 -1.0454
 2885TIP3   OH230145   0.340   1.313  13.233  0.2078  0.0191 -0.0041
 2885TIP3    H130146   0.395   1.325  13.310 -1.7191 -0.5563  1.5355
 2885TIP3    H230147   0.273   1.381  13.240 -1.5784 -1.6926  0.3473
 2886TIP3   OH230148   3.893   2.632  13.800 -0.6642 -0.4695 -0.4990
 2886TIP3    H130149   3.902   2.639  13.895  3.1079 -0.9099 -0.6976
 2886TIP3    H230150   3.869   2.541  13.785  0.3712 -0.8352 -0.0183
 2887TIP3   OH230151   0.015   1.799   6.169  0.8110 -0.6062 -0.7238
 2887TIP3    H130152   0.023   1.845   6.252 -0.2094 -1.2728 -0.2381
 2887TIP3    H230153  -0.036   1.721   6.190 -0.1281 -0.3971 -2.1171
 2888TIP3   OH230154   3.771   6.203  14.512 -0.5214 -0.0860  0.0623
 2888TIP3    H130155   3.764   6.295  14.487 -0.3136 -0.2604 -0.6407
 2888TIP3    H230156   3.855   6.197  14.558 -1.6753  0.5961  2.4383
 2889TIP3   OH230157   2.947   5.930   0.715 -0.5101 -0.1837  0.4513
 2889TIP3    H130158   3.006   5.897   0.648 -1.3770  1.6729 -1.3602
 2889TIP3    H230159   2.862   5.890   0.694 -1.2739  1.9735 -0.9926
 2890TIP3   OH230160   6.114   4.831  12.352 -0.0127  0.6364  0.1734
 2890TIP3    H130161   6.205   4.854  12.374 -0.2149  0.6329  1.0572
 2890TIP3    H230162   6.077   4.912  12.319  0.5839  0.3947 -1.1444
 2891TIP3   OH230163   4.837   4.589  14.537  0.1838  0.3303 -0.4923
 2891TIP3    H130164   4.930   4.597  14.554 -0.1831  0.8485  1.5887
 2891TIP3    H230165   4.801   4.675  14.561 -0.9801 -0.2984  0.1199
 2892TIP3   OH230166   6.169   1.064   3.970 -0.3424  0.4507 -0.1971
 2892TIP3    H130167   6.161   1.150   3.930 -2.8259  0.3780 -0.0467
 2892TIP3    H230168   6.190   1.082   4.062  1.9970  0.7386 -0.7424
 2893TIP3   OH230169   5.638   0.491  16.250  0.0593  0.4322  0.6126
 2893TIP3    H130170   5.557   0.453  16.286  0.1220  1.1028  1.5077
 2893TIP3    H230171   5.706   0.466  16.313  0.6945 -0.6884 -0.4678
 2894TIP3   OH230172   0.002   4.233   5.648  0.0359  0.0101 -0.0315
 2894TIP3    H130173  -0.049   4.247   5.568  1.0410  0.2792 -0.6398
 2894TIP3    H230174  -0.045   4.283   5.715  0.4247  1.7047 -0.9574
 2895TIP3   OH230175   3.114   6.316  12.174  0.3686  1.0810  0.0428
 2895TIP3    H130176   3.068   6.346  12.095 -0.5992 -0.4202  0.0017
 2895TIP3    H230177   3.125   6.395  12.227 -0.2263  1.8631 -0.9681
 2896TIP3   OH230178   3.347   5.136  15.965  0.2162  0.2469 -0.0018
 2896TIP3    H130179   3.321   5.181  15.884  0.5451  0.3789 -0.0380
 2896TIP3    H230180   3.289   5.060  15.970  0.0170  0.3805 -0.2251
 2897TIP3   OH230181   0.790   6.180  15.741  0.0752 -0.1190 -0.3513
 2897TIP3    H130182   0.750   6.263  15.716 -0.1321 -0.6359 -1.9101
 2897TIP3    H230183   0.715   6.121  15.755  0.2245 -0.1085  0.5468
 2898TIP3   OH230184   1.623   0.572   5.334  0.5684  0.1213 -0.0549
 2898TIP3    H130185   1.556   0.509   5.306 -0.0318  1.6181 -2.2894
 2898TIP3    H230186   1.574   0.644   5.371  1.1050  0.2898  0.3407
 2899TIP3   OH230187   6.302   0.577   5.020 -0.4429 -0.5915  0.2227
 2899TIP3    H130188   6.262   0.612   5.100 -0.5490 -1.0159  0.3548
 2899TIP3    H230189   6.228   0.567   4.959 -0.3106  0.0925 -0.0667
 2900TIP3   OH230190   4.348   5.081  11.034 -0.0282 -0.4605 -0.3816
 2900TIP3    H130191   4.260   5.048  11.017 -1.0917  1.0790  1.6518
 2900TIP3    H230192   4.374   5.124  10.952 -1.2270 -0.7812 -0.9502
 2901TIP3   OH230193   1.566   3.262  15.823 -0.7762  0.5307  0.3745
 2901TIP3    H130194   1.521   3.178  15.816  0.9662 -0.3245 -1.5137
 2901TIP3    H230195   1.641   3.245  15.879  0.9053  0.1152 -1.8630
 2902TIP3   OH230196   4.591   2.168   1.926  0.0062 -0.4183 -0.6299
 2902TIP3    H130197   4.515   2.224   1.935 -1.2131 -1.9007 -1.2608
 2902TIP3    H230198   4.636   2.174   2.011 -1.4881 -0.4464  0.1929
 2903TIP3   OH230199   6.289   5.203   1.666  0.0965  1.2305 -0.5604
 2903TIP3    H130200   6.268   5.248   1.585  1.7067  2.4947 -0.3219
 2903TIP3    H230201   6.321   5.117   1.638 -1.8822  0.6047 -1.0732
 2904TIP3   OH230202   4.313   3.876   0.952  0.3459  0.0274 -0.4361
 2904TIP3    H130203   4.286   3.887   1.043  0.9299 -0.6662 -0.1624
 2904TIP3    H230204   4.242   3.915   0.901 -0.4367 -0.4039  0.2890
 2905TIP3   OH230205   6.588   2.897   7.042 -0.0217  0.1568  0.1733
 2905TIP3    H130206   6.649   2.836   7.084 -1.0483 -0.1556  1.2638
 2905TIP3    H230207   6.503   2.876   7.080 -0.4286  2.1969  0.4988
 2906TIP3   OH230208   1.496   3.554   6.440 -0.3111  0.0697 -0.2433
 2906TIP3    H130209   1.524   3.537   6.530 -0.1785  1.5780  0.0295
 2906TIP3    H230210   1.411   3.596   6.449 -0.6145 -0.3896 -0.8746
 2907TIP3   OH230211   3.010   5.429  16.719 -0.1032  0.2970  0.2088
 2907TIP3    H130212   2.999   5.334  16.715 -1.4123  0.4069  0.6683
 2907TIP3    H230213   3.042   5.445  16.808  1.6745  0.1856 -0.3626
 2908TIP3   OH230214   0.276   6.306  11.459  0.9509  0.1309 -0.1681
 2908TIP3    H130215   0.367   6.329  11.439  0.7935  0.9117 -0.0380
 2908TIP3    H230216   0.276   6.283  11.551  1.0020  0.2198 -0.1456
 2909TIP3   OH230217   0.858   0.248  16.122 -0.5135  0.2020  0.2879
 2909TIP3    H130218   0.859   0.196  16.203 -0.4590  0.2328  0.3074
 2909TIP3    H230219   0.942   0.228  16.081 -1.7457 -2.1603 -1.2626
 2910TIP3   OH230220   4.234   3.221  15.311 -0.0184 -0.1839  0.0098
 2910TIP3    H130221   4.140   3.204  15.321  0.0087 -0.0418  0.5583
 2910TIP3    H230222   4.252   3.293  15.371  0.6454 -0.8958  0.6908
 2911TIP3   OH230223   6.057   5.556   5.788 -0.7398  0.2904 -0.6792
 2911TIP3    H130224   6.151   5.554   5.804 -0.5861  0.1126 -1.5633
 2911TIP3    H230225   6.018   5.529   5.871  0.0215 -0.5641 -0.5856
 2912TIP3   OH230226   0.265   5.314  16.436 -0.0084 -0.1417  0.2082
 2912TIP3    H130227   0.314   5.346  16.360  0.4049  1.5035  1.1059
 2912TIP3    H230228   0.174   5.311  16.407 -0.0032  1.4934 -0.0773
 2913TIP3   OH230229   0.590   4.394   5.296  0.1739  0.4063  0.0881
 2913TIP3    H130230   0.505   4.398   5.341  0.2325 -0.5756  0.2950
 2913TIP3    H230231   0.620   4.304   5.308  0.4406  0.2530 -1.4675
 2914TIP3   OH230232   4.122   3.545   0.365 -0.3984  0.1376  0.0162
 2914TIP3    H130233   4.035   3.584   0.357 -0.9931 -1.2850 -0.8349
 2914TIP3    H230234   4.180   3.619   0.382 -2.1013  0.8478  3.6027
 2915TIP3   OH230235   4.156   6.658   3.870  0.6969 -0.4635  0.2090
 2915TIP3    H130236   4.233   6.614   3.834  1.7781 -0.4037  2.2718
 2915TIP3    H230237   4.138   6.612   3.952  0.5568  1.5553  1.3857
 2916TIP3   OH230238   3.407   6.203  13.769  0.0401  0.2104  0.3732
 2916TIP3    H130239   3.352   6.138  13.812  0.6343  0.2140  1.1745
 2916TIP3    H230240   3.349   6.278  13.756 -0.6700 -0.4794 -0.6270
 2917TIP3   OH230241   4.791   2.599   4.808  0.6927 -0.0751 -0.1323
 2917TIP3    H130242   4.780   2.633   4.719 -0.5630 -1.0688 -0.3984
 2917TIP3    H230243   4.779   2.675   4.865  0.3484  0.3724 -0.7918
 2918TIP3   OH230244   0.284   4.147  11.966  0.3077 -0.1127  0.3205
 2918TIP3    H130245   0.332   4.216  11.920 -0.8871  2.2972  2.3937
 2918TIP3    H230246   0.235   4.101  11.898  1.4377  0.8368 -1.1857
 2919TIP3   OH230247   6.409   2.478   2.985 -0.1835  0.2580  0.1434
 2919TIP3    H130248   6.400   2.469   2.890  1.0127  0.0575  0.0332
 2919TIP3    H230249   6.480   2.542   2.996  0.9684 -1.0924  0.8771
 2920TIP3   OH230250   0.879   0.313  14.268 -0.2662  0.5619 -0.1105
 2920TIP3    H130251   0.863   0.361  14.187  1.1904  0.5944 -0.4075
 2920TIP3    H230252   0.974   0.318  14.281 -0.2540 -0.9351  0.6622
 2921TIP3   OH230253   0.969   2.542   3.370  0.0442  0.2180  0.1923
 2921TIP3    H130254   0.998   2.621   3.417  0.1763  1.2490 -1.5393
 2921TIP3    H230255   0.889   2.570   3.325 -0.0118 -0.7048 -0.2866
 2922TIP3   OH230256   6.201   5.887  15.617  0.0937  0.7901 -0.0576
 2922TIP3    H130257   6.255   5.840  15.680  0.7149 -0.2732 -1.3509
 2922TIP3    H230258   6.116   5.842  15.620  0.2278  0.5276 -0.2337
 2923TIP3   OH230259   1.246   5.946   1.401 -0.3847 -0.5559 -0.1052
 2923TIP3    H130260   1.259   5.867   1.452 -1.7396 -0.6793  0.0897
 2923TIP3    H230261   1.185   5.998   1.453  1.8072  1.4443  0.6460
 2924TIP3   OH230262   1.001   0.492  16.227 -0.3900  0.3130  0.4822
 2924TIP3    H130263   1.038   0.560  16.171 -0.1634 -0.4622 -0.3135
 2924TIP3    H230264   0.926   0.458  16.178 -1.0637  0.6076  1.2797
 2925TIP3   OH230265   5.348   3.707   0.310 -0.1213  0.5064 -0.0860
 2925TIP3    H130266   5.398   3.699   0.229 -1.0394  0.4347 -0.6560
 2925TIP3    H230267   5.383   3.786   0.352 -0.2081  1.0160 -0.9526
 2926TIP3   OH230268   0.146   5.810  15.077 -0.3801 -0.3768  0.1572
 2926TIP3    H130269   0.129   5.877  15.011  0.6346  0.9017  1.1519
 2926TIP3    H230270   0.239   5.819  15.097 -0.0198 -2.6545 -0.2736
 2927TIP3   OH230271   1.215   1.951   5.467  0.4017 -0.4358  0.1726
 2927TIP3    H130272   1.229   1.938   5.560  0.5996  1.6847  0.4805
 2927TIP3    H230273   1.163   1.876   5.440  0.5175 -1.1929  1.9368
 2928TIP3   OH230274   1.096   4.277  14.851  0.0584  0.5439 -0.7432
 2928TIP3    H130275   1.170   4.232  14.891  0.1847 -0.2407 -1.8112
 2928TIP3    H230276   1.086   4.236  14.765 -1.7920  0.4259 -0.5277
 2929TIP3   OH230277   4.653   5.896  16.320 -0.1827 -0.1161  0.5364
 2929TIP3    H130278   4.573   5.851  16.295 -0.1032 -0.5193  0.9906
 2929TIP3    H230279   4.654   5.975  16.265 -0.1139 -0.8602 -0.5812
 2930TIP3   OH230280   3.549   0.885  13.625 -0.1133  0.3446 -0.0459
 2930TIP3    H130281   3.561   0.844  13.710 -0.8917 -1.6353 -0.8287
 2930TIP3    H230282   3.626   0.859  13.574  1.0552  2.6652  0.4078
 2931TIP3   OH230283   6.731   1.083  14.904 -0.3466  0.8980 -0.0980
 2931TIP3    H130284   6.727   1.122  14.992  0.9692  0.8045  0.0260
 2931TIP3    H230285   6.640   1.083  14.874 -0.8448  0.8097  1.3133
 2932TIP3   OH230286   3.734   4.930  16.988 -0.8227 -0.1072 -0.0231
 2932TIP3    H130287   3.679   4.967  16.918 -1.4659  1.0093  1.0455
 2932TIP3    H230288   3.674   4.911  17.059 -0.3547 -2.3202 -0.1179
 2933TIP3   OH230289   0.034   1.226   3.336 -0.3210 -0.7213  0.0960
 2933TIP3    H130290   0.065   1.314   3.359  0.7955 -1.0558 -0.0801
 2933TIP3    H230291  -0.062   1.234   3.335 -0.2247  1.0260 -1.9600
 2934TIP3   OH230292   3.419   3.541  13.192  0.0526  0.3430 -0.3969
 2934TIP3    H130293   3.406   3.474  13.260  1.2659  1.2845  0.8078
 2934TIP3    H230294   3.461   3.494  13.120  1.6766 -0.0782  0.7658
 2935TIP3   OH230295   2.477   3.861   4.532  0.5090 -0.1129 -0.2252
 2935TIP3    H130296   2.448   3.776   4.565  0.1374  0.7453  1.8054
 2935TIP3    H230297   2.572   3.859   4.543  0.6357 -0.6405 -1.2252
 2936TIP3   OH230298   0.223   3.782  15.969  0.9886 -0.2679 -0.2303
 2936TIP3    H130299   0.242   3.810  15.879 -3.6580 -0.2723 -1.4263
 2936TIP3    H230300   0.191   3.692  15.959 -2.3941  0.6938  0.8778
 2937TIP3   OH230301   4.783   5.099   2.000  0.5293 -0.3330 -0.5232
 2937TIP3    H130302   4.711   5.153   2.032 -0.0915 -1.1788 -0.4686
 2937TIP3    H230303   4.761   5.010   2.029  1.4748 -0.6389 -0.7114
 2938TIP3   OH230304   6.066   6.579  14.015 -0.0850  0.1723  0.1610
 2938TIP3    H130305   6.117   6.648  13.973  1.9943 -0.0554  2.1303
 2938TIP3    H230306   6.020   6.536  13.943  0.0070  2.4018 -1.3352
 2939TIP3   OH230307   2.051   2.873  14.731 -0.7764  0.1449  0.3280
 2939TIP3    H130308   2.021   2.782  14.738  0.9071 -0.3182  2.4796
 2939TIP3    H230309   2.003   2.919  14.800 -0.2793  0.5032  0.4370
 2940TIP3   OH230310   0.804   0.415  15.091  0.3818  0.5811 -0.4397
 2940TIP3    H130311   0.800   0.445  15.181  0.1419 -0.3078 -0.1423
 2940TIP3    H230312   0.859   0.337  15.094 -0.3469  0.0378 -0.9071
 2941TIP3   OH230313   6.641   2.722   4.335 -0.0775 -0.4235 -0.1985
 2941TIP3    H130314   6.608   2.762   4.415 -0.0876  1.1550 -0.9489
 2941TIP3    H230315   6.585   2.646   4.321  0.9476 -1.7229  2.1252
 2942TIP3   OH230316   6.713   5.372  12.123 -0.5089  0.4142  1.0067
 2942TIP3    H130317   6.801   5.340  12.142  0.2912  1.1711 -1.1285
 2942TIP3    H230318   6.658   5.293  12.125  0.1105 -0.0122  2.7447
 2943TIP3   OH230319   1.057   4.715   2.726  0.0021  0.2608 -0.0204
 2943TIP3    H130320   1.063   4.765   2.808 -1.0768  0.1181  0.1573
 2943TIP3    H230321   1.052   4.782   2.658  3.5095  0.4398 -0.2632
 2944TIP3   OH230322   2.044   6.517   5.855  0.6717  0.1384  0.1800
 2944TIP3    H130323   2.118   6.571   5.825 -0.7796  1.3143 -1.4345
 2944TIP3    H230324   2.016   6.469   5.777 -1.1208  0.7522  0.4002
 2945TIP3   OH230325   5.230   4.885   0.130  0.0513 -0.2514  0.2528
 2945TIP3    H130326   5.318   4.916   0.148 -0.8196  1.3322  2.1510
 2945TIP3    H230327   5.192   4.950   0.071  0.1435 -0.9940 -0.6651
 2946TIP3   OH230328   6.354   2.882  15.413  0.9632 -0.4935 -0.0361
 2946TIP3    H130329   6.405   2.816  15.460  1.3139 -0.4466 -0.3532
 2946TIP3    H230330   6.271   2.839  15.394  0.3423 -0.1492  1.6421
 2947TIP3   OH230331   1.041   2.891  15.018  0.6372 -0.3757  0.2370
 2947TIP3    H130332   1.126   2.848  15.016  0.3562 -0.9145 -0.2924
 2947TIP3    H230333   1.056   2.971  15.069  1.5776 -0.2167 -0.2715
 2948TIP3   OH230334   2.334   1.186   5.762 -0.3678  0.8024  0.0867
 2948TIP3    H130335   2.390   1.111   5.780  0.0877  0.7008 -1.5634
 2948TIP3    H230336   2.386   1.262   5.787 -0.5954  0.6061  1.1912
 2949TIP3   OH230337   4.696   1.449   6.711 -0.2145 -0.4159  0.0996
 2949TIP3    H130338   4.742   1.521   6.668 -0.3204 -0.6345 -0.3852
 2949TIP3    H230339   4.762   1.410   6.769 -0.0956 -0.0625  0.2017
 2950TIP3   OH230340   1.246   5.355  15.797  0.4790  0.0630 -0.3644
 2950TIP3    H130341   1.322   5.362  15.738  0.5323 -2.3977 -0.6999
 2950TIP3    H230342   1.173   5.333  15.739 -0.0400  0.2343  0.2151
 2951TIP3   OH230343   3.535   1.964  14.560  0.0442 -0.3429  0.8387
 2951TIP3    H130344   3.515   2.020  14.635  0.7496 -1.4129  1.8596
 2951TIP3    H230345   3.452   1.955  14.514 -0.3655  0.4618  1.3943
 2952TIP3   OH230346   3.580   3.055  13.125 -0.9251 -0.1420  0.0670
 2952TIP3    H130347   3.571   2.964  13.098 -0.0458  0.3836 -2.1722
 2952TIP3    H230348   3.524   3.063  13.202 -0.9744 -2.5699  0.3450
 2953TIP3   OH230349   1.824   2.622   0.385  0.0977  0.0811 -0.0256
 2953TIP3    H130350   1.786   2.548   0.338 -1.8912  1.0026  0.0419
 2953TIP3    H230351   1.859   2.584   0.465  0.3871 -0.9690 -0.6222
 2954TIP3   OH230352   0.656   5.237   1.814 -0.1176  0.3127 -0.4034
 2954TIP3    H130353   0.698   5.205   1.734  0.3804  0.4614 -0.2028
 2954TIP3    H230354   0.563   5.236   1.793 -0.0070  0.1619 -0.9190
 2955TIP3   OH230355   3.945   0.096  13.292 -0.1952  0.6065 -0.2286
 2955TIP3    H130356   3.943   0.048  13.375 -2.0817  1.1461  0.0939
 2955TIP3    H230357   4.028   0.143  13.294 -0.6518  1.4911  1.9239
 2956TIP3   OH230358   5.849   2.866   2.914 -0.5913  0.0494 -0.1833
 2956TIP3    H130359   5.821   2.926   2.983 -0.3349  0.8258 -0.7404
 2956TIP3    H230360   5.812   2.904   2.833  0.4207  0.0254 -0.6729
 2957TIP3   OH230361   4.381   0.421   5.202 -0.1464  0.0917  0.5104
 2957TIP3    H130362   4.386   0.329   5.178  0.8236  0.0492  0.8490
 2957TIP3    H230363   4.304   0.454   5.155 -0.6992 -0.9610  0.6543
 2958TIP3   OH230364   5.636   6.549   1.608 -0.7786 -0.1402  0.5539
 2958TIP3    H130365   5.557   6.562   1.661 -1.1223  0.9813 -0.2000
 2958TIP3    H230366   5.658   6.637   1.577 -0.0235 -0.6464 -0.3668
 2959TIP3   OH230367   3.838   0.936   3.313  0.4356  0.0075 -0.0347
 2959TIP3    H130368   3.824   0.848   3.279  0.1230 -0.4458  1.1901
 2959TIP3    H230369   3.870   0.987   3.238  0.4951 -1.1105 -0.7883
 2960TIP3   OH230370   4.898   3.790   4.365 -0.2329  0.1064 -0.2203
 2960TIP3    H130371   4.845   3.772   4.287 -0.7008 -0.7560  0.2764
 2960TIP3    H230372   4.945   3.708   4.382 -1.2052 -0.2052  1.1943
 2961TIP3   OH230373   4.640   1.727   1.110 -0.2608  0.2623  0.5446
 2961TIP3    H130374   4.558   1.687   1.139 -0.2642 -1.5681 -1.6331
 2961TIP3    H230375   4.615   1.812   1.075 -0.6886  1.1310  2.8327
 2962TIP3   OH230376   3.221   2.621   0.509  0.6767  0.3514  0.1996
 2962TIP3    H130377   3.314   2.599   0.499  0.2316 -1.3303 -0.5280
 2962TIP3    H230378   3.176   2.567   0.445 -0.9100  0.4623  1.1655
 2963TIP3   OH230379   5.023   4.811  15.576 -0.4387 -0.6513  0.3774
 2963TIP3    H130380   5.118   4.806  15.565 -0.4238  0.9452 -0.5345
 2963TIP3    H230381   4.987   4.783  15.492 -0.7613 -0.6864  0.5229
 2964TIP3   OH230382   0.535   3.298  16.841  0.2493  0.6167 -0.1685
 2964TIP3    H130383   0.628   3.301  16.820  0.8292 -1.1266  1.7740
 2964TIP3    H230384   0.527   3.347  16.923 -0.8698  2.1321 -1.1268
 2965TIP3   OH230385   0.493   2.807   2.130  0.0267 -0.1563 -0.1189
 2965TIP3    H130386   0.439   2.847   2.198  1.7999  0.4495  0.9999
 2965TIP3    H230387   0.542   2.738   2.175 -1.0656 -1.9283 -1.4810
 2966TIP3   OH230388   4.845   3.413   6.235 -0.5546  0.1289  0.8669
 2966TIP3    H130389   4.850   3.337   6.293 -2.1853 -0.1025  0.7456
 2966TIP3    H230390   4.762   3.455   6.257 -0.4028  1.0026 -0.1384
 2967TIP3   OH230391   3.420   0.255   4.127  0.4261 -0.3416 -0.3705
 2967TIP3    H130392   3.374   0.171   4.127  0.6822 -0.4832 -0.2179
 2967TIP3    H230393   3.391   0.297   4.208 -0.4248  0.1204 -0.9019
 2968TIP3   OH230394   6.607   3.839   0.430  0.5340  0.0778 -0.8961
 2968TIP3    H130395   6.654   3.905   0.482 -0.8934  0.6230 -0.2407
 2968TIP3    H230396   6.519   3.836   0.469 -0.2642 -0.2489 -2.6333
 2969TIP3   OH230397   4.121   4.666  11.826 -0.1259 -0.7556  0.7522
 2969TIP3    H130398   4.141   4.590  11.771  1.0215 -0.9899  1.4632
 2969TIP3    H230399   4.028   4.656  11.848 -1.1355  0.2105 -2.4334
 2970TIP3   OH230400   6.637   4.962  17.468 -0.2047  0.3203 -0.1130
 2970TIP3    H130401   6.652   4.990  17.558  0.2412 -0.0592 -0.0681
 2970TIP3    H230402   6.723   4.936  17.435 -0.3751  0.3809 -0.6244
 2971TIP3   OH230403   3.446   5.549  11.900 -0.1943  0.0245  0.2714
 2971TIP3    H130404   3.360   5.562  11.941  0.5777  0.7962  1.7202
 2971TIP3    H230405   3.463   5.455  11.909 -0.2383  0.1125  1.3422
 2972TIP3   OH230406   0.266   5.538   6.466  0.7025  0.3370  0.1620
 2972TIP3    H130407   0.262   5.494   6.551  1.9725  0.0777  0.1033
 2972TIP3    H230408   0.330   5.607   6.477 -0.8206  1.8332  0.0626
 2973TIP3   OH230409   3.010   4.930   1.795  0.3405 -0.0933  0.2144
 2973TIP3    H130410   3.078   4.997   1.803  1.0798 -1.0036  2.0947
 2973TIP3    H230411   2.936   4.965   1.843  0.6382 -0.5055  0.9798
 2974TIP3   OH230412   6.511   4.744   0.536  0.0734 -0.0052  0.2543
 2974TIP3    H130413   6.599   4.755   0.572  0.8068  0.1012 -1.4750
 2974TIP3    H230414   6.505   4.651   0.513  0.6490  0.4125 -1.7756
 2975TIP3   OH230415   0.823   3.304   6.120  0.0374  0.0398  0.2350
 2975TIP3    H130416   0.880   3.339   6.188  1.5929 -0.7225 -0.6305
 2975TIP3    H230417   0.750   3.264   6.168  0.3459  0.7827  1.3725
 2976TIP3   OH230418   3.619   5.051  16.765 -0.3159  0.1216  0.0189
 2976TIP3    H130419   3.581   5.126  16.811 -0.7848 -0.2650  0.2658
 2976TIP3    H230420   3.560   5.034  16.692  1.1999  1.6732 -1.6845
 2977TIP3   OH230421   5.468   1.992  11.641  0.0780  0.6101 -0.0571
 2977TIP3    H130422   5.438   1.933  11.710  1.2781  1.9869  1.7165
 2977TIP3    H230423   5.470   2.079  11.682 -0.2433  1.6806 -2.1547
 2978TIP3   OH230424   0.111   0.440  14.335 -0.3983 -0.3216  0.1818
 2978TIP3    H130425   0.084   0.502  14.267  1.1549  0.7344  0.4842
 2978TIP3    H230426   0.142   0.496  14.407 -2.2630 -1.3866  1.9147
 2979TIP3   OH230427   0.466   3.227   1.951 -0.7339 -0.4685  0.0545
 2979TIP3    H130428   0.531   3.293   1.925 -0.6749 -0.2569  0.7154
 2979TIP3    H230429   0.394   3.278   1.990 -0.9275 -0.7584  0.0811
 2980TIP3   OH230430   0.752   2.797   0.131 -0.0172 -0.0362 -0.0952
 2980TIP3    H130431   0.703   2.825   0.053  1.7338  1.1494 -0.8199
 2980TIP3    H230432   0.690   2.743   0.179 -1.6357  0.3969 -1.5790
 2981TIP3   OH230433   4.550   2.817  12.910  0.1131 -0.7655 -0.5459
 2981TIP3    H130434   4.626   2.869  12.885 -0.5082 -0.1025 -1.1171
 2981TIP3    H230435   4.561   2.734  12.864  1.0477 -1.1156  0.2725
 2982TIP3   OH230436   2.725   4.627   3.939 -0.3500 -0.5414  0.3765
 2982TIP3    H130437   2.687   4.542   3.959 -1.2456 -0.9445 -2.6464
 2982TIP3    H230438   2.767   4.616   3.853  1.2445  1.5686  0.7802
 2983TIP3   OH230439   0.280   2.749  14.517 -0.1659  0.0220  0.5134
 2983TIP3    H130440   0.359   2.789  14.480 -0.1068  1.1413  1.7818
 2983TIP3    H230441   0.261   2.676  14.459  1.1232  0.4517 -0.4966
 2984TIP3   OH230442   3.138   4.654  15.097  0.3383  0.2443 -0.9700
 2984TIP3    H130443   3.125   4.734  15.046 -0.5754 -0.2352 -1.5196
 2984TIP3    H230444   3.233   4.641  15.098  0.6505  2.1519  0.4485
 2985TIP3   OH230445   5.165   1.697   5.315 -0.2496 -0.2841  0.3379
 2985TIP3    H130446   5.132   1.722   5.229 -0.1517  0.0805  0.4072
 2985TIP3    H230447   5.093   1.713   5.375 -0.8001 -1.8395  0.1367
 2986TIP3   OH230448   4.967   5.660   3.232 -0.0384 -0.0792 -0.0143
 2986TIP3    H130449   5.052   5.626   3.261 -0.5178  0.7862  2.7023
 2986TIP3    H230450   4.987   5.711   3.154  1.6509 -1.2972 -0.4344
 2987TIP3   OH230451   4.689   2.913   0.747  0.3051  0.5441 -0.6007
 2987TIP3    H130452   4.718   2.869   0.827  0.1362  0.3192 -0.6607
 2987TIP3    H230453   4.759   2.974   0.726  0.0584  1.0592  0.0711
 2988TIP3   OH230454   3.152   1.874   3.954  0.0510  0.0897  0.4531
 2988TIP3    H130455   3.087   1.863   3.884  0.5080 -2.0074  0.3027
 2988TIP3    H230456   3.141   1.965   3.982 -0.9075  0.6703 -1.5832
 2989TIP3   OH230457   3.539   2.719  16.870 -0.0020 -0.0743  0.4930
 2989TIP3    H130458   3.567   2.685  16.955 -1.9924  1.2934  1.7923
 2989TIP3    H230459   3.583   2.803  16.862 -3.1249  1.9844  2.4467
 2990TIP3   OH230460   4.861   5.147  15.454  0.2127  0.1036  0.2000
 2990TIP3    H130461   4.884   5.156  15.362  0.4034 -0.0352  0.2348
 2990TIP3    H230462   4.945   5.143  15.500  0.1632 -1.5889  0.2152
 2991TIP3   OH230463   0.888   6.605  12.967  0.1747 -0.5409 -1.2276
 2991TIP3    H130464   0.965   6.658  12.950  0.2706 -0.4756 -0.6163
 2991TIP3    H230465   0.920   6.515  12.964  0.8964 -0.4819  1.7125
 2992TIP3   OH230466   4.177   0.040   2.809  0.1303  0.2953 -0.5315
 2992TIP3    H130467   4.088   0.006   2.802  0.6146 -1.5531  1.3131
 2992TIP3    H230468   4.208   0.009   2.894  1.8667  2.5964 -0.2246
 2993TIP3   OH230469   5.912   5.101  16.961 -0.8000  0.3936 -0.5023
 2993TIP3    H130470   5.831   5.141  16.992 -0.1498  0.7863  0.7338
 2993TIP3    H230471   5.982   5.149  17.006  0.0058 -2.6254  1.8017
 2994TIP3   OH230472   2.820   3.775  13.316 -0.0783 -0.1728  0.7987
 2994TIP3    H130473   2.880   3.708  13.285 -1.4926 -0.7110 -0.9505
 2994TIP3    H230474   2.757   3.728  13.371  0.5383  0.2319  1.8777
 2995TIP3   OH230475   3.385   3.356  12.897  0.1788  0.1606 -0.8570
 2995TIP3    H130476   3.358   3.370  12.807  1.6943 -0.9940 -1.5468
 2995TIP3    H230477   3.474   3.393  12.901 -0.2598  1.1578  0.4784
 2996TIP3   OH230478   0.965   4.081  13.071  0.1555 -0.0936  0.4780
 2996TIP3    H130479   0.913   4.023  13.015 -0.2179  1.1638 -0.5251
 2996TIP3    H230480   0.902   4.146  13.102  1.1566  1.8212 -1.2415
 2997TIP3   OH230481   1.445   6.413  13.325  0.3429 -0.3046 -0.7878
 2997TIP3    H130482   1.475   6.347  13.386  1.2935  0.2241 -0.6690
 2997TIP3    H230483   1.489   6.392  13.242  1.3006  0.6375 -0.5392
 2998TIP3   OH230484   0.099   5.707  16.024  0.2861  0.2341  0.2089
 2998TIP3    H130485   0.037   5.773  16.054  1.0985  0.0286  2.5941
 2998TIP3    H230486   0.045   5.631  16.003 -0.4020  0.5710  0.7029
 2999TIP3   OH230487   5.247   5.930  17.420 -0.2768  0.5191  0.3671
 2999TIP3    H130488   5.331   5.943  17.465  0.6403 -0.6678 -0.9037
 2999TIP3    H230489   5.268   5.942  17.327 -1.4913  0.0516  0.0155
 3000TIP3   OH230490   5.133   4.175  14.895  0.3849 -0.0174 -0.2393
 3000TIP3    H130491   5.192   4.123  14.949 -1.0887 -0.7303  0.7308
 3000TIP3    H230492   5.177   4.260  14.888  1.9219 -0.7702 -0.2753
 3001TIP3   OH230493   4.732   0.918  16.632  0.5080  0.5917  0.1535
 3001TIP3    H130494   4.683   0.868  16.697  0.6340 -1.8048 -1.4384
 3001TIP3    H230495   4.697   1.007  16.637 -2.4711 -0.5154  0.5698
 3002TIP3   OH230496   2.925   3.243  14.705  0.7057 -0.1291 -0.6394
 3002TIP3    H130497   2.937   3.247  14.610 -0.4248 -1.2580 -0.8444
 3002TIP3    H230498   2.873   3.321  14.725  1.4076  0.4085 -0.8567
 3003TIP3   OH230499   1.488   2.618   5.734  0.3691  0.0294 -0.4412
 3003TIP3    H130500   1.493   2.564   5.813 -1.3481 -1.4037 -1.2455
 3003TIP3    H230501   1.420   2.683   5.754  0.2357 -0.0681 -0.5734
 3004TIP3   OH230502   5.335   5.962  14.936 -0.6504 -0.2701 -0.4643
 3004TIP3    H130503   5.426   5.979  14.963 -0.4564 -0.4079 -1.0095
 3004TIP3    H230504   5.291   6.046  14.946 -0.4142 -0.1547 -0.3818
 3005TIP3   OH230505   1.282   2.118  11.110 -0.0177  0.8813 -0.3803
 3005TIP3    H130506   1.200   2.144  11.066 -0.2179  2.9603  1.0791
 3005TIP3    H230507   1.260   2.115  11.203  1.0452 -0.8010 -0.1458
 3006TIP3   OH230508   2.479   6.390   4.982  0.3371 -0.1540 -0.0124
 3006TIP3    H130509   2.544   6.424   4.920  2.0688 -0.6526  1.4378
 3006TIP3    H230510   2.432   6.467   5.013  0.9960  0.3606 -0.2697
 3007TIP3   OH230511   3.962   2.508   0.475  0.3482 -0.0104 -0.2120
 3007TIP3    H130512   3.969   2.429   0.421 -0.7539  0.0233 -0.4231
 3007TIP3    H230513   3.959   2.579   0.412 -0.5569  0.0576 -0.1016
 3008TIP3   OH230514   1.788   3.678   0.651 -0.4696  0.2791 -0.0227
 3008TIP3    H130515   1.875   3.711   0.628  0.6105 -1.6949  1.0399
 3008TIP3    H230516   1.797   3.645   0.740 -2.1791 -0.4358 -0.0783
 3009TIP3   OH230517   3.384   0.968  15.089 -0.5625 -0.0668  0.5178
 3009TIP3    H130518   3.476   0.993  15.097 -1.0012  1.2933  1.7417
 3009TIP3    H230519   3.367   0.967  14.995  0.6177 -0.0285  0.2955
 3010TIP3   OH230520   5.195   2.195  15.355 -0.0232  0.7268 -0.5488
 3010TIP3    H130521   5.179   2.285  15.384 -1.4048 -0.1727  1.7717
 3010TIP3    H230522   5.108   2.163  15.330  0.0190 -0.6556  0.9346
 3011TIP3   OH230523   0.833   4.799   0.466 -0.0421 -0.1013 -0.1134
 3011TIP3    H130524   0.748   4.828   0.498  0.4135  0.8205  0.2737
 3011TIP3    H230525   0.892   4.873   0.481  0.5810 -0.2940 -1.4538
 3012TIP3   OH230526   5.519   3.895  16.883  0.2599 -0.1743  0.0338
 3012TIP3    H130527   5.588   3.960  16.872  0.9476 -0.7460  0.8414
 3012TIP3    H230528   5.443   3.933  16.840  1.4795 -0.2024 -2.3073
 3013TIP3   OH230529   4.159   1.891  16.329 -0.4508  0.3456 -0.0700
 3013TIP3    H130530   4.204   1.975  16.340 -0.6900  0.8651 -2.5234
 3013TIP3    H230531   4.066   1.913  16.335 -0.5097  0.2333 -0.5817
 3014TIP3   OH230532   5.470   2.840  15.797  0.0203  0.1634 -0.6018
 3014TIP3    H130533   5.488   2.829  15.890  1.7681  0.7063 -0.8280
 3014TIP3    H230534   5.427   2.758  15.771  0.0120 -0.2208  0.5651
 3015TIP3   OH230535   5.953   5.784  15.611  0.0929 -0.1086 -0.3249
 3015TIP3    H130536   5.860   5.782  15.592  0.1705 -0.6327 -0.6725
 3015TIP3    H230537   5.966   5.717  15.678 -0.3874  2.6242  2.6897
 3016TIP3   OH230538   4.452   3.119  10.904 -0.2195 -0.5738  0.0499
 3016TIP3    H130539   4.493   3.204  10.922 -0.8843 -0.3218  0.3839
 3016TIP3    H230540   4.409   3.130  10.819 -2.7427  0.3683  1.3484
 3017TIP3   OH230541   4.076   0.559   5.832 -0.2470 -0.6864 -0.0329
 3017TIP3    H130542   3.991   0.594   5.807 -1.0039 -0.7446  2.2246
 3017TIP3    H230543   4.080   0.473   5.791 -1.0906 -0.5114 -0.4957
 3018TIP3   OH230544   1.013   4.576  15.254 -0.1534  0.7097 -0.0947
 3018TIP3    H130545   1.025   4.483  15.271  0.0396  0.8084  0.3397
 3018TIP3    H230546   1.051   4.590  15.167  1.4748  0.7119  0.5700
 3019TIP3   OH230547   1.157   4.408  13.309 -0.3129 -0.0985 -0.0701
 3019TIP3    H130548   1.188   4.492  13.273  1.6760  0.2254  2.0945
 3019TIP3    H230549   1.230   4.348  13.296 -0.0101 -0.2947  2.1327
 3020TIP3   OH230550   4.196   0.850  13.460 -0.0182  0.7786 -0.2051
 3020TIP3    H130551   4.288   0.872  13.445 -0.5491  2.4209 -1.4490
 3020TIP3    H230552   4.151   0.884  13.383 -1.9124  1.8866  1.2889
 3021TIP3   OH230553   4.045   3.064   3.140 -0.5160  0.3718 -0.5901
 3021TIP3    H130554   4.038   3.112   3.058 -0.8056  1.2132 -0.0848
 3021TIP3    H230555   4.003   3.121   3.205 -1.7006 -0.9744 -0.1429
 3022TIP3   OH230556   6.709   3.306   2.748 -0.1138 -0.6819  0.2803
 3022TIP3    H130557   6.718   3.385   2.695 -1.3115 -0.6039  0.1520
 3022TIP3    H230558   6.734   3.333   2.836 -1.9140  0.2795  0.5571
 3023TIP3   OH230559   5.012   6.420  13.635 -0.2338 -0.3249  0.3269
 3023TIP3    H130560   5.099   6.443  13.602  0.3531 -1.3898  1.0624
 3023TIP3    H230561   4.952   6.467  13.578  0.8140  0.0806 -0.4845
 3024TIP3   OH230562   2.413   0.999  14.053 -0.6033  0.4560  0.2637
 3024TIP3    H130563   2.359   1.074  14.080 -0.4693  0.8785 -0.6115
 3024TIP3    H230564   2.503   1.028  14.069 -0.5828  0.1787  0.6615
 3025TIP3   OH230565   6.496   1.326  12.847 -0.1287  0.3465  0.1226
 3025TIP3    H130566   6.424   1.334  12.785  0.6260  1.0126 -0.6868
 3025TIP3    H230567   6.507   1.231  12.858 -0.3015  0.2216 -0.7153
 3026TIP3   OH230568   4.005   5.199   0.686 -0.0289 -0.1075  0.5953
 3026TIP3    H130569   4.074   5.190   0.620 -1.1920 -0.6072 -0.5911
 3026TIP3    H230570   4.051   5.233   0.764  1.5303 -0.3734 -0.1632
 3027TIP3   OH230571   0.085   1.629   4.670 -0.1781 -0.0994  0.1482
 3027TIP3    H130572   0.165   1.661   4.713 -0.1209 -0.5534  0.3804
 3027TIP3    H230573   0.096   1.534   4.666 -0.8217 -0.1905  0.4174
 3028TIP3   OH230574   5.059   3.574   0.100 -0.6703 -0.1469 -0.1522
 3028TIP3    H130575   5.081   3.571   0.193 -2.5792  0.7426  0.3827
 3028TIP3    H230576   5.123   3.633   0.062 -0.1784 -0.1233  0.6939
 3029TIP3   OH230577   3.832   0.006  12.425 -0.7126  0.0750  0.4813
 3029TIP3    H130578   3.882   0.072  12.474 -0.0063 -0.3247  0.3172
 3029TIP3    H230579   3.836   0.037  12.334  0.9763 -0.9693  0.1424
 3030TIP3   OH230580   5.223   6.186   0.560 -0.7584  0.0849 -0.0491
 3030TIP3    H130581   5.149   6.213   0.615 -1.0145  0.4075 -0.5497
 3030TIP3    H230582   5.200   6.216   0.472 -0.1431 -0.0334 -0.2533
 3031TIP3   OH230583   2.001   5.458   1.641  0.5072  0.1095 -0.3726
 3031TIP3    H130584   1.993   5.495   1.728 -0.5230 -0.2081 -0.3235
 3031TIP3    H230585   1.933   5.390   1.637  1.1594 -0.5243 -1.0892
 3032TIP3   OH230586   4.234   5.034  12.141  0.1720  0.5232  0.0889
 3032TIP3    H130587   4.218   4.941  12.128  1.0653  0.2470  0.8293
 3032TIP3    H230588   4.325   5.039  12.172  0.1339  1.6351  0.0789
 3033TIP3   OH230589   0.739   1.302  17.195  0.0534 -0.1747  0.3078
 3033TIP3    H130590   0.667   1.365  17.204  1.0427  0.7690  2.4404
 3033TIP3    H230591   0.815   1.356  17.174  0.1231 -1.2100 -2.4141
 3034TIP3   OH230592   0.405   1.778  16.182  0.3685 -0.2923  1.0423
 3034TIP3    H130593   0.452   1.855  16.150  0.4352  0.0660  1.9615
 3034TIP3    H230594   0.353   1.749  16.107  0.5069  0.5187  0.6165
 3035TIP3   OH230595   3.873   1.537   4.191  0.4967  0.4628  0.1819
 3035TIP3    H130596   3.929   1.529   4.269  1.6293  0.3264 -0.6286
 3035TIP3    H230597   3.889   1.457   4.141  0.9664  1.2231 -0.9308
 3036TIP3   OH230598   4.512   1.297   6.577 -0.1492  0.0573  0.3868
 3036TIP3    H130599   4.430   1.338   6.603  0.6290  0.5045  2.3258
 3036TIP3    H230600   4.579   1.344   6.627  1.1613 -1.1344 -0.1831
 3037TIP3   OH230601   5.376   4.597  15.583  0.1472 -0.7044  0.5716
 3037TIP3    H130602   5.404   4.550  15.662 -0.7939 -1.7588  0.3148
 3037TIP3    H230603   5.393   4.689  15.602 -1.4552 -0.7618  2.6468
 3038TIP3   OH230604   3.516   3.894   4.673  0.1120  0.0811 -0.4012
 3038TIP3    H130605   3.501   3.969   4.616 -0.1668  0.0675 -0.3470
 3038TIP3    H230606   3.582   3.925   4.736 -1.0595  0.7813  0.5384
 3039TIP3   OH230607   1.703   3.952  16.906 -0.4433  0.1322  0.0365
 3039TIP3    H130608   1.774   3.903  16.948 -1.0860 -2.0740 -1.2979
 3039TIP3    H230609   1.624   3.922  16.950 -0.7956  0.5251 -0.3192
 3040TIP3   OH230610   0.245   6.578   2.819  0.0447 -0.0888  0.4828
 3040TIP3    H130611   0.225   6.666   2.787  0.6282  0.3765  1.3387
 3040TIP3    H230612   0.340   6.571   2.812 -0.0825 -1.0834 -0.6004
 3041TIP3   OH230613   1.497   5.686  17.110 -0.2376  0.9661  0.4352
 3041TIP3    H130614   1.555   5.648  17.177  0.1171 -0.5505 -0.6739
 3041TIP3    H230615   1.498   5.780  17.128  1.0560  0.7648  1.6184
 3042TIP3   OH230616   6.280   1.320  15.050  0.2011 -0.2880 -0.2274
 3042TIP3    H130617   6.277   1.346  15.141  0.5563 -0.2546 -0.2254
 3042TIP3    H230618   6.296   1.225  15.052 -0.5286 -0.4217 -0.2441
 3043TIP3   OH230619   1.166   4.729   5.165  0.4271  0.0702 -0.2838
 3043TIP3    H130620   1.176   4.809   5.217 -1.9135  1.4010 -1.6914
 3043TIP3    H230621   1.152   4.660   5.229  0.1448  1.1938  0.9165
 3044TIP3   OH230622   0.920   4.669  11.310  0.3359  0.2254 -0.1024
 3044TIP3    H130623   0.993   4.633  11.260  1.2260  0.9129  0.6482
 3044TIP3    H230624   0.877   4.730  11.250  1.9377  1.7249  0.1823
 3045TIP3   OH230625   5.808   4.127  12.869 -0.2031  0.2415 -0.1874
 3045TIP3    H130626   5.850   4.051  12.828  1.6884  1.6188 -0.9684
 3045TIP3    H230627   5.782   4.097  12.956 -4.0595 -2.7217 -2.0500
 3046TIP3   OH230628   1.262   2.104  17.198  0.1252 -0.5001  0.1462
 3046TIP3    H130629   1.226   2.159  17.128 -0.1670 -0.8040  0.0582
 3046TIP3    H230630   1.323   2.162  17.244 -1.7172  0.6022  1.3607
 3047TIP3   OH230631   6.228   6.649  16.574 -0.4340  0.0602  0.6975
 3047TIP3    H130632   6.216   6.628  16.667 -2.7596  2.7188  1.1410
 3047TIP3    H230633   6.158   6.602  16.530  0.7795 -1.3472  0.1637
 3048TIP3   OH230634   3.229   4.694   2.216 -0.4110 -0.1671  0.5474
 3048TIP3    H130635   3.267   4.615   2.255  2.1821  0.4345 -0.5529
 3048TIP3    H230636   3.240   4.761   2.283  0.3932 -0.0416  0.3079
 3049TIP3   OH230637   5.148   1.133   2.766  0.1657 -0.3060  0.1403
 3049TIP3    H130638   5.149   1.224   2.796 -0.1243  0.5544 -2.2815
 3049TIP3    H230639   5.153   1.081   2.847  0.1921  1.8337  1.5849
 3050TIP3   OH230640   0.610   4.647   1.364  0.4505 -0.5564  0.0369
 3050TIP3    H130641   0.595   4.742   1.374 -1.1943 -0.5215 -2.0110
 3050TIP3    H230642   0.701   4.640   1.337 -0.0214  0.7115 -2.1339
 3051TIP3   OH230643   4.968   1.195  15.737  0.2055  0.1283  0.3235
 3051TIP3    H130644   5.012   1.246  15.669 -3.0228 -0.1770 -2.1937
 3051TIP3    H230645   4.931   1.261  15.796 -0.0837  0.5490 -0.3157
 3052TIP3   OH230646   3.004   3.982   1.688  0.5185 -0.3265 -0.2081
 3052TIP3    H130647   2.969   4.036   1.617  1.1295 -1.1392 -1.1564
 3052TIP3    H230648   3.099   3.996   1.685  0.6721 -1.2969 -0.3607
 3053TIP3   OH230649   5.543   5.267   1.888 -0.1329 -0.1365 -0.2165
 3053TIP3    H130650   5.484   5.331   1.847 -0.6396  0.3508  1.1964
 3053TIP3    H230651   5.627   5.280   1.845 -0.0910  1.8595  0.3773
 3054TIP3   OH230652   5.889   0.774  14.517  0.3044  0.1564  0.1728
 3054TIP3    H130653   5.966   0.717  14.506  1.0322  0.6495  2.1158
 3054TIP3    H230654   5.920   0.843  14.577 -1.2234  1.2628 -0.2700
 3055TIP3   OH230655   0.261   2.705   5.407  0.2169  0.4746  0.7154
 3055TIP3    H130656   0.219   2.784   5.372  0.3883 -0.9477 -3.1784
 3055TIP3    H230657   0.194   2.666   5.464 -1.1614  1.7020  0.0088
 3056TIP3   OH230658   2.742   1.410  15.947 -0.3984 -0.2185  0.3291
 3056TIP3    H130659   2.729   1.498  15.912  0.6362 -0.3223 -0.3718
 3056TIP3    H230660   2.655   1.382  15.975 -1.1591  0.1882 -1.4444
 3057TIP3   OH230661   2.460   4.657  14.153 -0.3706 -0.0979  0.4682
 3057TIP3    H130662   2.410   4.645  14.072 -1.8785 -2.3535  1.6308
 3057TIP3    H230663   2.398   4.699  14.213  0.5641  1.0757  0.6413
 3058TIP3   OH230664   3.718   1.985  10.864 -0.3241 -0.4536  0.0227
 3058TIP3    H130665   3.811   1.966  10.873 -0.1420 -0.1460 -1.1515
 3058TIP3    H230666   3.714   2.071  10.824 -1.0937 -1.0278 -1.1830
 3059TIP3   OH230667   6.700   4.946  14.439  0.0637  0.5261  0.0795
 3059TIP3    H130668   6.670   4.943  14.530 -1.4079 -0.4265 -0.4002
 3059TIP3    H230669   6.753   5.025  14.433 -0.2134  0.8518  1.6425
 3060TIP3   OH230670   2.756   5.953  13.459 -0.0683  0.0589 -0.5883
 3060TIP3    H130671   2.806   5.936  13.379  1.0179 -0.5137  0.1855
 3060TIP3    H230672   2.666   5.930  13.436  0.4402 -1.3796 -1.2585
 3061TIP3   OH230673   4.816   6.484  15.568  0.3612  0.1896  0.2867
 3061TIP3    H130674   4.728   6.518  15.551  0.9130  1.2316 -0.6164
 3061TIP3    H230675   4.830   6.500  15.661 -0.2578  0.3611  0.3549
 3062TIP3   OH230676   0.366   5.554   6.172  0.6838  0.2850  0.2201
 3062TIP3    H130677   0.350   5.532   6.081 -0.5444  0.9772  0.2349
 3062TIP3    H230678   0.333   5.478   6.221  0.0835  0.4837  0.1316
 3063TIP3   OH230679   5.238   4.833   1.582  0.2456  0.0702 -0.4992
 3063TIP3    H130680   5.327   4.798   1.584 -0.2956 -1.4193 -0.9758
 3063TIP3    H230681   5.182   4.756   1.590 -1.0047  0.9291 -0.7298
 3064TIP3   OH230682   6.068   1.796   4.894 -0.9472  0.4054  0.2077
 3064TIP3    H130683   6.004   1.751   4.950 -1.9400  1.7495  0.2204
 3064TIP3    H230684   6.066   1.887   4.924  1.0871  0.4771  0.2695
 3065TIP3   OH230685   1.213   1.521  15.260 -0.2772  0.0734  0.3099
 3065TIP3    H130686   1.143   1.516  15.325 -0.8407 -2.7741 -0.4209
 3065TIP3    H230687   1.287   1.478  15.302 -0.5885 -1.6146 -0.8128
 3066TIP3   OH230688   2.174   3.031   0.431  0.4588 -0.5023 -0.1034
 3066TIP3    H130689   2.262   3.007   0.402 -0.3604 -2.1420 -1.4033
 3066TIP3    H230690   2.115   2.975   0.380 -1.4245  1.3723 -0.1443
 3067TIP3   OH230691   6.168   2.709   0.449  0.4226  0.4715 -0.3114
 3067TIP3    H130692   6.141   2.782   0.392  2.6082  2.0943  0.5779
 3067TIP3    H230693   6.130   2.731   0.534 -0.6894 -0.5971 -0.5094
 3068TIP3   OH230694   5.398   5.304  14.153 -0.2015  0.0228  0.2335
 3068TIP3    H130695   5.459   5.375  14.133  1.2471 -1.3111 -0.2777
 3068TIP3    H230696   5.447   5.246  14.210 -1.2853 -0.6891  0.4687
 3069TIP3   OH230697   4.083   0.277   5.199  0.5362  0.0375 -0.2901
 3069TIP3    H130698   4.102   0.340   5.130  0.8292  0.3831  0.0971
 3069TIP3    H230699   3.990   0.258   5.189  0.5065  0.3234 -0.5885
 3070TIP3   OH230700   4.048   5.878   4.966 -0.2434  0.1411 -1.0042
 3070TIP3    H130701   4.044   5.940   4.894 -1.3996  0.3599 -0.7729
 3070TIP3    H230702   3.958   5.874   4.999  0.5488  1.3105  1.5003
 3071TIP3   OH230703   4.622   1.430  10.795  0.2907 -0.2984  0.2872
 3071TIP3    H130704   4.641   1.337  10.782 -0.0407 -0.3178 -0.0751
 3071TIP3    H230705   4.595   1.461  10.709 -0.0062  0.0383  0.5001
 3072TIP3   OH230706   6.604   5.137   5.593 -0.4524 -0.3071 -0.3055
 3072TIP3    H130707   6.559   5.149   5.509 -1.3668  0.9052  0.3346
 3072TIP3    H230708   6.684   5.088   5.570 -1.4046 -1.3278 -1.6621
 3073TIP3   OH230709   2.954   4.684  13.285 -0.2591 -0.1537  0.3683
 3073TIP3    H130710   2.870   4.651  13.252 -1.4868  0.6619  2.4631
 3073TIP3    H230711   2.956   4.658  13.377  2.1101 -0.6619  0.2349
 3074TIP3   OH230712   3.425   6.400  11.321  0.2348 -0.5738 -0.0460
 3074TIP3    H130713   3.490   6.469  11.305  0.2564 -0.8821 -1.3641
 3074TIP3    H230714   3.420   6.352  11.239 -1.9660 -0.3145 -0.1353
 3075TIP3   OH230715   4.201   5.803   5.611  0.7686 -0.2818 -0.0729
 3075TIP3    H130716   4.141   5.728   5.605  1.0855 -0.4678 -1.3846
 3075TIP3    H230717   4.191   5.847   5.527  1.3622  0.5562  0.2898
 3076TIP3   OH230718   5.135   5.537   1.325  0.1051 -0.0890 -0.2919
 3076TIP3    H130719   5.153   5.454   1.280  0.5833  0.1228 -0.4978
 3076TIP3    H230720   5.131   5.602   1.256  0.3072  0.1523 -0.0788
 3077TIP3   OH230721   2.124   5.426   5.744  0.6780  0.0497 -0.2548
 3077TIP3    H130722   2.063   5.499   5.730 -0.3033 -0.5873  0.5127
 3077TIP3    H230723   2.210   5.466   5.746  0.0677  1.3673  1.2846
 3078TIP3   OH230724   2.863   2.936   3.588 -0.4734  0.1499  0.0422
 3078TIP3    H130725   2.930   2.947   3.520  0.2489 -2.0429  0.3137
 3078TIP3    H230726   2.913   2.929   3.669 -1.1763  0.2822  0.4955
 3079TIP3   OH230727   2.099   3.668  17.502  0.0771  0.4529 -0.4443
 3079TIP3    H130728   2.164   3.738  17.513  0.8358  0.1018 -2.2570
 3079TIP3    H230729   2.093   3.627  17.588  2.3637  0.4467 -0.2226
 3080TIP3   OH230730   1.816   3.344  16.237 -0.0896  0.1951  0.7979
 3080TIP3    H130731   1.901   3.388  16.241  1.6580 -3.0605  2.7780
 3080TIP3    H230732   1.789   3.336  16.328 -0.9891 -1.5794  0.4004
 3081TIP3   OH230733   5.080   3.333   5.782 -0.4257 -0.4439 -0.6376
 3081TIP3    H130734   5.148   3.306   5.844 -0.5319  1.8460  0.6199
 3081TIP3    H230735   5.001   3.342   5.836 -0.1366  3.2856 -0.5918
 3082TIP3   OH230736   3.894   4.080   2.643  0.7646 -0.2039  0.2786
 3082TIP3    H130737   3.982   4.090   2.681  0.2022 -0.8388  1.8569
 3082TIP3    H230738   3.872   3.988   2.659 -0.3170  0.0357  0.2053
 3083TIP3   OH230739   1.375   4.118  12.873  0.1922 -0.3217 -0.5194
 3083TIP3    H130740   1.323   4.106  12.953 -0.6843 -1.2775 -1.2130
 3083TIP3    H230741   1.312   4.144  12.807  0.9047  0.3949 -0.9338
 3084TIP3   OH230742   0.086   5.911   1.603 -0.0778  0.1876  0.1392
 3084TIP3    H130743  -0.009   5.909   1.594 -0.0980 -1.7837  0.2499
 3084TIP3    H230744   0.102   5.920   1.697 -0.2215 -1.3851  0.3436
 3085TIP3   OH230745   2.052   6.633  11.792  0.6815 -0.1263 -0.1329
 3085TIP3    H130746   2.001   6.558  11.823  2.6468 -1.2647  0.5457
 3085TIP3    H230747   2.042   6.632  11.697 -0.0477 -0.6899 -0.0551
 3086TIP3   OH230748   5.994   4.884   5.855  0.4628  0.0266  0.2713
 3086TIP3    H130749   5.944   4.964   5.868  1.4487  0.5218  1.0668
 3086TIP3    H230750   6.049   4.876   5.932  0.1678 -1.5864  0.3552
 3087TIP3   OH230751   2.823   6.631   0.932 -0.0697 -0.1546 -0.1742
 3087TIP3    H130752   2.754   6.597   0.988  0.1119 -0.0231  0.1282
 3087TIP3    H230753   2.905   6.608   0.976  0.0962 -0.6639 -0.7311
 3088TIP3   OH230754   4.178   5.751   0.636  0.2552  0.2091 -0.0670
 3088TIP3    H130755   4.157   5.793   0.552  0.7074 -0.8270 -0.7148
 3088TIP3    H230756   4.273   5.741   0.634  0.2235 -0.1981  0.3863
 3089TIP3   OH230757   6.493   4.780   3.005  0.3154 -0.2200 -0.1018
 3089TIP3    H130758   6.501   4.833   2.926 -2.2164  2.5008  1.2870
 3089TIP3    H230759   6.412   4.731   2.993 -0.0933  0.2246  0.7905
 3090TIP3   OH230760   0.892   6.722  13.995  0.4272  0.4012 -0.1466
 3090TIP3    H130761   0.971   6.752  14.039  0.3551  0.0502  0.2268
 3090TIP3    H230762   0.834   6.694  14.066  1.1183 -2.1873 -0.4712
 3091TIP3   OH230763   5.630   0.274   3.351  0.3256 -0.0443  0.2349
 3091TIP3    H130764   5.696   0.214   3.316 -0.3846 -0.7513  0.0907
 3091TIP3    H230765   5.546   0.239   3.322 -0.1127  1.0649  0.0874
 3092TIP3   OH230766   2.697   4.441  17.305 -0.0157  0.2334  0.5927
 3092TIP3    H130767   2.773   4.487  17.267 -1.3188  0.1474 -2.4018
 3092TIP3    H230768   2.637   4.511  17.329 -0.0777  0.2305  0.4472
 3093TIP3   OH230769   0.405   0.166  10.602  0.3270  0.3131  0.6878
 3093TIP3    H130770   0.323   0.150  10.648  0.4487 -0.1603  0.7509
 3093TIP3    H230771   0.387   0.139  10.512  0.6485 -0.5781  0.8771
 3094TIP3   OH230772   5.232   3.005   3.126  0.0178  0.4549  0.3417
 3094TIP3    H130773   5.225   3.082   3.070  0.8559 -0.3162 -0.8816
 3094TIP3    H230774   5.188   3.030   3.208  0.6368  2.3575  0.1411
 3095TIP3   OH230775   2.423   0.265  16.897 -0.6490  0.2914  0.2168
 3095TIP3    H130776   2.362   0.242  16.967 -2.1099  0.7504 -0.8480
 3095TIP3    H230777   2.366   0.290  16.824  0.7241  4.3740  0.3196
 3096TIP3   OH230778   2.385   2.665  15.844  0.3201  0.5089  0.4372
 3096TIP3    H130779   2.400   2.577  15.877 -0.4857 -1.4111 -3.7569
 3096TIP3    H230780   2.292   2.680  15.856  0.4451  0.8210  1.0867
 3097TIP3   OH230781   5.605   2.964   0.094 -0.0695  0.1870  0.1331
 3097TIP3    H130782   5.690   2.989   0.057  1.2766 -0.2251  2.7425
 3097TIP3    H230783   5.593   3.022   0.168 -1.2491 -0.9007  0.8322
 3098TIP3   OH230784   1.696   1.542  12.252 -0.0909  0.5667  0.5535
 3098TIP3    H130785   1.647   1.529  12.171  0.2616 -1.4127  0.6112
 3098TIP3    H230786   1.758   1.612  12.232  0.2690 -0.1647 -1.0427
 3099TIP3   OH230787   4.085   2.195   4.565  0.2967 -0.3765 -0.5409
 3099TIP3    H130788   4.057   2.231   4.481 -0.0660  0.5826 -0.0311
 3099TIP3    H230789   4.180   2.201   4.564  0.2747 -0.0500 -0.7546
 3100TIP3   OH230790   1.328   1.291  17.523  0.3707  0.4927  0.1317
 3100TIP3    H130791   1.328   1.198  17.501  1.2812  0.2250  1.1425
 3100TIP3    H230792   1.279   1.333  17.452 -4.2706 -1.2454  1.9346
 3101TIP3   OH230793   3.576   6.476   2.857 -0.1842 -0.6489 -0.0402
 3101TIP3    H130794   3.494   6.523   2.868 -0.6535 -1.4103 -0.2276
 3101TIP3    H230795   3.601   6.490   2.766 -0.2753 -0.6811 -0.0701
 3102TIP3   OH230796   6.181   5.139   3.169  0.0062  0.6362 -0.3614
 3102TIP3    H130797   6.194   5.151   3.074  0.0721 -0.5376 -0.5182
 3102TIP3    H230798   6.086   5.132   3.180  0.0771 -2.2862 -0.7994
 3103TIP3   OH230799   3.047   3.382   0.931 -0.3249 -0.3818 -0.0407
 3103TIP3    H130800   3.110   3.311   0.919 -0.8597 -0.8918  0.1420
 3103TIP3    H230801   2.999   3.385   0.848  1.0297  1.1247 -0.8438
 3104TIP3   OH230802   4.084   0.052  10.877 -0.1607 -0.5935  0.7309
 3104TIP3    H130803   4.032   0.069  10.955 -0.9272 -1.6496  0.4679
 3104TIP3    H230804   4.039  -0.020  10.833  2.6511 -2.9844  1.5224
 3105TIP3   OH230805   1.925   0.965  13.750 -0.6289 -0.2098 -0.1132
 3105TIP3    H130806   1.984   0.992  13.821 -2.2653  2.2575  0.4410
 3105TIP3    H230807   1.866   0.903  13.791 -0.1141 -0.6125  0.0352
 3106TIP3   OH230808   4.424   2.642   4.762  0.3021  0.1246 -0.1480
 3106TIP3    H130809   4.431   2.737   4.769  1.2149  0.2231 -1.7912
 3106TIP3    H230810   4.479   2.608   4.832  1.1901  0.8374 -0.4804
 3107TIP3   OH230811   1.933   3.558  12.806 -0.0926  0.3461 -0.2686
 3107TIP3    H130812   1.909   3.643  12.769 -2.2180  0.1741  0.5186
 3107TIP3    H230813   2.006   3.528  12.752 -0.0709  2.1158 -1.3326
 3108TIP3   OH230814   4.160   3.383  12.417  0.4211  0.1136 -0.2403
 3108TIP3    H130815   4.068   3.386  12.447  0.5169 -1.8110  0.4030
 3108TIP3    H230816   4.211   3.385  12.498  0.9207  0.3458 -0.5586
 3109TIP3   OH230817   6.350   2.354  11.268  0.3164  0.0914 -0.1234
 3109TIP3    H130818   6.366   2.443  11.299  0.0933  1.2754 -3.1376
 3109TIP3    H230819   6.430   2.329  11.222  0.7926 -1.7568  1.5544
 3110TIP3   OH230820   2.081   2.051  14.161  0.5577 -0.3682 -0.3527
 3110TIP3    H130821   2.172   2.022  14.159  0.0014 -2.1755 -1.0922
 3110TIP3    H230822   2.074   2.101  14.242  2.6075  1.3257 -1.0972
 3111TIP3   OH230823   4.501   0.685  14.097 -0.0120  0.1149 -0.2065
 3111TIP3    H130824   4.517   0.591  14.106 -2.3930 -1.0063 -4.6979
 3111TIP3    H230825   4.434   0.704  14.163  0.4998 -1.3110  0.7701
 3112TIP3   OH230826   4.469   1.043  11.095 -0.1222  0.3287  0.3128
 3112TIP3    H130827   4.385   1.077  11.064  0.0498 -0.2688 -0.8430
 3112TIP3    H230828   4.453   0.950  11.111  0.1219  0.3753  0.8527
 3113TIP3   OH230829   3.820   4.652   2.655  0.2902  0.3438 -0.9571
 3113TIP3    H130830   3.745   4.712   2.658 -1.0097 -1.2640  1.2150
 3113TIP3    H230831   3.855   4.652   2.744  1.0623 -1.1422 -1.2313
 3114TIP3   OH230832   2.229   0.902   6.265 -0.6266  0.0572 -0.0820
 3114TIP3    H130833   2.134   0.912   6.257 -0.5812  0.6235  0.0752
 3114TIP3    H230834   2.253   0.955   6.341  0.1608  2.1083 -1.6652
 3115TIP3   OH230835   4.933   1.862  13.794 -0.5243 -0.3041  1.0239
 3115TIP3    H130836   4.907   1.773  13.819  0.1000 -0.2860  1.7686
 3115TIP3    H230837   4.934   1.860  13.698  2.2455 -1.9708  0.9828
 3116TIP3   OH230838   5.683   2.322   6.505 -0.1673 -0.4161 -0.2728
 3116TIP3    H130839   5.659   2.279   6.586  0.5385 -0.5469 -0.1247
 3116TIP3    H230840   5.710   2.410   6.532 -2.5394  0.5106 -0.6745
 3117TIP3   OH230841   0.988   1.856  14.339  0.1718 -0.0792  0.2862
 3117TIP3    H130842   0.992   1.805  14.258  0.8583  0.5562 -0.0886
 3117TIP3    H230843   1.073   1.839  14.382 -0.5669 -1.2314  1.3999
 3118TIP3   OH230844   4.525   2.754  10.846  0.8716 -0.2083 -0.0471
 3118TIP3    H130845   4.581   2.678  10.830  1.1374 -0.1435  0.5616
 3118TIP3    H230846   4.449   2.740  10.789  2.1821  0.4624 -2.0518
 3119TIP3   OH230847   6.349   3.041   2.502 -0.2367  0.1065 -1.1375
 3119TIP3    H130848   6.299   2.959   2.501 -0.8441  0.4373  0.0058
 3119TIP3    H230849   6.290   3.106   2.464 -1.9301  1.1039  2.6765
 3120TIP3   OH230850   5.339   6.405  16.699 -0.1805  0.3399  0.1386
 3120TIP3    H130851   5.414   6.464  16.691 -0.2299  0.6344  1.5926
 3120TIP3    H230852   5.335   6.384  16.793 -0.7161 -1.2554 -0.2065
 3121TIP3   OH230853   1.002   2.685  12.253 -0.5757 -0.2965  0.0784
 3121TIP3    H130854   1.007   2.627  12.329  0.6157 -1.3899 -0.8006
 3121TIP3    H230855   1.093   2.696  12.226 -0.6896  2.4730  0.5497
 3122TIP3   OH230856   5.764   1.545   3.939  0.6623  0.4546 -0.0474
 3122TIP3    H130857   5.688   1.592   3.905  0.3857 -0.2885 -0.4906
 3122TIP3    H230858   5.829   1.553   3.870  0.4091 -0.3011 -0.3850
 3123TIP3   OH230859   1.015   6.476  12.448 -0.5803 -0.4675 -0.8883
 3123TIP3    H130860   0.993   6.437  12.364 -0.2097 -2.7199 -0.0177
 3123TIP3    H230861   1.071   6.551  12.427 -2.4589  0.5299 -2.7175
 3124TIP3   OH230862   3.043   6.217  14.471 -0.3306  0.0790  0.3251
 3124TIP3    H130863   2.972   6.240  14.531 -0.5188 -0.7639  0.4289
 3124TIP3    H230864   3.105   6.290  14.478 -0.8938  0.5242  0.6926
 3125TIP3   OH230865   4.473   3.698   1.247  0.0727 -0.0350 -0.5280
 3125TIP3    H130866   4.555   3.656   1.223 -0.5461 -1.2705 -0.5417
 3125TIP3    H230867   4.406   3.652   1.196 -0.7869  0.0136  0.5122
 3126TIP3   OH230868   3.447   4.952  10.894  0.0246  0.3887 -0.0738
 3126TIP3    H130869   3.411   5.016  10.956  1.7740  1.9727 -0.5993
 3126TIP3    H230870   3.412   4.979  10.809 -0.2740 -0.1740 -0.1336
 3127TIP3   OH230871   5.946   2.451  13.135 -0.4766 -0.3006  0.2444
 3127TIP3    H130872   6.031   2.493  13.148 -0.6136 -0.6029  2.4434
 3127TIP3    H230873   5.916   2.483  13.049  1.9926 -0.4911 -0.7672
 3128TIP3   OH230874   3.447   1.064  16.672  0.4108  0.1161  0.1075
 3128TIP3    H130875   3.399   1.113  16.605  3.3043  3.4049  0.1294
 3128TIP3    H230876   3.386   0.997  16.702 -2.8490  1.8293 -2.1190
 3129TIP3   OH230877   0.774   0.177   3.742  1.0372 -0.2684  0.0750
 3129TIP3    H130878   0.819   0.254   3.775  3.3486 -2.0439  1.3736
 3129TIP3    H230879   0.759   0.195   3.649 -1.4785  2.9833  0.9128
 3130TIP3   OH230880   6.138   5.923  12.587  0.0761  0.5760  0.4216
 3130TIP3    H130881   6.223   5.962  12.568  0.2219 -0.4723 -1.3125
 3130TIP3    H230882   6.129   5.930  12.682  3.2067 -1.4375  0.9977
 3131TIP3   OH230883   1.492   3.688   5.600  0.2218  0.1006  0.0905
 3131TIP3    H130884   1.444   3.768   5.623 -1.5854 -1.4222  2.0876
 3131TIP3    H230885   1.463   3.668   5.511 -1.0769  0.4778  0.4004
 3132TIP3   OH230886   2.238   6.516  15.005  0.1310 -0.0105  0.2576
 3132TIP3    H130887   2.177   6.505  15.078 -1.6622  0.8555 -1.0654
 3132TIP3    H230888   2.282   6.599  15.024  0.3541 -0.2465  0.8082
 3133TIP3   OH230889   4.200   2.748   2.148  0.4597  0.3574  0.3380
 3133TIP3    H130890   4.216   2.795   2.065 -1.4843  0.9573  0.2573
 3133TIP3    H230891   4.209   2.815   2.215 -1.4290  0.7276  0.2914
 3134TIP3   OH230892   2.464   1.615   3.390  0.5423  0.4273 -0.4582
 3134TIP3    H130893   2.558   1.606   3.406  0.0527 -1.5532  1.9468
 3134TIP3    H230894   2.425   1.618   3.477 -1.7679 -0.9679 -1.3496
 3135TIP3   OH230895   6.669   6.678  16.340  0.2844  0.4018  0.6077
 3135TIP3    H130896   6.632   6.629  16.413 -0.5989  0.7545  0.4101
 3135TIP3    H230897   6.596   6.690  16.280  1.2720 -1.0147 -0.9692
 3136TIP3   OH230898   0.887   5.142  15.373  0.0929 -0.0562 -0.4202
 3136TIP3    H130899   0.899   5.049  15.392 -0.3587  0.1031  0.7506
 3136TIP3    H230900   0.973   5.181  15.390  0.3024 -0.2660 -0.9843
 3137TIP3   OH230901   3.509   5.263   1.681  0.0946  0.2552 -0.5338
 3137TIP3    H130902   3.472   5.291   1.764 -1.3210  0.3983 -1.1819
 3137TIP3    H230903   3.436   5.268   1.619 -0.1342 -3.9204 -0.9288
 3138TIP3   OH230904   1.595   3.996   2.788  0.2140  0.1699 -0.2549
 3138TIP3    H130905   1.508   3.992   2.829 -0.4326  0.3729 -1.5658
 3138TIP3    H230906   1.644   4.058   2.842 -0.0589 -0.7960  1.1823
 3139TIP3   OH230907   4.340   1.414  16.308 -0.0757  0.3179 -0.2472
 3139TIP3    H130908   4.321   1.508  16.313 -1.7083  0.0055 -0.2830
 3139TIP3    H230909   4.361   1.389  16.398 -2.1377  0.2395  0.2504
 3140TIP3   OH230910   5.732   0.596   0.004 -0.5254 -0.5862  0.0602
 3140TIP3    H130911   5.790   0.666  -0.026 -1.4955 -0.1512 -0.8724
 3140TIP3    H230912   5.646   0.621  -0.027 -1.0771 -1.6784  0.6330
 3141TIP3   OH230913   5.428   1.084   4.485 -0.4378  0.3216  0.0946
 3141TIP3    H130914   5.341   1.067   4.521 -0.5603  0.7074 -0.0103
 3141TIP3    H230915   5.428   1.178   4.467  0.3075  0.4892  0.9144
 3142TIP3   OH230916   3.127   0.869   5.762  0.6387 -0.6108 -0.4807
 3142TIP3    H130917   3.115   0.910   5.676  1.0365  0.7650  0.0926
 3142TIP3    H230918   3.221   0.850   5.766  0.7645  0.0827 -0.0360
 3143TIP3   OH230919   5.359   2.391   1.718 -0.2553 -0.1161 -0.3341
 3143TIP3    H130920   5.305   2.354   1.649  1.8817 -1.3879 -1.4343
 3143TIP3    H230921   5.357   2.486   1.702  0.8686 -0.4243 -2.7518
 3144TIP3   OH230922   1.007   1.532   5.395  0.4099 -0.0645  0.3796
 3144TIP3    H130923   0.967   1.500   5.314  1.9691 -0.7385 -0.1582
 3144TIP3    H230924   1.099   1.507   5.388  0.3818 -1.1560  2.8819
 3145TIP3   OH230925   6.680   4.178  10.698  0.0805  0.2189 -0.4662
 3145TIP3    H130926   6.643   4.265  10.716 -1.4125 -0.5146  0.2286
 3145TIP3    H230927   6.710   4.183  10.607  1.4171  1.9027  0.0301
 3146TIP3   OH230928   2.475   6.033  12.977 -0.1389  0.1154  0.0702
 3146TIP3    H130929   2.533   6.062  13.048  0.2405  0.6942 -0.4739
 3146TIP3    H230930   2.530   6.032  12.899 -1.3637  3.0489 -0.9743
 3147TIP3   OH230931   1.625   6.335   2.257 -0.5694 -0.0039 -0.4660
 3147TIP3    H130932   1.694   6.269   2.262 -0.1655  0.2036 -2.4464
 3147TIP3    H230933   1.565   6.313   2.328  1.2075 -0.5426  0.9296
 3148TIP3   OH230934   4.112   5.471   1.735  0.0892 -0.5259  0.0624
 3148TIP3    H130935   4.145   5.556   1.707 -0.5842  0.3599  1.7977
 3148TIP3    H230936   4.190   5.416   1.743  0.9067  0.7755  1.6214
 3149TIP3   OH230937   2.287   0.593  17.629 -0.1787  0.4483 -0.1164
 3149TIP3    H130938   2.204   0.641  17.636 -0.0610  0.7002 -0.4255
 3149TIP3    H230939   2.280   0.545  17.546  1.0112  2.4755 -1.4765
 3150TIP3   OH230940   5.073   0.949  14.176 -0.0600  0.5622 -0.7092
 3150TIP3    H130941   5.019   1.001  14.117  2.5001  0.7860 -3.0613
 3150TIP3    H230942   5.089   1.008  14.251 -0.3104  1.7437 -1.5544
 3151TIP3   OH230943   1.136   5.910  17.363 -0.8966  0.3217  0.3571
 3151TIP3    H130944   1.110   5.997  17.393  3.4400  2.4539 -1.2414
 3151TIP3    H230945   1.194   5.878  17.432  1.2449  0.8900 -1.0936
 3152TIP3   OH230946   5.084   6.135  13.032  0.1298  0.1424  0.3902
 3152TIP3    H130947   5.036   6.053  13.023  0.9902 -0.2806 -0.5016
 3152TIP3    H230948   5.017   6.200  13.053 -0.6456 -0.6758  0.4705
 3153TIP3   OH230949   6.443   4.012   2.233 -0.2370  0.2071  0.5248
 3153TIP3    H130950   6.410   4.051   2.152 -0.7676  0.2484  0.7618
 3153TIP3    H230951   6.500   4.080   2.270  2.1964 -0.7575 -1.1316
 3154TIP3   OH230952   2.560   3.234   5.820  0.1502  0.4687  0.7579
 3154TIP3    H130953   2.644   3.273   5.846 -0.4871  0.7162  2.5830
 3154TIP3    H230954   2.496   3.274   5.879 -1.1870 -0.0856 -0.2813
 3155TIP3   OH230955   2.221   0.491  16.030  0.1615 -0.3853  0.3055
 3155TIP3    H130956   2.169   0.546  16.089 -2.0659 -0.1580 -1.6901
 3155TIP3    H230957   2.265   0.428  16.087 -2.2144 -0.4743  2.1896
 3156TIP3   OH230958   1.862   0.520  15.637  0.0224  0.1742 -0.6421
 3156TIP3    H130959   1.835   0.584  15.702 -0.9995  0.8083 -1.6568
 3156TIP3    H230960   1.856   0.566  15.554 -0.4884 -1.1523 -1.3751
 3157TIP3   OH230961   5.697   2.076  15.253 -0.0750 -0.2844 -0.2393
 3157TIP3    H130962   5.711   2.167  15.279 -0.0559  0.4701 -2.6467
 3157TIP3    H230963   5.724   2.073  15.161  4.1519 -3.7799  0.8051
 3158TIP3   OH230964   3.004   1.820   0.570 -0.1759 -0.1289 -0.4552
 3158TIP3    H130965   2.934   1.787   0.512 -0.4607 -0.2685 -0.0368
 3158TIP3    H230966   2.984   1.913   0.580 -1.5075 -0.5610  1.3053
 3159TIP3   OH230967   3.524   0.302   5.855  0.2943  0.1857  0.0335
 3159TIP3    H130968   3.497   0.318   5.945 -0.2313  1.1686 -0.2744
 3159TIP3    H230969   3.458   0.241   5.821  0.5644 -0.2812  0.3514
 3160TIP3   OH230970   5.698   5.598  15.696 -0.5428  0.2307 -0.0134
 3160TIP3    H130971   5.768   5.550  15.653  0.7483  0.8381  1.3161
 3160TIP3    H230972   5.619   5.546  15.680  0.0191  0.0276 -2.3538
 3161TIP3   OH230973   5.143   3.405  13.672  0.2211 -0.0391  0.4723
 3161TIP3    H130974   5.130   3.435  13.762  2.4358 -1.5834  1.4041
 3161TIP3    H230975   5.059   3.368  13.646 -1.2085  2.6512  0.9165
 3162TIP3   OH230976   0.837   0.388   4.815  0.4315  0.3735 -0.2847
 3162TIP3    H130977   0.759   0.363   4.765 -2.9624  3.0930  3.0150
 3162TIP3    H230978   0.845   0.319   4.881 -0.7771  1.2656  0.8365
 3163TIP3   OH230979   4.959   1.729  12.695 -0.6777 -0.5267 -0.0153
 3163TIP3    H130980   4.890   1.751  12.632 -0.3937 -1.1512 -0.5634
 3163TIP3    H230981   5.014   1.807  12.700  0.3476 -1.0708 -1.9480
 3164TIP3   OH230982   4.279   0.216  16.671 -0.0599  0.3164 -0.0676
 3164TIP3    H130983   4.351   0.261  16.627  0.1553  1.6798  1.5504
 3164TIP3    H230984   4.282   0.126  16.639  1.8605  0.5482 -0.6150
 3165TIP3   OH230985   2.652   6.503  17.460  0.0649 -0.6672 -0.0543
 3165TIP3    H130986   2.716   6.570  17.483  0.3649 -1.6746  2.3920
 3165TIP3    H230987   2.580   6.551  17.419  0.3900  1.1039  1.3476
 3166TIP3   OH230988   1.933   4.018   3.180  0.1480 -0.2675  0.8333
 3166TIP3    H130989   1.978   3.947   3.226 -0.5608 -0.8751  0.6014
 3166TIP3    H230990   1.861   3.975   3.133 -0.4869  0.6456  0.9473
 3167TIP3   OH230991   1.545   1.129  15.188 -0.5954 -0.0303 -0.2923
 3167TIP3    H130992   1.565   1.064  15.121 -1.0694  0.0613 -0.5245
 3167TIP3    H230993   1.612   1.197  15.178 -1.4067  0.6178 -1.5089
 3168TIP3   OH230994   2.208   3.542   4.007 -0.6575 -0.0888  0.1054
 3168TIP3    H130995   2.250   3.474   4.060 -0.9724 -0.1953  0.2195
 3168TIP3    H230996   2.265   3.552   3.931 -1.5589 -1.8051 -0.8523
 3169TIP3   OH230997   1.434   4.806   5.120  0.2334  0.1779  0.3157
 3169TIP3    H130998   1.449   4.880   5.178  3.3123  1.8714 -2.2871
 3169TIP3    H230999   1.341   4.811   5.097  0.1226  2.5888  1.0453
 3170TIP3   OH231000   1.660   1.496  15.550  0.4977  0.3684  0.4853
 3170TIP3    H131001   1.726   1.500  15.481 -0.3356  0.0119 -0.3538
 3170TIP3    H231002   1.707   1.465  15.627  1.4795  0.9356  0.1303
 3171TIP3   OH231003   1.354   3.691   2.986  0.9232  0.0593 -0.2224
 3171TIP3    H131004   1.323   3.617   2.935 -0.8886  0.9350 -0.4536
 3171TIP3    H231005   1.321   3.675   3.074  0.2897  0.6960 -0.3326
 3172TIP3   OH231006   0.193   3.088  14.534  0.7689 -0.2461 -0.3643
 3172TIP3    H131007   0.166   3.040  14.613 -2.0242  0.8222 -0.5462
 3172TIP3    H231008   0.200   3.020  14.466  0.9633 -0.8880  0.2824
 3173TIP3   OH231009   5.655   4.817  10.563  0.2647 -0.3573  0.7121
 3173TIP3    H131010   5.586   4.780  10.508  0.2325 -0.1122  0.5877
 3173TIP3    H231011   5.660   4.758  10.638 -0.4085 -0.1042  0.9634
 3174TIP3   OH231012   1.474   5.032   1.791  0.3205 -0.2752 -1.0869
 3174TIP3    H131013   1.489   4.947   1.749  2.8675  0.3365 -1.6207
 3174TIP3    H231014   1.493   5.095   1.722  2.3220  0.7321  0.2829
 3175TIP3   OH231015   5.382   5.420  14.745  0.3485 -0.0050 -0.1788
 3175TIP3    H131016   5.297   5.393  14.711 -0.1977  1.1654  0.2093
 3175TIP3    H231017   5.370   5.511  14.771  1.5661  0.0110  0.4155
 3176TIP3   OH231018   3.616   4.744  13.021  0.8101 -0.1337 -0.0123
 3176TIP3    H131019   3.556   4.700  12.960  0.2838 -0.8999  1.0100
 3176TIP3    H231020   3.565   4.818  13.054 -0.4705 -1.9001  2.3787
 3177TIP3   OH231021   1.548   3.164  11.528  0.6652  0.2359 -0.3936
 3177TIP3    H131022   1.489   3.104  11.573  1.4068 -1.7406 -1.9199
 3177TIP3    H231023   1.496   3.244  11.515 -0.2310  0.1034  1.9817
 3178TIP3   OH231024   2.084   4.000   3.741 -0.3084  0.1665  0.3381
 3178TIP3    H131025   2.118   4.084   3.773  2.6637 -1.0182  0.6280
 3178TIP3    H231026   2.100   4.001   3.647 -0.2926 -0.0781  0.3367
 3179TIP3   OH231027   0.976   0.881  12.244 -0.4206  0.1505 -0.2351
 3179TIP3    H131028   0.882   0.874  12.259  0.0078 -3.1296  1.9293
 3179TIP3    H231029   1.007   0.941  12.312 -0.8242  0.7855 -0.5956
 3180TIP3   OH231030   0.746   1.626   4.780 -0.7468  0.2049  0.0979
 3180TIP3    H131031   0.788   1.578   4.851 -0.8224  0.6459  0.4467
 3180TIP3    H231032   0.805   1.615   4.706  0.7273  1.9700  0.9427
 3181TIP3   OH231033   5.527   4.494   4.423  0.0054 -0.5496 -0.2460
 3181TIP3    H131034   5.590   4.458   4.485 -1.2695  0.0843  1.5033
 3181TIP3    H231035   5.577   4.558   4.372  0.5145  0.9786  2.0449
 3182TIP3   OH231036   2.231   4.909  11.057 -0.3573 -0.1158  0.5234
 3182TIP3    H131037   2.321   4.931  11.030 -1.1057  1.8697 -0.6077
 3182TIP3    H231038   2.234   4.816  11.076  1.5033 -0.5523 -1.4437
 3183TIP3   OH231039   0.040   1.856  15.298 -0.2708 -0.1979  0.0488
 3183TIP3    H131040   0.013   1.943  15.269  0.8189 -0.2180 -1.1427
 3183TIP3    H231041  -0.004   1.796  15.237  2.2909 -0.2268 -1.9777
 3184TIP3   OH231042   3.696   5.304  15.484 -0.4001 -0.2640  0.3665
 3184TIP3    H131043   3.607   5.302  15.448 -0.7829  2.0676  1.0632
 3184TIP3    H231044   3.684   5.288  15.578 -0.4769  2.7639  0.9651
 3185TIP3   OH231045   6.558   1.843  12.626 -0.0134  0.0820 -0.6244
 3185TIP3    H131046   6.628   1.834  12.690 -1.3221  0.3976  0.9355
 3185TIP3    H231047   6.545   1.755  12.591 -1.1283 -0.7171  1.6547
 3186TIP3   OH231048   1.274   3.317  14.079  0.2506 -0.1534  0.8352
 3186TIP3    H131049   1.366   3.323  14.107 -0.3439  0.0618  2.8634
 3186TIP3    H231050   1.244   3.408  14.077  0.1684 -0.1897 -0.2359
 3187TIP3   OH231051   4.755   4.326   2.695 -0.2759  0.4922  0.7984
 3187TIP3    H131052   4.768   4.305   2.788 -0.6584  1.2025  1.0150
 3187TIP3    H231053   4.712   4.248   2.659  1.2794 -0.4392  0.8516
 3188TIP3   OH231054   2.168   3.396   0.562  0.2194 -0.2139 -0.0512
 3188TIP3    H131055   2.220   3.318   0.583 -1.0484 -0.7880  1.1630
 3188TIP3    H231056   2.230   3.468   0.563  1.0534 -0.9026  1.1683
 3189TIP3   OH231057   1.205   0.568   6.334 -0.2065  0.0556  0.5750
 3189TIP3    H131058   1.254   0.582   6.253  0.0981  2.4598  1.0956
 3189TIP3    H231059   1.134   0.632   6.330 -1.3693 -1.1464  1.3384
 3190TIP3   OH231060   5.174   6.421   5.774 -0.2761  0.6925 -0.7522
 3190TIP3    H131061   5.194   6.455   5.862  0.1228 -1.4559  0.0504
 3190TIP3    H231062   5.112   6.484   5.738 -2.5602  0.3251  2.1087
 3191TIP3   OH231063   5.691   5.519   6.182  0.0058 -0.1329 -0.0715
 3191TIP3    H131064   5.728   5.455   6.244 -0.3319  0.2024  0.4782
 3191TIP3    H231065   5.664   5.466   6.107  1.5992 -0.3900 -0.4968
 3192TIP3   OH231066   1.298   1.114  16.763 -0.0088  0.5086 -0.0102
 3192TIP3    H131067   1.234   1.045  16.750  0.2152 -0.2242  2.3848
 3192TIP3    H231068   1.254   1.179  16.817  0.7584  0.7416  0.3592
 3193TIP3   OH231069   0.121   0.101   0.158  0.3023 -0.0984  0.2584
 3193TIP3    H131070   0.091   0.039   0.223 -1.4540 -0.4410 -0.8250
 3193TIP3    H231071   0.211   0.122   0.185  1.1189 -3.3327  0.4898
 3194TIP3   OH231072   5.632   2.012  14.490 -0.4301  0.3903  1.1199
 3194TIP3    H131073   5.543   2.016  14.455 -0.3169  1.8899  0.9429
 3194TIP3    H231074   5.677   1.951  14.431 -0.0146  3.4081 -2.0502
 3195TIP3   OH231075   3.113   1.228   0.024  0.2566  0.1987 -0.1799
 3195TIP3    H131076   3.086   1.237  -0.067  1.7439  0.8164 -0.5916
 3195TIP3    H231077   3.032   1.209   0.071 -0.4440 -0.9198 -1.7186
 3196TIP3   OH231078   0.793   1.198   4.804  0.2254  0.0420 -0.2002
 3196TIP3    H131079   0.720   1.255   4.826 -0.3093 -0.6655 -0.1363
 3196TIP3    H231080   0.754   1.113   4.785  0.7323  0.2930 -2.8136
 3197TIP3   OH231081   1.593   4.198  14.744 -0.1885  0.4538  0.7725
 3197TIP3    H131082   1.579   4.123  14.802 -2.3280  0.3887  0.2726
 3197TIP3    H231083   1.516   4.253  14.759 -0.6000  0.6455 -1.6816
 3198TIP3   OH231084   2.962   3.435  13.498 -0.7873 -0.0762  0.5265
 3198TIP3    H131085   3.012   3.393  13.569  0.2634 -2.0590 -1.2839
 3198TIP3    H231086   2.874   3.445  13.534  0.0126  0.2698  2.5820
 3199TIP3   OH231087   6.377   2.680   4.078  1.0487  0.6988  0.4239
 3199TIP3    H131088   6.349   2.633   4.157  1.9960 -0.5537  0.0509
 3199TIP3    H231089   6.426   2.615   4.027 -0.8751  0.9524 -1.9846
 3200TIP3   OH231090   4.260   5.457  11.844 -0.2919 -0.4156  0.2758
 3200TIP3    H131091   4.285   5.431  11.933  0.6138  0.7963  0.4070
 3200TIP3    H231092   4.271   5.378  11.792  0.3151 -0.8446  1.0283
 3201TIP3   OH231093   1.615   6.196   3.765  0.1474  0.0495  0.8320
 3201TIP3    H131094   1.525   6.209   3.734  1.2192  1.6400 -2.0081
 3201TIP3    H231095   1.632   6.103   3.750  0.1652  0.4547 -2.5591
 3202TIP3   OH231096   2.664   5.150   2.490 -0.0913 -0.3149  0.0078
 3202TIP3    H131097   2.581   5.130   2.534 -0.9952 -0.1272 -1.5462
 3202TIP3    H231098   2.717   5.071   2.501 -0.4810 -0.4600  0.9579
 3203TIP3   OH231099   0.871   5.394   4.267 -0.1731  0.2991  0.0689
 3203TIP3    H131100   0.933   5.467   4.263  1.0557 -0.4445  2.9629
 3203TIP3    H231101   0.795   5.429   4.313 -1.9473  1.0819 -3.0939
 3204TIP3   OH231102   2.270   1.098   6.462  0.0568  0.9165 -0.1621
 3204TIP3    H131103   2.250   1.080   6.554 -0.9120  1.6479 -0.2206
 3204TIP3    H231104   2.286   1.192   6.459  1.6988  0.6593 -0.4663
 3205TIP3   OH231105   5.877   5.636  15.193  0.0819 -0.0747  0.2147
 3205TIP3    H131106   5.914   5.605  15.276  1.5635  1.4124  0.1713
 3205TIP3    H231107   5.951   5.634  15.133 -0.9443 -0.9949 -1.0685
 3206TIP3   OH231108   3.701   3.561   4.318  0.0541 -0.3648 -0.3807
 3206TIP3    H131109   3.697   3.467   4.335 -1.2362 -0.6383 -2.0519
 3206TIP3    H231110   3.634   3.598   4.375  0.2437 -0.4914 -0.0682
 3207TIP3   OH231111   4.175   6.640   0.626 -0.1046 -0.4765 -0.2059
 3207TIP3    H131112   4.241   6.707   0.642  0.5134 -0.7816 -1.3551
 3207TIP3    H231113   4.202   6.566   0.681  0.8200 -0.7802 -1.0372
 3208TIP3   OH231114   4.143   0.758   2.944  0.1714 -0.0891  0.2817
 3208TIP3    H131115   4.141   0.821   2.872 -0.9681 -0.3082  0.0988
 3208TIP3    H231116   4.051   0.742   2.964  0.4253  1.0035  2.7214
 3209TIP3   OH231117   1.011   6.182   2.656  0.5456 -0.2282 -0.0923
 3209TIP3    H131118   1.082   6.159   2.595  0.2190 -1.2753 -0.0817
 3209TIP3    H231119   1.050   6.249   2.712  1.2866 -0.2331 -0.5814
 3210TIP3   OH231120   4.941   2.879  17.640 -0.5464  0.1733  0.4558
 3210TIP3    H131121   4.988   2.875  17.556 -1.3774  0.0335 -0.0207
 3210TIP3    H231122   5.009   2.886  17.706  0.1766 -0.7531 -0.1662
 3211TIP3   OH231123   5.903   6.678  14.245  0.5479 -0.0049  0.2147
 3211TIP3    H131124   5.979   6.725  14.279  0.1203  0.5275  0.4453
 3211TIP3    H231125   5.924   6.662  14.153  0.1634  1.8057 -0.2282
 3212TIP3   OH231126   4.891   0.961   5.616 -0.6398  0.1010 -0.1919
 3212TIP3    H131127   4.858   0.961   5.527  0.4318 -1.4169 -0.6364
 3212TIP3    H231128   4.940   1.043   5.624 -3.1068  1.6335 -0.0055
 3213TIP3   OH231129   3.941   3.423  15.934  0.6907  0.5292 -0.2267
 3213TIP3    H131130   3.993   3.416  16.014  1.8174 -2.2041 -1.0946
 3213TIP3    H231131   3.850   3.426  15.965  0.9679 -2.5902  1.1988
 3214TIP3   OH231132   3.825   2.021   6.451 -0.2805 -0.5924  0.0484
 3214TIP3    H131133   3.904   1.970   6.471 -0.2412 -0.0078  1.5886
 3214TIP3    H231134   3.853   2.112   6.461 -0.9289 -0.3489 -0.3213
 3215TIP3   OH231135   2.073   0.556   4.734  0.6252 -0.6746  0.5089
 3215TIP3    H131136   2.152   0.549   4.681  2.2588  1.1467  2.4777
 3215TIP3    H231137   2.096   0.516   4.818 -1.0389 -1.3146  0.7054
 3216TIP3   OH231138   2.197   2.856   6.312 -0.2811  0.4159  0.4670
 3216TIP3    H131139   2.110   2.882   6.283 -0.1310 -0.6618 -1.0188
 3216TIP3    H231140   2.247   2.938   6.314 -1.5224  1.1997  2.2371
 3217TIP3   OH231141   1.189   4.501   5.365 -0.2711  0.1425 -0.8288
 3217TIP3    H131142   1.153   4.413   5.350 -0.3798  0.4542 -2.5262
 3217TIP3    H231143   1.283   4.487   5.374 -0.0787  0.0018 -2.7399
 3218TIP3   OH231144   1.490   0.632  12.888  0.1940 -0.3143  0.1405
 3218TIP3    H131145   1.531   0.568  12.946  0.6639 -0.8206 -0.7257
 3218TIP3    H231146   1.554   0.703  12.883  0.8626 -0.9756 -0.9837
 3219TIP3   OH231147   1.968   5.852  12.342  0.6864  0.6185  0.2737
 3219TIP3    H131148   2.014   5.818  12.419 -1.8460 -2.1759  0.7694
 3219TIP3    H231149   2.031   5.847  12.271  1.6233 -1.7492  1.1744
 3220TIP3   OH231150   0.260   6.478  16.845 -0.0759 -0.0133  0.2419
 3220TIP3    H131151   0.338   6.471  16.900 -0.9673 -0.2031  1.5200
 3220TIP3    H231152   0.213   6.554  16.880 -0.2563  0.3783 -0.8173
 3221TIP3   OH231153   0.782   2.844  11.368  0.6770 -0.1564 -0.2224
 3221TIP3    H131154   0.788   2.749  11.359  3.0285  0.0419 -1.8799
 3221TIP3    H231155   0.821   2.878  11.287 -0.2969  2.2347  0.2266
 3222TIP3   OH231156   4.211   3.182   1.805  0.4956 -0.4368 -0.3369
 3222TIP3    H131157   4.200   3.235   1.726 -2.3590 -1.7287 -0.9111
 3222TIP3    H231158   4.227   3.246   1.874  1.2066  0.8478 -1.6172
 3223TIP3   OH231159   1.434   4.554   4.349 -0.3301 -0.0989 -0.1345
 3223TIP3    H131160   1.367   4.487   4.336  0.7905 -1.2154 -0.4146
 3223TIP3    H231161   1.512   4.504   4.376  0.8430  0.9544 -1.4014
 3224TIP3   OH231162   3.025   3.606  16.539 -0.3592  0.0475  0.1283
 3224TIP3    H131163   3.076   3.604  16.459  0.2006  0.2950  0.4781
 3224TIP3    H231164   2.935   3.623  16.510 -0.6954 -2.6600 -0.7033
 3225TIP3   OH231165   5.373   1.112  13.969 -0.0235  0.4957 -0.1746
 3225TIP3    H131166   5.305   1.115  13.902 -1.1838  0.9661  0.9882
 3225TIP3    H231167   5.357   1.030  14.016 -0.3309  1.0124  0.6391
 3226TIP3   OH231168   2.223   1.262  12.109 -0.0565  0.9698 -0.0350
 3226TIP3    H131169   2.244   1.351  12.082 -0.8355  1.3252  0.4712
 3226TIP3    H231170   2.133   1.268  12.142 -0.1620 -0.0296 -0.1141
 3227TIP3   OH231171   4.860   3.936  12.506  0.4932 -0.1465 -0.0317
 3227TIP3    H131172   4.827   3.923  12.595  0.9120  1.5890  0.4145
 3227TIP3    H231173   4.782   3.944  12.452  0.1734  0.9055  0.5421
 3228TIP3   OH231174   0.379   2.863  16.120 -0.1109 -0.1676 -0.9202
 3228TIP3    H131175   0.437   2.907  16.058  0.3524 -0.3707 -0.6364
 3228TIP3    H231176   0.304   2.835  16.067 -0.1232  0.4216 -1.2131
 3229TIP3   OH231177   1.225   3.065   1.061 -0.5321  0.0861 -0.1082
 3229TIP3    H131178   1.271   3.020   1.132 -0.1036  2.8180  1.4952
 3229TIP3    H231179   1.266   3.032   0.981  0.2042 -1.7883  0.9668
 3230TIP3   OH231180   3.765   4.337  14.334 -0.4822  0.6587 -0.3099
 3230TIP3    H131181   3.843   4.335  14.389 -1.3816  1.7953  1.0632
 3230TIP3    H231182   3.714   4.412  14.366 -1.8272  0.3567 -1.6073
 3231TIP3   OH231183   5.758   3.223   5.166  0.1214 -0.5046  0.0221
 3231TIP3    H131184   5.829   3.174   5.207  1.3923  1.3481  0.1874
 3231TIP3    H231185   5.678   3.177   5.191  1.2315 -2.5666 -0.0446
 3232TIP3   OH231186   1.209   5.984   6.950 -0.9808 -0.4221 -0.2777
 3232TIP3    H131187   1.277   6.018   7.009 -2.1058  1.5181 -0.0130
 3232TIP3    H231188   1.177   5.905   6.993  1.2218 -1.5368 -0.5350
 3233TIP3   OH231189   4.708   3.287   4.513  0.1823  0.1995 -0.0789
 3233TIP3    H131190   4.728   3.210   4.459  2.5770 -0.4608  1.5834
 3233TIP3    H231191   4.682   3.251   4.598 -0.3884  1.2263  0.1957
 3234TIP3   OH231192   4.578   3.313  13.935 -0.2153  0.0622 -0.0322
 3234TIP3    H131193   4.664   3.322  13.894 -0.3410  0.6433 -0.1860
 3234TIP3    H231194   4.593   3.327  14.028 -0.2856  1.2052 -0.1761
 3235TIP3   OH231195   1.784   4.169  17.208  0.0595 -0.4132 -0.1218
 3235TIP3    H131196   1.852   4.182  17.274  1.0594 -1.0628 -0.9801
 3235TIP3    H231197   1.799   4.080  17.175 -1.1076 -0.5036 -0.4474
 3236TIP3   OH231198   3.600   1.136  15.610  0.0492  0.0076 -0.0219
 3236TIP3    H131199   3.575   1.188  15.687 -0.4308 -0.2229 -0.0167
 3236TIP3    H231200   3.549   1.175  15.539  0.1409 -0.0793 -0.1345
 3237TIP3   OH231201   3.561   0.466  14.669 -0.2823 -0.5794 -0.5664
 3237TIP3    H131202   3.483   0.412  14.659 -0.5481 -0.1147 -1.0209
 3237TIP3    H231203   3.530   0.556  14.661  0.0705 -0.3176  0.6875
 3238TIP3   OH231204   0.140   2.097   0.730  0.6240  0.1928 -0.0949
 3238TIP3    H131205   0.101   2.107   0.642  1.0937 -1.3403 -0.4993
 3238TIP3    H231206   0.228   2.134   0.721  0.0416  1.7453  0.2605
 3239TIP3   OH231207   2.485   4.986   2.613  0.0214  0.0356 -0.0598
 3239TIP3    H131208   2.517   4.972   2.702 -1.3862 -0.6448  0.3755
 3239TIP3    H231209   2.422   4.915   2.599 -2.1740  1.9071 -0.3910
 3240TIP3   OH231210   2.346   4.036  13.744 -0.2551  0.4863 -0.2601
 3240TIP3    H131211   2.363   4.052  13.837  1.5767  1.2494 -0.6950
 3240TIP3    H231212   2.427   3.998  13.711 -1.6211 -1.9213 -1.1194
 3241TIP3   OH231213   1.936   0.886  14.264  0.3238 -0.0460  0.7205
 3241TIP3    H131214   1.914   0.802  14.304 -1.0572  0.1813  0.4653
 3241TIP3    H231215   1.981   0.862  14.183  3.9054 -0.5246  2.6267
 3242TIP3   OH231216   0.743   4.560  14.240  0.7332 -0.6912 -0.9133
 3242TIP3    H131217   0.696   4.643  14.232  0.0734 -1.0747 -1.0953
 3242TIP3    H231218   0.678   4.494  14.218  1.8465 -1.1507 -3.1216
 3243TIP3   OH231219   3.289   1.385  14.637  0.7555 -0.4840 -0.3865
 3243TIP3    H131220   3.221   1.392  14.570  0.0785  0.3182  0.3512
 3243TIP3    H231221   3.344   1.313  14.608 -0.3637 -1.0978 -1.0566
 3244TIP3   OH231222   1.281   0.500  15.823 -0.7166 -0.3176 -0.5569
 3244TIP3    H131223   1.317   0.588  15.829 -1.7392  0.1098 -0.4139
 3244TIP3    H231224   1.324   0.451  15.894 -0.1181  0.0483 -0.6610
 3245TIP3   OH231225   4.439   5.946  15.144 -0.2436  0.1948 -0.6611
 3245TIP3    H131226   4.349   5.971  15.162 -0.6646 -0.9147 -1.1804
 3245TIP3    H231227   4.457   5.874  15.204  1.2368  2.1288  1.4134
 3246TIP3   OH231228   4.789   2.529  17.388 -0.6093  0.0604 -0.3670
 3246TIP3    H131229   4.813   2.498  17.476  0.4000  0.3739 -0.5122
 3246TIP3    H231230   4.839   2.473  17.329  0.2971  1.1292 -0.6646
 3247TIP3   OH231231   4.355   1.435   3.188  0.4431  0.2149 -0.0949
 3247TIP3    H131232   4.445   1.439   3.222  0.6957  1.8727 -0.9013
 3247TIP3    H231233   4.311   1.510   3.228 -0.5389 -0.4600  0.1162
 3248TIP3   OH231234   2.039   3.429   5.398 -0.3632  0.1680 -0.3602
 3248TIP3    H131235   2.088   3.411   5.479 -0.6681 -2.5174 -0.6849
 3248TIP3    H231236   2.106   3.431   5.330 -0.1410  2.1269 -0.1250
 3249TIP3   OH231237   3.227   1.344  17.250 -0.5292 -0.3070 -0.0207
 3249TIP3    H131238   3.177   1.306  17.322 -1.9109  1.7607  0.1733
 3249TIP3    H231239   3.162   1.389  17.196  0.5844 -1.1182 -2.1462
 3250TIP3   OH231240   5.464   4.034  17.290  0.7820 -0.1592  0.3008
 3250TIP3    H131241   5.369   4.044  17.278  0.4189 -1.2822  1.8840
 3250TIP3    H231242   5.489   3.968  17.226  1.2973  2.7469 -2.8295
 3251TIP3   OH231243   0.155   1.828   4.198 -0.2916 -0.3818  0.2224
 3251TIP3    H131244   0.225   1.768   4.223 -1.2394 -1.1225  1.2131
 3251TIP3    H231245   0.086   1.771   4.163 -1.4347  0.0056  1.6884
 3252TIP3   OH231246   4.182   6.550   1.616  0.0739  0.2144 -0.2140
 3252TIP3    H131247   4.132   6.533   1.536 -0.6663 -0.0880  0.2968
 3252TIP3    H231248   4.127   6.612   1.664  0.3652  0.1555  0.1935
 3253TIP3   OH231249   2.001   4.486  14.971  0.0175 -0.1810 -0.2094
 3253TIP3    H131250   2.086   4.485  15.014 -0.1704 -0.1120  0.1697
 3253TIP3    H231251   1.939   4.459  15.039 -0.2726 -0.1534 -0.4578
 3254TIP3   OH231252   5.805   4.810   3.750 -0.2497 -0.1371 -0.3566
 3254TIP3    H131253   5.811   4.722   3.714  0.4598 -0.0051 -0.5788
 3254TIP3    H231254   5.778   4.797   3.841 -1.2609 -0.5135 -0.7006
 3255TIP3   OH231255   0.769   5.532   4.811  0.5713 -0.3164  0.2636
 3255TIP3    H131256   0.837   5.470   4.836  1.2457 -0.0093 -0.7570
 3255TIP3    H231257   0.810   5.587   4.744 -0.2052  0.8376  0.7046
 3256TIP3   OH231258   3.644   1.578  12.566 -0.2474  0.4596 -0.2565
 3256TIP3    H131259   3.577   1.533  12.617  0.0111  1.9901  1.5521
 3256TIP3    H231260   3.714   1.514  12.556 -0.9851 -0.3934 -0.1039
 3257TIP3   OH231261   0.457   0.079   2.978 -0.0513 -0.3155  0.1073
 3257TIP3    H131262   0.428   0.091   3.068 -0.5417 -1.1387  0.0651
 3257TIP3    H231263   0.377   0.088   2.926  0.4858  1.9562 -0.4342
 3258TIP3   OH231264   1.261   5.520   2.447 -0.1480  0.3013  0.6646
 3258TIP3    H131265   1.217   5.437   2.426  2.6953 -0.5218 -2.9072
 3258TIP3    H231266   1.198   5.587   2.420 -0.3064 -0.8059 -2.0320
 3259TIP3   OH231267   3.650   4.315  11.543 -0.5504  0.2088 -0.5345
 3259TIP3    H131268   3.647   4.411  11.539 -1.8418  0.2350  0.5070
 3259TIP3    H231269   3.560   4.289  11.558  0.0908 -1.0538  1.4631
 3260TIP3   OH231270   6.608   0.812   2.727  0.0681 -0.1842 -0.0912
 3260TIP3    H131271   6.659   0.852   2.798  0.7970 -0.8198 -0.2427
 3260TIP3    H231272   6.588   0.724   2.758 -2.0314  0.4603  0.4835
 3261TIP3   OH231273   3.431   4.669   0.258 -0.4352 -0.2191  0.2712
 3261TIP3    H131274   3.408   4.612   0.331  0.1034 -0.4201  0.2869
 3261TIP3    H231275   3.488   4.736   0.296 -0.7255  0.0885  0.1720
 3262TIP3   OH231276   3.240   3.583   2.837 -0.3697  0.1818 -0.3287
 3262TIP3    H131277   3.278   3.664   2.804 -1.6011  0.5296 -0.9901
 3262TIP3    H231278   3.207   3.539   2.758 -1.3849 -0.0425  0.2053
 3263TIP3   OH231279   6.145   0.248   1.847 -0.1754 -0.4371  0.0456
 3263TIP3    H131280   6.088   0.215   1.916  0.4512  0.1845  0.8777
 3263TIP3    H231281   6.110   0.334   1.826  0.8510  0.2595  1.0709
 3264TIP3   OH231282   3.141   3.580  17.534  0.1482 -0.1790  0.5075
 3264TIP3    H131283   3.190   3.534  17.602  0.3625  0.8921  1.0981
 3264TIP3    H231284   3.205   3.637  17.492 -0.5174  1.1362  1.1966
 3265TIP3   OH231285   5.904   2.841  13.258 -0.1680  0.4401 -0.9129
 3265TIP3    H131286   5.970   2.776  13.281 -0.6487  0.5017  0.7871
 3265TIP3    H231287   5.926   2.868  13.169  0.0862 -1.9654 -1.6357
 3266TIP3   OH231288   6.094   0.336  17.124  0.1060 -0.1755 -0.3843
 3266TIP3    H131289   6.021   0.319  17.184  1.5953 -1.2073  1.2270
 3266TIP3    H231290   6.074   0.283  17.047 -0.4658 -1.0837  0.3554
 3267TIP3   OH231291   1.412   3.020  11.776  0.5416 -0.1582  0.5073
 3267TIP3    H131292   1.404   2.949  11.712  0.6522 -1.3098  1.7328
 3267TIP3    H231293   1.427   2.975  11.860  0.2454  1.3043  1.3700
 3268TIP3   OH231294   6.112   6.366   3.836  0.5480  0.3446  0.3890
 3268TIP3    H131295   6.037   6.409   3.876  0.2372 -1.1731  1.5287
 3268TIP3    H231296   6.120   6.407   3.749 -2.2715 -0.2103 -0.2290
 3269TIP3   OH231297   3.343   5.997  16.165  0.1659  0.0062  0.0687
 3269TIP3    H131298   3.372   6.086  16.145  1.1358 -0.0546  1.1121
 3269TIP3    H231299   3.247   6.001  16.161  0.2323  0.8163 -0.9911
 3270TIP3   OH231300   2.976   2.681   2.050  0.1798 -0.1756  0.0801
 3270TIP3    H131301   2.925   2.711   2.125  0.4259  1.3316 -0.3199
 3270TIP3    H231302   3.017   2.761   2.016  1.7273 -1.1491 -0.4119
 3271TIP3   OH231303   3.962   6.583  11.423  0.0199  0.1543  0.0990
 3271TIP3    H131304   4.004   6.529  11.357 -0.4803  2.1433 -1.9448
 3271TIP3    H231305   4.032   6.637  11.459  0.5188 -1.6567  2.1427
 3272TIP3   OH231306   4.931   6.230  15.121  0.0706  0.1116  0.5256
 3272TIP3    H131307   4.836   6.220  15.118  0.2193 -1.9870  1.3577
 3272TIP3    H231308   4.948   6.272  15.205 -0.1048  0.3020  0.4672
 3273TIP3   OH231309   2.561   4.746  13.847  0.6734 -0.5247 -0.2008
 3273TIP3    H131310   2.518   4.675  13.800 -0.4515 -0.2469  0.3785
 3273TIP3    H231311   2.581   4.812  13.780 -1.4181  0.1189 -0.2449
 3274TIP3   OH231312   2.803   4.272  15.193  0.6212 -0.2466  0.1879
 3274TIP3    H131313   2.751   4.350  15.209  0.7842 -0.3517  1.3150
 3274TIP3    H231314   2.890   4.292  15.228  0.8784 -0.6736 -0.1765
 3275TIP3   OH231315   1.216   5.226  14.395 -0.3812  0.4274 -0.0672
 3275TIP3    H131316   1.213   5.182  14.310 -1.1509 -0.5001  0.4261
 3275TIP3    H231317   1.145   5.289  14.392 -2.9266 -2.1555  1.1990
 3276TIP3   OH231318   5.341   1.151  12.626  0.5506 -0.1422 -0.1537
 3276TIP3    H131319   5.273   1.216  12.645 -0.3711 -1.0222 -0.3479
 3276TIP3    H231320   5.356   1.160  12.532 -0.5816 -1.1177 -0.4568
 3277TIP3   OH231321   6.217   3.476   1.859 -0.0111 -0.0543  0.4838
 3277TIP3    H131322   6.260   3.455   1.776  0.4871  1.2292  0.3868
 3277TIP3    H231323   6.285   3.464   1.925 -0.6339 -1.8827  0.8356
 3278TIP3   OH231324   2.906   3.122   1.153  0.4414 -0.2053  0.0895
 3278TIP3    H131325   2.837   3.117   1.219 -3.0083  0.2002 -3.1096
 3278TIP3    H231326   2.978   3.167   1.197 -1.3676 -0.3734  3.6373
 3279TIP3   OH231327   5.228   1.457  14.385 -0.0887 -0.1404 -0.2546
 3279TIP3    H131328   5.149   1.433  14.337  0.0884 -0.9448 -0.1650
 3279TIP3    H231329   5.274   1.374  14.398 -0.1566  0.0484  1.3585
 3280TIP3   OH231330   3.846   2.982   1.480 -0.0595 -0.1779 -0.6795
 3280TIP3    H131331   3.831   2.889   1.500  2.2690 -1.0084 -2.3657
 3280TIP3    H231332   3.803   2.996   1.396  0.0078  0.1300 -0.6627
 3281TIP3   OH231333   5.438   6.395   5.941  0.3211 -0.0669  0.1159
 3281TIP3    H131334   5.427   6.302   5.922 -0.2394  0.0456 -0.1220
 3281TIP3    H231335   5.407   6.405   6.031 -1.0453  0.1408 -0.3476
 3282TIP3   OH231336   6.278   6.024  15.334 -0.4016  0.2089 -1.0232
 3282TIP3    H131337   6.226   6.055  15.260  0.1622  3.5248 -0.1643
 3282TIP3    H231338   6.227   6.048  15.411  0.9669  0.7257 -0.2482
 3283TIP3   OH231339   6.362   4.866   6.428 -0.3455 -0.4771 -0.1884
 3283TIP3    H131340   6.434   4.868   6.492 -0.1114  1.5183 -0.4475
 3283TIP3    H231341   6.283   4.859   6.482 -0.1108  0.4396  0.2967
 3284TIP3   OH231342   5.673   5.278  14.861 -0.0850 -0.3610 -0.1144
 3284TIP3    H131343   5.675   5.214  14.932 -0.4335  0.4246  0.6217
 3284TIP3    H231344   5.640   5.358  14.902 -2.1162 -0.3856 -1.5641
 3285TIP3   OH231345   4.892   0.276   1.303 -0.5339 -0.4034 -0.5281
 3285TIP3    H131346   4.828   0.319   1.360 -0.2317  0.4788 -0.8462
 3285TIP3    H231347   4.918   0.343   1.241  2.4360  0.0336  0.9954
 3286TIP3   OH231348   4.428   6.611  12.286  0.2646  0.3648 -0.3727
 3286TIP3    H131349   4.358   6.576  12.231  0.0728  1.2815 -0.7397
 3286TIP3    H231350   4.436   6.549  12.358 -0.1330 -0.3585 -0.9410
 3287TIP3   OH231351   3.676   4.557   0.467 -0.0699  0.2733 -0.5930
 3287TIP3    H131352   3.657   4.464   0.453 -1.2792  0.3887  0.1302
 3287TIP3    H231353   3.591   4.597   0.486  0.7708  0.9158  2.4711
 3288TIP3   OH231354   2.677   5.762  12.991 -0.0516 -0.4965 -0.0754
 3288TIP3    H131355   2.748   5.823  13.010 -0.9507  0.3818  0.5162
 3288TIP3    H231356   2.670   5.764  12.895  0.0657  0.1761 -0.0782
 3289TIP3   OH231357   6.119   2.281  14.355 -0.2485  0.0865  0.2417
 3289TIP3    H131358   6.071   2.343  14.300  1.0834 -0.6365 -1.8565
 3289TIP3    H231359   6.192   2.332  14.389 -2.1060  1.0829  3.1291
 3290TIP3   OH231360   1.593   0.983  14.958  0.3589  0.0453 -0.1379
 3290TIP3    H131361   1.633   0.933  14.886 -1.1913 -1.3206 -0.1346
 3290TIP3    H231362   1.549   1.056  14.914  0.6929  0.0816 -0.4160
 3291TIP3   OH231363   5.631   5.805  15.530 -0.5763 -0.0254  0.2126
 3291TIP3    H131364   5.631   5.718  15.569 -0.8737 -0.1481 -0.0553
 3291TIP3    H231365   5.543   5.815  15.494 -0.1736 -0.0894 -0.8266
 3292TIP3   OH231366   1.951   4.449  17.513  0.2363 -0.7749  0.0582
 3292TIP3    H131367   1.933   4.488  17.427  1.4892  1.5637  0.7822
 3292TIP3    H231368   1.895   4.496  17.574  1.4527 -0.3692  0.9045
 3293TIP3   OH231369   2.499   3.034  17.283 -0.0935 -0.3635  0.1127
 3293TIP3    H131370   2.430   2.974  17.254 -1.1346  0.8490 -0.0028
 3293TIP3    H231371   2.453   3.101  17.332  0.9774  0.6227 -0.1899
 3294TIP3   OH231372   2.538   5.569  10.670  0.4560 -0.1879  0.1811
 3294TIP3    H131373   2.632   5.552  10.661  0.4299  0.0994 -0.7679
 3294TIP3    H231374   2.532   5.664  10.682  0.4045 -0.4183  2.4014
 3295TIP3   OH231375   6.095   4.285   4.149  0.5022 -0.8296  0.1056
 3295TIP3    H131376   6.072   4.367   4.191 -0.4888 -0.0602 -1.8049
 3295TIP3    H231377   6.024   4.270   4.086  1.8895 -1.8708 -1.2890
 3296TIP3   OH231378   1.355   0.643  13.649  0.5581  1.0150 -0.1374
 3296TIP3    H131379   1.337   0.658  13.556  2.2457 -1.0601 -0.8779
 3296TIP3    H231380   1.358   0.731  13.687 -2.5948  1.8566 -1.4688
 3297TIP3   OH231381   3.407   2.414  15.702 -0.0424  0.1128  0.0816
 3297TIP3    H131382   3.450   2.371  15.629 -1.2919 -0.4691 -0.3452
 3297TIP3    H231383   3.476   2.427  15.767  1.4357  1.9100 -1.7138
 3298TIP3   OH231384   5.273   1.498  13.190  0.4409  0.6705  0.2765
 3298TIP3    H131385   5.344   1.556  13.162  2.6865 -2.0607 -0.1597
 3298TIP3    H231386   5.317   1.426  13.234 -2.0461 -1.3117 -0.2430
 3299TIP3   OH231387   0.905   0.815   0.439  0.2313 -0.9239 -0.3745
 3299TIP3    H131388   0.875   0.893   0.392  2.4507 -0.4300 -1.0994
 3299TIP3    H231389   0.955   0.850   0.513 -1.1474 -1.7043  0.9716
 3300TIP3   OH231390   0.423   3.801  16.243 -0.5340  0.1041  0.2053
 3300TIP3    H131391   0.328   3.817  16.244 -0.6217 -0.3597 -0.2209
 3300TIP3    H231392   0.431   3.707  16.228 -0.0159 -0.0434  1.2857
 3301TIP3   OH231393   2.330   6.023   3.485 -0.6298 -0.1955 -0.1872
 3301TIP3    H131394   2.264   6.055   3.424 -1.6340 -0.9839  0.4468
 3301TIP3    H231395   2.291   5.945   3.524  0.8442 -0.9242 -0.0845
 3302TIP3   OH231396   2.268   1.336   3.833 -0.1450 -0.2036 -0.4260
 3302TIP3    H131397   2.238   1.308   3.920  0.7088  0.4649  0.1031
 3302TIP3    H231398   2.344   1.281   3.815  0.0797  0.1125 -0.4509
 3303TIP3   OH231399   2.860   5.026  12.072 -0.2863 -0.8222 -0.1530
 3303TIP3    H131400   2.775   5.054  12.108  1.2329  2.5275  1.2501
 3303TIP3    H231401   2.901   4.977  12.142  0.9106  2.0088  1.2810
 3304TIP3   OH231402   0.805   2.239  17.434 -0.3279 -0.3360  0.0502
 3304TIP3    H131403   0.891   2.209  17.406 -0.6771  1.2954 -3.3648
 3304TIP3    H231404   0.748   2.163  17.422  0.0683 -0.4597 -1.2052
 3305TIP3   OH231405   1.315   6.110   1.179 -0.3182  0.0521  0.0123
 3305TIP3    H131406   1.292   6.041   1.240 -0.1873 -0.6258 -0.6948
 3305TIP3    H231407   1.379   6.164   1.227 -0.9056  0.0657  0.7927
 3306TIP3   OH231408   1.168   0.341  17.025 -0.8031  0.3147  0.2552
 3306TIP3    H131409   1.244   0.398  17.034 -1.5752  1.4943 -0.3710
 3306TIP3    H231410   1.133   0.335  17.114 -1.8624  2.5470  0.0819
 3307TIP3   OH231411   3.047   4.248   5.245  0.2229 -0.0895  0.0184
 3307TIP3    H131412   2.993   4.187   5.295  0.0382  0.4851  0.5350
 3307TIP3    H231413   3.036   4.332   5.290  0.0978  0.4352 -0.9616
 3308TIP3   OH231414   3.496   0.804  13.872 -0.7585  0.7010  0.6902
 3308TIP3    H131415   3.464   0.731  13.819 -0.0074  1.9694 -1.6256
 3308TIP3    H231416   3.529   0.762  13.952 -0.0129 -1.5379 -0.6993
 3309TIP3   OH231417   4.680   4.404  17.482 -0.5002 -0.2350 -0.3396
 3309TIP3    H131418   4.685   4.416  17.387  0.9585 -0.0864 -0.2706
 3309TIP3    H231419   4.667   4.492  17.517  1.7161  0.1165 -0.2828
 3310TIP3   OH231420   5.158   1.957   3.094 -0.3602 -0.0228  0.0657
 3310TIP3    H131421   5.239   1.980   3.140  0.9330 -2.9068 -0.5357
 3310TIP3    H231422   5.112   1.899   3.156 -2.3697  2.0508  0.6558
 3311TIP3   OH231423   6.260   5.313   3.981 -0.0292  0.3887  0.4124
 3311TIP3    H131424   6.259   5.222   3.951 -2.2510  0.2530  0.7160
 3311TIP3    H231425   6.203   5.359   3.919 -1.5419  0.8779  2.0872
 3312TIP3   OH231426   6.652   3.833  16.638 -0.5577  1.0183  0.0644
 3312TIP3    H131427   6.659   3.738  16.631  0.1975  1.1586 -1.3048
 3312TIP3    H231428   6.717   3.867  16.577 -0.1856  2.4318  1.1922
 3313TIP3   OH231429   4.685   3.487  17.028 -0.2259  0.4463  0.4633
 3313TIP3    H131430   4.732   3.481  17.111 -2.6534  0.3592  1.9273
 3313TIP3    H231431   4.594   3.465  17.050 -0.4601 -3.0388 -2.8091
 3314TIP3   OH231432   1.643   2.668   0.678  0.3213  0.0891 -0.5125
 3314TIP3    H131433   1.675   2.641   0.765  0.2566  0.7505 -0.2800
 3314TIP3    H231434   1.692   2.748   0.658 -0.0256  0.2142 -0.8685
 3315TIP3   OH231435   3.058   6.203   5.062  0.1020  0.4653  0.3680
 3315TIP3    H131436   2.990   6.136   5.059 -0.9780  1.5451 -0.3512
 3315TIP3    H231437   3.139   6.154   5.076 -0.4060 -1.1833 -1.8865
 3316TIP3   OH231438   1.206   0.486   5.316 -0.1874  0.7284  0.5115
 3316TIP3    H131439   1.202   0.470   5.222  0.9555  1.0566  0.3932
 3316TIP3    H231440   1.205   0.582   5.324  2.4288  0.8180  0.6388
 3317TIP3   OH231441   2.827   2.108   1.888 -0.6488  0.4282  0.2714
 3317TIP3    H131442   2.870   2.110   1.974 -0.4273 -3.6090  0.4614
 3317TIP3    H231443   2.861   2.028   1.846 -0.7553  2.1982 -3.6502
 3318TIP3   OH231444   5.891   1.332   4.291 -0.4378 -0.2686 -0.2016
 3318TIP3    H131445   5.917   1.259   4.235 -1.6361 -1.3697  0.6144
 3318TIP3    H231446   5.865   1.291   4.373 -0.2742  1.1741  0.5947
 3319TIP3   OH231447   6.440   3.334   1.079 -0.1906  0.1656  0.3845
 3319TIP3    H131448   6.458   3.271   1.149 -1.1963 -2.3613 -1.4611
 3319TIP3    H231449   6.458   3.286   0.999 -0.7021  2.3903 -1.1447
 3320TIP3   OH231450   6.580   6.619  16.694 -0.1500 -0.4173  0.6977
 3320TIP3    H131451   6.598   6.525  16.690 -0.4110 -0.5996  2.6811
 3320TIP3    H231452   6.493   6.625  16.735 -0.4929  0.6779 -0.1386
 3321TIP3   OH231453   5.078   4.677  13.185 -0.0232  0.2367  0.5441
 3321TIP3    H131454   5.127   4.596  13.168 -0.5889  0.0739 -0.4150
 3321TIP3    H231455   5.116   4.712  13.265  1.0006 -0.3919  0.3507
 3322TIP3   OH231456   1.286   2.071   2.462  0.2047 -0.3340 -0.5101
 3322TIP3    H131457   1.356   2.135   2.474  0.9487 -1.2803  0.3250
 3322TIP3    H231458   1.261   2.080   2.370  1.5550 -0.1044 -0.8691
 3323TIP3   OH231459   0.637   2.063   5.825  0.6043 -0.1477 -0.1838
 3323TIP3    H131460   0.596   2.082   5.741  1.6552 -1.2796 -0.9865
 3323TIP3    H231461   0.699   2.134   5.838 -0.7280  0.9479  0.4859
 3324TIP3   OH231462   1.711   1.299  11.716  0.0722 -0.0450 -0.7243
 3324TIP3    H131463   1.716   1.366  11.784 -1.4456 -0.8676  0.2512
 3324TIP3    H231464   1.794   1.251  11.723 -0.6857 -1.1760  1.7493
 3325TIP3   OH231465   3.572   2.050   4.757 -0.6273 -0.2582  0.5710
 3325TIP3    H131466   3.589   2.144   4.748  0.2632 -0.4731 -0.1560
 3325TIP3    H231467   3.655   2.013   4.788 -0.5683 -0.9788 -0.4091
 3326TIP3   OH231468   6.211   0.539  17.349  0.3290  0.0354  0.4324
 3326TIP3    H131469   6.236   0.467  17.407 -1.3402 -1.6119 -0.7790
 3326TIP3    H231470   6.115   0.543  17.355  0.0218 -0.5533 -2.5152
 3327TIP3   OH231471   6.209   0.571   5.289  0.6749 -0.3511 -0.1706
 3327TIP3    H131472   6.141   0.512   5.259 -0.2331  0.5933 -0.0344
 3327TIP3    H231473   6.289   0.518   5.289 -0.2885 -1.8800  1.0015
 3328TIP3   OH231474   2.082   0.771  12.792 -0.2924  0.0742 -0.5642
 3328TIP3    H131475   2.143   0.786  12.864 -1.1964  1.0559  0.0258
 3328TIP3    H231476   2.136   0.731  12.724  1.2426  1.7301 -0.4198
 3329TIP3   OH231477   0.779   1.091  17.364 -0.8253  0.1793  0.3696
 3329TIP3    H131478   0.764   1.174  17.318 -0.0076 -0.6440 -1.4510
 3329TIP3    H231479   0.780   1.025  17.295 -0.7152 -1.2700  1.7106
 3330TIP3   OH231480   4.415   1.855   3.552 -0.6542 -0.0901 -0.4066
 3330TIP3    H131481   4.456   1.812   3.627  0.5793  1.6494 -0.0143
 3330TIP3    H231482   4.340   1.902   3.589 -0.2631  0.4695 -0.3182
 3331TIP3   OH231483   6.512   4.188  15.936 -0.6371  0.7381 -0.1423
 3331TIP3    H131484   6.469   4.102  15.936  1.3228 -0.3118  0.5455
 3331TIP3    H231485   6.553   4.195  15.850  0.1964  0.4301  0.2195
 3332TIP3   OH231486   1.664   2.465  16.966  0.8370  0.0890  0.3537
 3332TIP3    H131487   1.574   2.458  16.934  1.0273  1.7357 -0.6692
 3332TIP3    H231488   1.716   2.484  16.888  1.7771  1.0736  1.1773
 3333TIP3   OH231489   0.794   0.814  16.576 -0.6788 -0.1704 -0.0893
 3333TIP3    H131490   0.863   0.769  16.527 -1.3390 -1.9760  0.5513
 3333TIP3    H231491   0.773   0.755  16.648 -0.3629  1.9917  1.9080
 3334TIP3   OH231492   1.799   4.237   0.195 -0.2998  0.4135  0.6553
 3334TIP3    H131493   1.830   4.158   0.240  0.6294 -0.1475 -0.8867
 3334TIP3    H231494   1.707   4.217   0.174 -0.7827  0.7360  2.3420
 3335TIP3   OH231495   1.101   6.289   1.817 -0.2725  0.0438  0.3927
 3335TIP3    H131496   1.039   6.309   1.747  0.3679  1.2149  0.1316
 3335TIP3    H231497   1.186   6.289   1.774  0.0645  0.0881  1.0460
 3336TIP3   OH231498   5.888   2.207  15.090  0.1287 -0.2631  0.1267
 3336TIP3    H131499   5.803   2.225  15.049 -0.9507  0.4770  2.4628
 3336TIP3    H231500   5.904   2.114  15.073  0.1118  0.1381 -2.4347
 3337TIP3   OH231501   4.636   2.230   3.985 -0.2996  0.6896  0.1510
 3337TIP3    H131502   4.622   2.178   3.906  0.3267  1.7299 -0.6656
 3337TIP3    H231503   4.548   2.263   4.008 -0.3373  1.2209 -0.7187
 3338TIP3   OH231504   5.151   4.629   0.412  0.2193  0.0353 -0.6516
 3338TIP3    H131505   5.172   4.711   0.456 -1.1335 -0.3103  0.7068
 3338TIP3    H231506   5.080   4.651   0.352  0.6488  0.0712 -1.1614
 3339TIP3   OH231507   2.145   0.574  14.905 -0.3367  0.0047  0.1643
 3339TIP3    H131508   2.212   0.508  14.924  0.8626  0.4265 -2.1895
 3339TIP3    H231509   2.187   0.633  14.842 -2.7518  0.5865 -1.0253
 3340TIP3   OH231510   4.221   4.281  11.927  0.5678 -0.6095  0.3793
 3340TIP3    H131511   4.216   4.218  11.855 -0.1319  0.6371 -0.6936
 3340TIP3    H231512   4.180   4.236  12.001  0.5654 -1.6092 -0.2092
 3341TIP3   OH231513   4.002   2.613  13.174  0.0741 -0.0019 -0.3568
 3341TIP3    H131514   4.043   2.678  13.118  1.0122 -0.5410 -0.3131
 3341TIP3    H231515   4.066   2.597  13.243 -0.4028 -0.5208 -0.0234
 3342TIP3   OH231516   4.612   0.847   2.647 -0.1120 -0.6683 -0.8406
 3342TIP3    H131517   4.529   0.889   2.670 -0.4670 -1.3941 -0.7657
 3342TIP3    H231518   4.673   0.919   2.634 -0.6026 -0.1468 -0.2982
 3343TIP3   OH231519   0.734   1.183  12.299  0.2586  0.1301  0.2937
 3343TIP3    H131520   0.727   1.093  12.266 -1.5252  0.7675 -1.2328
 3343TIP3    H231521   0.644   1.208  12.321  0.5172  1.9598 -0.5277
 3344TIP3   OH231522   5.378   5.916   4.853 -0.2964  0.1769  0.6506
 3344TIP3    H131523   5.365   5.986   4.788  1.2651  0.4757  0.6279
 3344TIP3    H231524   5.296   5.866   4.850 -0.2119  0.0643 -1.6820
 3345TIP3   OH231525   2.368   5.306   5.943 -0.2852  0.6705  0.3672
 3345TIP3    H131526   2.412   5.284   6.025  0.7762 -2.6214 -0.9168
 3345TIP3    H231527   2.289   5.354   5.971  0.6848  0.8397  3.1731
 3346TIP3   OH231528   2.688   4.858   0.457  0.0695 -0.3763 -0.3722
 3346TIP3    H131529   2.688   4.830   0.366 -0.8933  1.9698 -1.1701
 3346TIP3    H231530   2.777   4.890   0.473  0.6574 -2.0916  0.0066
 3347TIP3   OH231531   5.784   2.267  12.525  0.0617 -0.4911 -0.0145
 3347TIP3    H131532   5.856   2.224  12.478 -0.2844  0.8786 -1.8876
 3347TIP3    H231533   5.817   2.276  12.615  1.4744 -1.5703 -0.3894
 3348TIP3   OH231534   1.662   6.542  16.183  0.0126 -0.4774  0.0071
 3348TIP3    H131535   1.629   6.631  16.198 -1.0270 -0.9277  0.5740
 3348TIP3    H231536   1.603   6.505  16.117  0.6316 -0.6480 -0.4601
 3349TIP3   OH231537   2.970   6.150   5.775 -0.2819 -0.6506 -0.0856
 3349TIP3    H131538   2.938   6.137   5.686  2.5047  0.8399 -1.4167
 3349TIP3    H231539   2.958   6.243   5.792 -0.5179 -0.8646  0.9996
 3350TIP3   OH231540   6.249   1.710   0.565 -0.5033 -0.6811 -0.0518
 3350TIP3    H131541   6.155   1.690   0.561 -0.7758  0.5666 -0.2985
 3350TIP3    H231542   6.255   1.803   0.542  1.0324 -1.3123 -2.5752
 3351TIP3   OH231543   4.084   2.471  11.887  0.2233  0.1279 -0.3003
 3351TIP3    H131544   4.173   2.442  11.909  0.5926  0.9321 -0.6870
 3351TIP3    H231545   4.095   2.525  11.809 -0.5737  0.4589 -0.1935
 3352TIP3   OH231546   3.478   0.644  11.459 -0.3230 -0.1839 -0.3870
 3352TIP3    H131547   3.533   0.578  11.416 -0.9078 -0.5680 -0.5587
 3352TIP3    H231548   3.450   0.701  11.388  2.1325  1.7536  0.0487
 3353TIP3   OH231549   4.708   3.139  11.719 -0.7063  0.7488 -0.3903
 3353TIP3    H131550   4.748   3.174  11.639  3.4870  0.3554  1.2892
 3353TIP3    H231551   4.701   3.045  11.703 -0.6280  0.7778 -0.6050
 3354TIP3   OH231552   1.745   5.905   5.457  0.2181  0.6615  0.1656
 3354TIP3    H131553   1.697   5.982   5.489 -0.2978  0.0812  0.8076
 3354TIP3    H231554   1.711   5.890   5.369  0.6505  1.4353 -0.1471
 3355TIP3   OH231555   4.511   5.827   1.783 -0.2215  0.1313  0.1916
 3355TIP3    H131556   4.447   5.839   1.713  0.2586 -0.6212 -0.3841
 3355TIP3    H231557   4.471   5.764   1.842 -0.6446  0.7972  0.6373
 3356TIP3   OH231558   4.927   5.627  14.567 -0.0546  0.1438  0.0203
 3356TIP3    H131559   4.921   5.620  14.472  0.5103  0.5843 -0.0504
 3356TIP3    H231560   4.848   5.676  14.592  0.8121  1.8126 -0.4360
 3357TIP3   OH231561   2.308   3.293   3.809 -0.5742 -0.1076  0.0222
 3357TIP3    H131562   2.317   3.384   3.782  1.3317  0.0449  0.9653
 3357TIP3    H231563   2.394   3.254   3.790 -1.1931 -1.5698  0.1116
 3358TIP3   OH231564   4.166   0.761  12.028 -0.0405  0.5464  0.6329
 3358TIP3    H131565   4.100   0.764  11.959  0.3694 -1.3164  0.1139
 3358TIP3    H231566   4.117   0.737  12.107 -0.0589 -0.5694  0.3018
 3359TIP3   OH231567   6.434   1.270  15.583 -0.1221 -0.3894  0.0904
 3359TIP3    H131568   6.527   1.290  15.569 -0.4069 -0.0744 -1.5661
 3359TIP3    H231569   6.434   1.187  15.631  1.0095 -0.4551  0.0100
 3360TIP3   OH231570   1.441   4.560  12.577 -0.0311 -0.3020  0.7103
 3360TIP3    H131571   1.422   4.472  12.545  2.9915 -1.4064  1.5620
 3360TIP3    H231572   1.536   4.560  12.591  0.3031  3.5066 -0.4135
 3361TIP3   OH231573   0.029   0.663  16.045 -0.3661  0.2094  0.4466
 3361TIP3    H131574  -0.061   0.668  16.011 -0.3367 -0.4174  0.2720
 3361TIP3    H231575   0.019   0.674  16.139 -0.8424 -1.7923  0.6636
 3362TIP3   OH231576   2.236   0.119  14.092  0.2462  0.1471 -0.2355
 3362TIP3    H131577   2.175   0.194  14.089  0.5881  0.4748  0.7416
 3362TIP3    H231578   2.261   0.112  14.184  2.5088  0.6816 -0.7587
 3363TIP3   OH231579   0.257   6.718   5.074 -0.3475 -0.6812 -1.0258
 3363TIP3    H131580   0.311   6.786   5.034  1.9953 -1.1948  1.0299
 3363TIP3    H231581   0.319   6.656   5.111 -2.2130 -0.5787  2.7866
 3364TIP3   OH231582   5.439   5.957  14.578  0.5361  0.6580 -0.1545
 3364TIP3    H131583   5.521   5.909  14.594  0.9812  0.8532 -1.6466
 3364TIP3    H231584   5.377   5.889  14.551  0.7711  0.7267 -0.9005
 3365TIP3   OH231585   6.711   1.245  16.952  0.5109  0.0510  0.4168
 3365TIP3    H131586   6.642   1.268  16.890 -0.7194  2.0074  2.3617
 3365TIP3    H231587   6.678   1.168  16.999  0.6918 -0.3985 -0.1829
 3366TIP3   OH231588   0.969   6.103  11.453  0.0046  0.0560  0.6447
 3366TIP3    H131589   0.929   6.050  11.385  2.9689 -3.1838  1.1517
 3366TIP3    H231590   0.979   6.189  11.414 -1.7175 -0.6677 -1.6091
 3367TIP3   OH231591   6.612   4.849  11.973  0.4273 -0.2166  0.0157
 3367TIP3    H131592   6.626   4.806  12.057 -1.0711 -0.1103  0.3487
 3367TIP3    H231593   6.604   4.777  11.910  1.9970 -0.2848 -0.1385
 3368TIP3   OH231594   5.007   4.603  12.909  0.1154 -0.1223  0.1768
 3368TIP3    H131595   5.021   4.620  13.003  1.5902 -0.4345  0.0364
 3368TIP3    H231596   4.989   4.509  12.905  2.1635 -0.5459 -0.0273
 3369TIP3   OH231597   4.934   2.014   2.901 -0.1410 -0.6613 -0.7230
 3369TIP3    H131598   5.022   1.978   2.884 -0.4660 -1.2825 -1.1407
 3369TIP3    H231599   4.950   2.097   2.945  0.7459  0.4804 -3.0058
 3370TIP3   OH231600   6.483   1.415   2.383  0.0455 -0.1553  0.1171
 3370TIP3    H131601   6.464   1.490   2.440 -0.2337 -0.1985  0.0852
 3370TIP3    H231602   6.496   1.342   2.443 -2.3589 -0.6843  0.1019
 3371TIP3   OH231603   3.247   2.601  16.220  0.0578 -0.1892  0.0113
 3371TIP3    H131604   3.311   2.654  16.266  1.1643  0.1433 -1.8088
 3371TIP3    H231605   3.187   2.665  16.180 -0.8167 -0.4625  0.8502
 3372TIP3   OH231606   3.843   2.471   6.068  0.0432 -0.5772  0.1537
 3372TIP3    H131607   3.913   2.503   6.012  0.0778 -0.1366  0.4429
 3372TIP3    H231608   3.860   2.511   6.153 -0.3251 -0.7928  0.3332
 3373TIP3   OH231609   2.681   2.358   2.200 -0.2935 -0.3411 -0.2931
 3373TIP3    H131610   2.659   2.360   2.107 -1.6709 -2.2356 -0.0736
 3373TIP3    H231611   2.616   2.414   2.242 -1.6941 -1.9810 -0.1811
 3374TIP3   OH231612   1.890   4.244  15.481 -0.5948 -0.2655 -0.2379
 3374TIP3    H131613   1.800   4.212  15.474  0.0580 -2.4443  0.3081
 3374TIP3    H231614   1.930   4.187  15.547  0.8588  1.4698  0.4657
 3375TIP3   OH231615   6.382   1.539   4.164 -0.2589  0.2110 -0.3802
 3375TIP3    H131616   6.309   1.484   4.134 -0.5289  1.1250 -1.4678
 3375TIP3    H231617   6.347   1.587   4.239  0.5464 -2.4114  1.8436
 3376TIP3   OH231618   6.029   4.857   1.004 -0.1253 -0.5706  0.3658
 3376TIP3    H131619   6.031   4.771   1.047 -1.7183 -0.1455  1.3470
 3376TIP3    H231620   6.118   4.890   1.013  0.6487 -2.2780 -0.4163
 3377TIP3   OH231621   0.105   4.849   6.654 -0.3462  0.1702 -0.4066
 3377TIP3    H131622   0.170   4.781   6.674  1.2827  2.2040  1.8658
 3377TIP3    H231623   0.147   4.904   6.588  0.3186  1.4784  1.0508
 3378TIP3   OH231624   0.384   1.130   5.626  0.1834 -0.5076  0.5486
 3378TIP3    H131625   0.372   1.125   5.721  0.1826 -2.1309  0.4902
 3378TIP3    H231626   0.466   1.083   5.610  2.1313  2.7210  0.0496
 3379TIP3   OH231627   6.565   5.211   4.215 -0.2048 -0.0342  0.2913
 3379TIP3    H131628   6.653   5.210   4.255 -0.5333 -0.6450  1.0243
 3379TIP3    H231629   6.566   5.287   4.158  0.8264 -0.0563  0.2551
 3380TIP3   OH231630   1.499   1.447   3.948  0.3351 -0.1187  0.5203
 3380TIP3    H131631   1.477   1.431   3.856  0.7684 -0.2394  0.4328
 3380TIP3    H231632   1.590   1.418   3.956  0.6903  1.0111  0.6940
 3381TIP3   OH231633   1.719   4.089   3.503 -0.3930 -0.0648 -0.5214
 3381TIP3    H131634   1.722   4.121   3.593 -1.3740  0.8640 -0.7877
 3381TIP3    H231635   1.774   4.011   3.503  1.4967  1.1891  0.3562
 3382TIP3   OH231636   3.247   3.615   1.235  0.0327 -0.3805  0.0893
 3382TIP3    H131637   3.160   3.578   1.249  0.7988 -2.2428  0.3019
 3382TIP3    H231638   3.231   3.699   1.192 -1.8533 -0.7718 -0.0702
 3383TIP3   OH231639   2.219   4.006  15.905  0.0220 -0.0041  0.5427
 3383TIP3    H131640   2.163   4.026  15.830  0.2289 -0.7200  0.1880
 3383TIP3    H231641   2.299   3.972  15.866  0.2295 -0.1410  1.0834
 3384TIP3   OH231642   1.447   3.835  17.559 -0.1828 -0.0567 -0.2966
 3384TIP3    H131643   1.423   3.787  17.639 -0.7653  0.4609 -0.1496
 3384TIP3    H231644   1.521   3.889  17.585  0.0613 -0.3885 -0.2903
 3385TIP3   OH231645   2.812   6.508   6.400  0.8888 -0.0730  0.2144
 3385TIP3    H131646   2.717   6.501   6.408  0.9217 -1.5291 -0.4930
 3385TIP3    H231647   2.836   6.576   6.463 -0.7866  1.5505 -0.7986
 3386TIP3   OH231648   4.017   3.035   0.571  0.4401 -0.2682 -0.8181
 3386TIP3    H131649   4.050   3.123   0.555 -0.2034  0.4288  1.4083
 3386TIP3    H231650   4.034   2.988   0.489  2.0063  1.5286 -1.5972
 3387TIP3   OH231651   0.314   0.230   1.425 -0.8131 -0.1107  0.6583
 3387TIP3    H131652   0.333   0.321   1.400  0.4829 -0.4725  0.2905
 3387TIP3    H231653   0.329   0.227   1.519 -1.7300  0.2567  0.8315
 3388TIP3   OH231654   1.652   6.656   2.542 -0.5820 -0.3266  0.1602
 3388TIP3    H131655   1.567   6.613   2.530 -0.2728 -1.2192  1.0549
 3388TIP3    H231656   1.661   6.665   2.636 -0.5195  1.5276  0.0209
 3389TIP3   OH231657   0.189   3.325   4.340 -0.1974  0.2573  0.4243
 3389TIP3    H131658   0.134   3.333   4.262 -1.6229  2.3178  1.5052
 3389TIP3    H231659   0.154   3.249   4.386  1.1484 -1.4444 -1.2224
 3390TIP3   OH231660   2.469   5.004  15.965  0.0548  0.0155 -0.1438
 3390TIP3    H131661   2.398   4.946  15.934 -0.6899  1.7692 -1.9367
 3390TIP3    H231662   2.456   5.009  16.059 -1.6835 -0.4387 -0.3207
 3391TIP3   OH231663   4.506   5.202   2.072  0.0595  0.2014  0.1197
 3391TIP3    H131664   4.466   5.233   1.990 -0.7426  0.5687  0.6304
 3391TIP3    H231665   4.433   5.162   2.120  0.0697  1.7373  1.4986
 3392TIP3   OH231666   2.410   3.062  14.848 -0.0428 -0.4821 -0.5793
 3392TIP3    H131667   2.443   2.975  14.870 -0.6606 -1.4476 -3.1864
 3392TIP3    H231668   2.485   3.107  14.809 -0.3882 -0.7561 -1.5627
 3393TIP3   OH231669   2.925   6.338  17.370  0.5127  0.9208  0.3820
 3393TIP3    H131670   2.894   6.249  17.352  0.3667  1.1136 -0.3602
 3393TIP3    H231671   2.854   6.379  17.419  0.0502  1.0121 -0.3514
 3394TIP3   OH231672   0.364   6.738  11.127  0.2009 -0.5125  0.0786
 3394TIP3    H131673   0.432   6.766  11.188 -0.3853 -1.9495  1.4702
 3394TIP3    H231674   0.388   6.648  11.104 -0.3638 -0.4734 -0.7246
 3395TIP3   OH231675   4.643   3.974  14.110 -0.1236  0.3374 -0.8194
 3395TIP3    H131676   4.728   3.939  14.083  0.4997  0.9149  0.3157
 3395TIP3    H231677   4.607   3.908  14.169 -0.1852  0.3807 -0.8081
 3396TIP3   OH231678   3.796   6.256  14.053 -0.1660 -0.1321  0.3267
 3396TIP3    H131679   3.707   6.234  14.080 -0.5335 -1.0833 -1.4824
 3396TIP3    H231680   3.800   6.351  14.059 -0.9681 -0.1535  1.3864
 3397TIP3   OH231681   3.914   0.446  12.304  0.5522 -0.1225 -0.2415
 3397TIP3    H131682   3.847   0.467  12.238  1.9359  0.9017 -1.3807
 3397TIP3    H231683   3.979   0.516  12.295  1.9406 -1.2512  0.6019
 3398TIP3   OH231684   6.429   1.490  16.738 -0.1975  0.0840  0.3125
 3398TIP3    H131685   6.502   1.536  16.781  0.2836  0.8597 -1.2684
 3398TIP3    H231686   6.392   1.555  16.678 -2.7407 -0.0191  1.6097
 3399TIP3   OH231687   3.048   4.138  13.787  0.2611 -0.1045  0.7237
 3399TIP3    H131688   3.049   4.202  13.715  2.0350 -0.0606  0.7518
 3399TIP3    H231689   3.082   4.057  13.747  1.5358 -0.0009  1.5605
 3400TIP3   OH231690   2.132   1.185  14.842 -0.1618  0.2868  0.0365
 3400TIP3    H131691   2.142   1.264  14.789 -0.1480  1.7162  2.0703
 3400TIP3    H231692   2.210   1.133  14.822  0.7833  1.6447  0.0382
 3401TIP3   OH231693   2.517   6.293   5.227  0.2502 -0.1078  0.0778
 3401TIP3    H131694   2.481   6.206   5.245 -1.9422  0.3730 -1.6263
 3401TIP3    H231695   2.492   6.312   5.137  2.2207  1.6046 -0.1932
 3402TIP3   OH231696   2.851   5.932  11.625 -0.2194  0.0716 -0.3519
 3402TIP3    H131697   2.947   5.926  11.622 -0.2422 -0.0159 -0.8730
 3402TIP3    H231698   2.833   5.977  11.708  0.2942  0.6382 -0.5440
 3403TIP3   OH231699   0.896   4.214   3.227  0.4879  0.0104  0.1050
 3403TIP3    H131700   0.944   4.273   3.285 -0.2804  1.5656 -0.7596
 3403TIP3    H231701   0.808   4.208   3.265  1.0878 -2.3170  1.3335
 3404TIP3   OH231702   6.045   2.789  12.418 -0.5518 -0.0431  0.5676
 3404TIP3    H131703   6.056   2.719  12.353  0.8526 -0.0351  0.7533
 3404TIP3    H231704   6.108   2.856  12.391  0.0371 -0.0259  1.8958
 3405TIP3   OH231705   4.007   1.923   3.572  0.7523 -0.4765  0.5038
 3405TIP3    H131706   3.936   1.921   3.635 -1.3060 -1.1314 -1.6959
 3405TIP3    H231707   4.062   1.848   3.595  1.9249  1.0760  3.3615
 3406TIP3   OH231708   3.270   2.692  17.600 -0.0326  0.2630 -0.0589
 3406TIP3    H131709   3.324   2.761  17.639 -0.1935  0.1774  0.3204
 3406TIP3    H231710   3.247   2.726  17.513 -0.4397  0.8655  0.2700
 3407TIP3   OH231711   2.546   0.103   3.826  0.2748 -0.0225 -0.0796
 3407TIP3    H131712   2.601   0.167   3.871  0.9279 -0.2195 -0.5904
 3407TIP3    H231713   2.457   0.126   3.852  0.5696  0.4967  0.5009
 3408TIP3   OH231714   4.534   4.825   1.590  0.5831 -0.4302 -0.4418
 3408TIP3    H131715   4.595   4.888   1.628  1.6820 -0.7501 -1.6259
 3408TIP3    H231716   4.509   4.769   1.664 -1.0471  1.7988  0.8215
 3409TIP3   OH231717   3.181   1.488   6.206 -0.3864  0.0575  0.2254
 3409TIP3    H131718   3.197   1.394   6.211 -1.6139 -0.2910 -1.3203
 3409TIP3    H231719   3.266   1.528   6.224 -0.2269 -1.2468  2.7277
 3410TIP3   OH231720   4.682   5.235  13.876 -0.2831 -0.2725  0.1575
 3410TIP3    H131721   4.647   5.214  13.789  1.2340 -2.1852 -0.0424
 3410TIP3    H231722   4.606   5.227  13.934 -1.2027  0.4995 -0.8778
 3411TIP3   OH231723   5.263   5.985   2.007 -0.7851 -0.0505  0.0178
 3411TIP3    H131724   5.211   6.043   2.063 -1.9633 -0.7798 -0.2706
 3411TIP3    H231725   5.213   5.981   1.925  1.1634  1.4028 -1.3262
 3412TIP3   OH231726   1.890   1.892  12.495 -0.7088  0.1255 -0.5137
 3412TIP3    H131727   1.800   1.886  12.526  0.4018 -1.4983  2.9292
 3412TIP3    H231728   1.912   1.803  12.467 -0.4095  0.7219 -2.3526
 3413TIP3   OH231729   0.521   2.093   5.569 -0.6233  0.4435 -0.1668
 3413TIP3    H131730   0.541   2.020   5.510 -0.8082  0.0595  0.2392
 3413TIP3    H231731   0.456   2.058   5.629  1.9630 -0.2857  2.4407
 3414TIP3   OH231732   5.778   4.626  13.786  0.1394 -0.1194  0.8379
 3414TIP3    H131733   5.807   4.604  13.875  0.4901  1.0385  1.0332
 3414TIP3    H231734   5.855   4.666  13.745 -0.2639  0.1023  0.2833
 3415TIP3   OH231735   2.374   2.490   4.822 -0.2008  0.2929  0.1912
 3415TIP3    H131736   2.427   2.533   4.888 -2.8900  0.1942  2.6096
 3415TIP3    H231737   2.404   2.399   4.823  0.0469  0.3738  1.0237
 3416TIP3   OH231738   0.649   4.720  17.466 -0.2200  0.5198  0.1373
 3416TIP3    H131739   0.697   4.651  17.420  0.1770  0.6114  0.4227
 3416TIP3    H231740   0.716   4.771  17.512 -0.6607  0.1192  1.2528
 3417TIP3   OH231741   3.088   4.468   4.968  0.2195  0.3059 -0.6105
 3417TIP3    H131742   3.140   4.511   4.900  0.1078  0.1641 -0.7879
 3417TIP3    H231743   3.028   4.535   4.998 -1.4535 -0.2928 -2.4162
 3418TIP3   OH231744   0.052   5.221   6.121 -0.4148 -0.1593 -0.2173
 3418TIP3    H131745  -0.023   5.165   6.137 -0.9032  0.8345  1.0993
 3418TIP3    H231746   0.019   5.290   6.063 -1.0352  1.2809  1.7721
 3419TIP3   OH231747   2.010   2.831  12.674  0.4764 -0.5301 -0.1903
 3419TIP3    H131748   2.089   2.879  12.698  0.8323 -1.5508  0.7308
 3419TIP3    H231749   2.036   2.779  12.597  0.5365 -0.4349 -0.2346
 3420TIP3   OH231750   5.787   5.173   0.866 -0.6880  0.2261  0.2189
 3420TIP3    H131751   5.814   5.132   0.784 -0.0632 -0.0866  0.5795
 3420TIP3    H231752   5.709   5.124   0.893 -0.4687 -0.1386  0.1873
 3421TIP3   OH231753   2.520   6.301  17.544 -0.1471  0.1460 -0.2719
 3421TIP3    H131754   2.573   6.381  17.543 -0.1848  0.1664 -1.0494
 3421TIP3    H231755   2.503   6.282  17.452  0.2392 -1.0116 -0.1254
 3422TIP3   OH231756   5.783   6.029  11.323 -0.2736  0.0436  0.2070
 3422TIP3    H131757   5.843   6.103  11.334 -0.0693 -0.3224  1.9292
 3422TIP3    H231758   5.839   5.952  11.325 -0.7680 -0.3372  2.3876
 3423TIP3   OH231759   0.137   0.020  11.273  0.2364 -0.3454  0.3128
 3423TIP3    H131760   0.226   0.034  11.241  0.4162  1.8807  1.5768
 3423TIP3    H231761   0.144  -0.055  11.332  1.2948 -0.1908  0.4053
 3424TIP3   OH231762   3.188   1.353   2.102 -0.7699  0.3499  0.0574
 3424TIP3    H131763   3.171   1.269   2.059 -1.1087  0.0962  0.6730
 3424TIP3    H231764   3.130   1.353   2.179 -0.0922  0.7355  0.5806
 3425TIP3   OH231765   4.935   1.037  17.223 -0.7905 -0.0089  0.2397
 3425TIP3    H131766   5.017   1.036  17.174 -0.2195 -0.1502  1.1826
 3425TIP3    H231767   4.880   0.971  17.180  0.6972 -2.1401  1.4228
 3426TIP3   OH231768   1.979   1.558   4.532  0.2120 -0.4228 -0.1102
 3426TIP3    H131769   2.059   1.607   4.552 -0.0902 -0.0124  0.0883
 3426TIP3    H231770   1.938   1.544   4.617 -1.4723  1.9914 -0.4538
 3427TIP3   OH231771   4.639   0.656  17.647 -0.1270 -0.0673  0.5301
 3427TIP3    H131772   4.589   0.576  17.632 -0.6955  0.4393 -0.3204
 3427TIP3    H231773   4.645   0.663  17.742 -1.6405 -0.1563  0.6521
 3428TIP3   OH231774   4.815   1.464   4.694  0.7383  0.5300 -0.4933
 3428TIP3    H131775   4.754   1.527   4.731  1.4512 -0.8847  3.5324
 3428TIP3    H231776   4.901   1.503   4.709  1.0582  0.0074 -0.9210
 3429TIP3   OH231777   0.083   4.397  16.351 -0.0457  0.3554 -0.2462
 3429TIP3    H131778   0.038   4.369  16.271  0.9330 -1.7716 -0.1263
 3429TIP3    H231779   0.026   4.368  16.422 -0.1638  0.8378 -0.1395
 3430TIP3   OH231780   5.338   4.754   6.227  0.2698 -0.1894  0.3398
 3430TIP3    H131781   5.379   4.781   6.310 -0.7101  1.0733  0.4385
 3430TIP3    H231782   5.254   4.716   6.253  1.0420 -2.1913  0.0876
 3431TIP3   OH231783   1.581   1.393   1.195 -0.2451  0.0314 -0.7776
 3431TIP3    H131784   1.573   1.359   1.284  1.3709  2.5804  0.4305
 3431TIP3    H231785   1.640   1.331   1.152  1.2138  0.2438  0.8089
 3432TIP3   OH231786   3.402   5.280  15.072  0.7918 -0.2901 -0.6320
 3432TIP3    H131787   3.424   5.186  15.070  0.1747 -0.4373 -0.5852
 3432TIP3    H231788   3.450   5.317  14.998  2.3425 -0.3426  0.2787
 3433TIP3   OH231789   4.734   0.301  12.426  0.2228 -0.3379 -0.2938
 3433TIP3    H131790   4.680   0.237  12.380  0.8137 -0.6272 -0.5949
 3433TIP3    H231791   4.713   0.384  12.384  0.0951 -0.4651 -0.4882
 3434TIP3   OH231792   3.803   6.434  15.759 -0.6810  0.5314 -0.0023
 3434TIP3    H131793   3.795   6.496  15.831  1.8993 -0.6613  1.4450
 3434TIP3    H231794   3.885   6.456  15.717 -1.1607 -0.0980 -1.3237
 3435TIP3   OH231795   3.408   2.144   0.525  0.2180  0.2911  0.2886
 3435TIP3    H131796   3.338   2.174   0.583 -0.7132 -2.4112  0.6973
 3435TIP3    H231797   3.488   2.179   0.565 -0.5231 -0.2204  2.3841
 3436TIP3   OH231798   5.680   2.193   0.205 -0.0583  0.0784  0.7585
 3436TIP3    H131799   5.632   2.255   0.260 -1.2822  1.3533 -1.6067
 3436TIP3    H231800   5.750   2.245   0.165 -0.1224 -0.4432 -0.0488
 3437TIP3   OH231801   3.971   6.719  11.114 -0.2514  0.6114 -0.2996
 3437TIP3    H131802   4.011   6.636  11.139  0.5450  0.9096 -0.5646
 3437TIP3    H231803   3.900   6.695  11.055 -1.4431 -0.0291  1.3102
 3438TIP3   OH231804   3.485   1.880  15.691  0.5175  0.1268  0.2808
 3438TIP3    H131805   3.416   1.880  15.625  0.8683  0.1878 -0.0926
 3438TIP3    H231806   3.520   1.791  15.689  1.3615  0.4483 -0.5181
 3439TIP3   OH231807   4.492   6.624   4.292 -0.7936  0.4108  0.4918
 3439TIP3    H131808   4.459   6.654   4.377  1.1713  1.0110  1.0836
 3439TIP3    H231809   4.586   6.639   4.296 -0.4015 -1.2831 -1.1003
 3440TIP3   OH231810   5.499   1.391   1.301  0.0270 -0.1222  0.0113
 3440TIP3    H131811   5.580   1.373   1.349  2.1593  1.3638 -2.7090
 3440TIP3    H231812   5.506   1.483   1.276 -1.5016 -0.4844 -2.0298
 3441TIP3   OH231813   5.633   3.878  12.175 -0.1361 -0.1198 -1.0623
 3441TIP3    H131814   5.656   3.924  12.256 -0.7802 -0.6343 -0.5694
 3441TIP3    H231815   5.716   3.871  12.127 -0.0573  1.7528 -1.2826
 3442TIP3   OH231816   3.893   1.049  11.663 -0.2911  0.2702 -0.5553
 3442TIP3    H131817   3.949   1.024  11.589  0.4735  1.1214 -0.2834
 3442TIP3    H231818   3.941   1.119  11.706 -1.8031  1.3638 -0.5893
 3443TIP3   OH231819   4.250   1.521   5.851 -0.7657  0.5553 -0.3551
 3443TIP3    H131820   4.204   1.553   5.929 -0.9027 -1.1458  0.3053
 3443TIP3    H231821   4.331   1.482   5.884 -0.5168  0.3866 -1.1245
 3444TIP3   OH231822   5.999   6.394  13.446 -0.0230  0.1696 -0.6625
 3444TIP3    H131823   6.064   6.411  13.379  1.1692  2.6595  0.9955
 3444TIP3    H231824   6.015   6.303  13.472  1.6425  0.1915 -1.4649
 3445TIP3   OH231825   2.643   6.189   0.088  0.0971  0.5230 -0.2096
 3445TIP3    H131826   2.684   6.103   0.091 -2.0989 -0.5651  0.6794
 3445TIP3    H231827   2.605   6.194  -0.000 -0.9636 -0.0532  0.1935
 3446TIP3   OH231828   3.344   1.686  17.210  0.1227 -1.0104  0.1323
 3446TIP3    H131829   3.344   1.629  17.132 -0.1756 -0.0221 -0.6130
 3446TIP3    H231830   3.435   1.688  17.238  0.2300 -1.3919 -0.1740
 3447TIP3   OH231831   2.611   6.733   3.215  0.4728  0.0557  0.1745
 3447TIP3    H131832   2.672   6.673   3.258  1.1943  1.8632  1.8137
 3447TIP3    H231833   2.624   6.817   3.259  0.2337  1.7284 -2.6901
 3448TIP3   OH231834   2.889   3.444  14.075 -0.2683  0.5550  0.7253
 3448TIP3    H131835   2.863   3.536  14.078  0.3476  0.7372  0.4674
 3448TIP3    H231836   2.940   3.431  14.155  2.2326  1.2352 -0.6514
 3449TIP3   OH231837   3.511   6.124   2.468 -0.0907  0.1294  0.7350
 3449TIP3    H131838   3.457   6.159   2.538 -1.6890 -0.2669 -0.2476
 3449TIP3    H231839   3.464   6.147   2.388  0.8138 -0.8910 -0.1199
 3450TIP3   OH231840   6.281   5.335   1.436 -0.5246 -0.0028 -0.2693
 3450TIP3    H131841   6.373   5.359   1.442 -0.5107  0.3793 -1.7562
 3450TIP3    H231842   6.269   5.307   1.345 -1.9468  0.2780 -0.1884
 3451TIP3   OH231843   3.959   0.119  14.505  0.6603  0.0600  0.6889
 3451TIP3    H131844   3.982   0.144  14.416  2.9515  0.7941  1.4181
 3451TIP3    H231845   3.930   0.200  14.546  1.0657  0.0483  1.0122
 3452TIP3   OH231846   3.802   1.254  17.586 -0.0257  0.0425  0.3072
 3452TIP3    H131847   3.748   1.333  17.582  1.2893  0.9335 -1.0992
 3452TIP3    H231848   3.873   1.277  17.646  0.0450 -0.2623  0.3376
 3453TIP3   OH231849   3.893   2.877   0.757 -0.8487  0.2932  0.0454
 3453TIP3    H131850   3.925   2.944   0.697 -0.2086  0.4843  0.5854
 3453TIP3    H231851   3.942   2.798   0.733  0.4170  0.6943  1.1654
 3454TIP3   OH231852   4.290   6.672  12.576 -0.3205  0.4291  0.5143
 3454TIP3    H131853   4.297   6.680  12.671  0.2275 -2.3813  0.7921
 3454TIP3    H231854   4.199   6.647  12.561 -0.0678 -0.4559  0.4329
 3455TIP3   OH231855   5.498   1.052  12.398 -0.3710  0.4840  0.0786
 3455TIP3    H131856   5.548   0.995  12.455 -1.6971 -2.4316 -1.4572
 3455TIP3    H231857   5.535   1.037  12.311 -0.4553  2.3972 -0.3235
 3456TIP3   OH231858   3.482   3.530   6.343  0.1607  0.2002  0.1748
 3456TIP3    H131859   3.495   3.436   6.328  1.1309  0.1011  1.4738
 3456TIP3    H231860   3.565   3.570   6.317  0.5988  0.4118  1.7933
 3457TIP3   OH231861   4.575   1.945   0.736  0.3945  0.2368  0.3732
 3457TIP3    H131862   4.670   1.947   0.729  0.3156  2.9290 -1.5882
 3457TIP3    H231863   4.556   1.869   0.790  3.5131 -2.1349 -1.5514
 3458TIP3   OH231864   6.036   4.100  16.558 -0.5071  0.0563  0.5900
 3458TIP3    H131865   5.959   4.083  16.503 -0.0035 -1.6065  0.3377
 3458TIP3    H231866   6.030   4.035  16.628  0.1238  0.6012  1.1606
 3459TIP3   OH231867   5.606   4.944   4.584  0.2922 -0.4881 -0.0369
 3459TIP3    H131868   5.661   4.939   4.661  0.0822 -0.1428  0.1381
 3459TIP3    H231869   5.618   4.860   4.539  1.1431 -0.3172 -0.1311
 3460TIP3   OH231870   5.484   0.982  11.662 -0.0899 -0.0394  0.1625
 3460TIP3    H131871   5.419   1.027  11.608 -1.9520 -2.3205  0.3406
 3460TIP3    H231872   5.517   1.050  11.722 -1.6177  1.4061 -0.5564
 3461TIP3   OH231873   3.448   6.384   3.978 -0.1695 -0.1644  0.7444
 3461TIP3    H131874   3.453   6.479   3.966 -1.9244 -0.0797  0.4363
 3461TIP3    H231875   3.424   6.373   4.070  2.0921 -0.4330  1.3732
 3462TIP3   OH231876   6.044   3.469   2.074  0.0274  0.1960 -0.1671
 3462TIP3    H131877   5.963   3.429   2.042 -1.1514  2.0116  0.3821
 3462TIP3    H231878   6.106   3.460   2.002 -1.3204  0.5977 -1.4187
 3463TIP3   OH231879   1.639   6.168  14.148  0.3105  0.3616  0.5146
 3463TIP3    H131880   1.573   6.225  14.187 -0.2391 -0.9073  1.5008
 3463TIP3    H231881   1.602   6.140  14.064 -0.2723 -0.0812  0.9162
 3464TIP3   OH231882   5.706   3.705   5.752 -0.3373  0.0598  0.3158
 3464TIP3    H131883   5.640   3.682   5.687 -0.7654  0.7275  0.4994
 3464TIP3    H231884   5.735   3.621   5.788  1.2154 -0.4769 -1.9619
 3465TIP3   OH231885   4.077   0.265   2.322  0.3131 -0.5416 -0.0468
 3465TIP3    H131886   4.065   0.342   2.377 -0.1256 -0.1023 -0.7370
 3465TIP3    H231887   4.166   0.236   2.340 -0.2135 -1.1819  1.8381
 3466TIP3   OH231888   1.562   0.521   5.000 -0.2020 -0.2464 -0.0590
 3466TIP3    H131889   1.526   0.458   5.062 -2.9770  1.4098  0.2197
 3466TIP3    H231890   1.642   0.553   5.042  0.2756 -2.1984  0.6210
 3467TIP3   OH231891   1.946   6.442  13.567 -0.4581 -0.3215  0.1134
 3467TIP3    H131892   2.040   6.423  13.562 -0.4310 -0.1819  0.0877
 3467TIP3    H231893   1.941   6.526  13.612 -0.5913 -0.5162  0.4632
 3468TIP3   OH231894   3.469   4.057  12.478  0.6207 -0.1048  0.3426
 3468TIP3    H131895   3.550   4.008  12.489  2.6066  2.2725 -2.2039
 3468TIP3    H231896   3.411   4.025  12.548  3.1509 -2.9843  1.3268
 3469TIP3   OH231897   3.920   6.641   2.718 -0.0712 -0.0129 -0.6128
 3469TIP3    H131898   3.926   6.574   2.786  0.2353 -0.0157 -0.6385
 3469TIP3    H231899   3.918   6.592   2.636  1.1465  0.0197 -0.6880
 3470TIP3   OH231900   2.869   0.527  14.831  0.3947 -0.4697 -0.3533
 3470TIP3    H131901   2.822   0.494  14.908  0.1246  0.4478 -0.1141
 3470TIP3    H231902   2.959   0.539  14.861  0.6527 -1.5974 -0.6274
 3471TIP3   OH231903   0.496   4.729  15.163  0.2513 -0.5301  0.8820
 3471TIP3    H131904   0.472   4.821  15.154  0.6816 -0.4258  0.7848
 3471TIP3    H231905   0.591   4.728  15.153  0.2323 -1.0047  0.7375
 3472TIP3   OH231906   1.030   1.202  13.807 -0.6700 -0.4409 -0.0623
 3472TIP3    H131907   1.008   1.119  13.851 -1.4541 -1.6767 -2.5439
 3472TIP3    H231908   1.022   1.181  13.713  3.3340  1.2980 -0.9935
 3473TIP3   OH231909   0.583   1.944   0.180 -0.1140 -0.3387  0.0784
 3473TIP3    H131910   0.599   2.022   0.128 -0.5691 -0.5970 -0.4582
 3473TIP3    H231911   0.669   1.919   0.213 -0.0860  0.8891  0.9922
 3474TIP3   OH231912   5.452   0.884  16.761 -0.1946  0.4031 -0.0741
 3474TIP3    H131913   5.381   0.819  16.763 -0.0128  0.1882 -0.4037
 3474TIP3    H231914   5.516   0.851  16.823 -1.0226  1.3620  1.3404
 3475TIP3   OH231915   1.098   0.132   0.152 -0.5260  0.6512  0.2574
 3475TIP3    H131916   1.118   0.068   0.220 -1.2191  0.8372  0.6462
 3475TIP3    H231917   1.047   0.084   0.086 -0.5423  0.6591  0.2641
 3476TIP3   OH231918   2.049   3.599  14.495 -0.5016  0.0608  0.1890
 3476TIP3    H131919   2.065   3.635  14.583  1.3245  0.8936 -0.4227
 3476TIP3    H231920   1.983   3.657  14.457 -0.4909  0.3644  0.6225
 3477TIP3   OH231921   6.399   4.393   2.262 -0.2527 -0.3160  0.3798
 3477TIP3    H131922   6.396   4.459   2.193  1.7394 -0.1853  0.3670
 3477TIP3    H231923   6.408   4.443   2.343  1.5938 -0.5248  0.3436
 3478TIP3   OH231924   6.528   0.600   5.424 -0.2289 -0.1433 -0.0994
 3478TIP3    H131925   6.543   0.684   5.468  0.6257  0.2108 -1.0415
 3478TIP3    H231926   6.441   0.574   5.454 -0.5121  1.0712  0.2249
 3479TIP3   OH231927   0.460   3.987  11.119  0.8064 -0.2867  0.6754
 3479TIP3    H131928   0.434   3.959  11.032 -0.5481 -0.3080  1.0672
 3479TIP3    H231929   0.479   4.081  11.109  1.2069 -0.4109  0.2491
 3480TIP3   OH231930   4.883   6.354  12.022 -0.4473  0.1606 -0.6014
 3480TIP3    H131931   4.960   6.348  12.078 -1.1370 -1.0419  0.2794
 3480TIP3    H231932   4.918   6.362  11.934  0.7544 -1.8962 -0.3934
 3481TIP3   OH231933   3.117   1.613  11.618 -0.1807 -0.2318 -0.1211
 3481TIP3    H131934   3.138   1.581  11.530  1.9659 -1.2180  0.6729
 3481TIP3    H231935   3.038   1.564  11.642  0.6154 -1.8326 -0.5875
 3482TIP3   OH231936   1.681   5.519   1.683  0.1748 -0.6591  0.2387
 3482TIP3    H131937   1.733   5.439   1.690 -0.5898 -1.3567 -1.5209
 3482TIP3    H231938   1.718   5.565   1.607  0.9147  0.9414  1.4979
 3483TIP3   OH231939   3.609   3.139   1.531 -0.3295 -0.1337 -0.1007
 3483TIP3    H131940   3.618   3.132   1.626 -0.9466 -1.3049 -0.1111
 3483TIP3    H231941   3.680   3.084   1.497 -1.1527 -1.1141 -0.2827
 3484TIP3   OH231942   4.560   4.106  16.572 -0.2348  0.1316  0.1844
 3484TIP3    H131943   4.628   4.172  16.576  0.1334  0.0337 -2.4337
 3484TIP3    H231944   4.491   4.145  16.519 -1.0060 -0.7609  0.4920
 3485TIP3   OH231945   0.874   6.344  16.719  0.2247  0.5299 -0.0128
 3485TIP3    H131946   0.814   6.348  16.645 -0.5571  0.8276  0.6342
 3485TIP3    H231947   0.877   6.434  16.752  0.7791  0.4502  0.1599
 3486TIP3   OH231948   4.656   2.359   1.675  0.9237 -0.4004 -0.3550
 3486TIP3    H131949   4.744   2.369   1.638  1.9985 -0.8682  1.8504
 3486TIP3    H231950   4.635   2.445   1.711 -0.4328  0.2615 -2.5639
 3487TIP3   OH231951   0.977   4.104  12.352 -0.1239 -0.6930 -0.6110
 3487TIP3    H131952   0.965   4.093  12.447 -1.4117 -1.2679 -0.8182
 3487TIP3    H231953   1.070   4.085  12.338  0.2354  0.0151  0.6123
 3488TIP3   OH231954   4.420   3.288  13.711  0.1345 -0.1038 -0.4683
 3488TIP3    H131955   4.336   3.323  13.740 -0.4281 -0.6415 -1.3811
 3488TIP3    H231956   4.472   3.280  13.791 -1.6778 -2.4823  0.5942
 3489TIP3   OH231957   5.332   5.394  11.310  0.4072 -0.2994 -0.2166
 3489TIP3    H131958   5.257   5.444  11.343  0.6270  0.1740 -0.4241
 3489TIP3    H231959   5.400   5.459  11.297  1.6295 -1.0200  2.1054
 3490TIP3   OH231960   0.789   6.141  11.768  0.7689  0.0370  0.7138
 3490TIP3    H131961   0.722   6.073  11.761  0.1262  0.8102 -1.5728
 3490TIP3    H231962   0.864   6.106  11.721  0.5116  0.7703 -0.2774
 3491TIP3   OH231963   4.491   5.816  11.171 -0.1156 -0.2769 -0.4230
 3491TIP3    H131964   4.408   5.778  11.197 -0.1941 -0.6306 -1.1721
 3491TIP3    H231965   4.468   5.880  11.103  0.1574  0.1165 -0.1534
 3492TIP3   OH231966   0.130   3.754  15.570  0.2328 -0.2569 -0.9283
 3492TIP3    H131967   0.221   3.765  15.598  0.0450  0.1127 -0.4468
 3492TIP3    H231968   0.101   3.676  15.615  0.1489 -0.0695 -0.6568
 3493TIP3   OH231969   1.896   2.793   1.809 -0.2864 -0.4083 -0.6586
 3493TIP3    H131970   1.892   2.796   1.905 -0.2503  0.0842 -0.6746
 3493TIP3    H231971   1.971   2.846   1.786  0.5820 -1.6849 -0.9009
 3494TIP3   OH231972   1.488   3.593   0.732  0.3086 -0.2251  0.3770
 3494TIP3    H131973   1.469   3.679   0.695  0.4047 -0.3950 -0.0724
 3494TIP3    H231974   1.582   3.596   0.752  0.3751 -0.3252  0.0876
 3495TIP3   OH231975   5.872   3.062   1.879 -0.6696  0.0735  0.1938
 3495TIP3    H131976   5.883   3.141   1.932 -0.5190  0.2086 -0.0373
 3495TIP3    H231977   5.781   3.036   1.893 -0.3325 -0.5442  1.4194
 3496TIP3   OH231978   2.168   2.786   1.677 -0.0916 -0.9004  0.3236
 3496TIP3    H131979   2.193   2.704   1.721 -0.6381 -1.2521 -0.0078
 3496TIP3    H231980   2.252   2.827   1.654  0.2549 -2.6225 -1.8310
 3497TIP3   OH231981   2.759   5.096   1.262  0.3062 -0.0514  0.0478
 3497TIP3    H131982   2.698   5.042   1.313 -0.9657 -0.5979 -1.9144
 3497TIP3    H231983   2.822   5.128   1.326 -0.2573 -1.9860  1.6820
 3498TIP3   OH231984   3.650   3.035   0.102  0.5214 -0.0873 -0.1313
 3498TIP3    H131985   3.662   3.094   0.176 -1.6142 -0.2842  0.4264
 3498TIP3    H231986   3.637   3.093   0.027  1.3909  0.1107 -0.1402
 3499TIP3   OH231987   2.472   4.899  12.513  0.3984 -0.0253  0.2584
 3499TIP3    H131988   2.422   4.908  12.593  0.4892 -0.4022  0.3584
 3499TIP3    H231989   2.407   4.903  12.443  0.2254 -0.5657  0.3887
 3500TIP3   OH231990   3.813   6.568  17.450  0.2689  0.4473 -0.5945
 3500TIP3    H131991   3.719   6.572  17.462  0.1835 -0.9367 -0.6162
 3500TIP3    H231992   3.846   6.524  17.528  0.6111 -1.1557 -1.5806
 3501TIP3   OH231993   5.752   5.449  16.810  0.6536  0.1725  0.0906
 3501TIP3    H131994   5.801   5.369  16.795  2.0719  1.4338 -2.7642
 3501TIP3    H231995   5.779   5.478  16.897  2.0310 -1.1620  0.1427
 3502TIP3   OH231996   1.237   1.960  14.750 -0.1080  0.1890 -0.1969
 3502TIP3    H131997   1.295   2.032  14.776 -0.0299 -0.5477  1.8745
 3502TIP3    H231998   1.262   1.888  14.808 -4.5451  0.4830  2.5714
 3503TIP3   OH231999   3.448   3.090  12.021 -0.0009  0.2470  0.2537
 3503TIP3    H132000   3.503   3.013  12.003 -0.0654  0.9842 -4.1929
 3503TIP3    H232001   3.361   3.054  12.040  0.5421 -0.7840  0.8649
 3504TIP3   OH232002   1.142   3.136   0.116  0.4280  0.4426  0.0079
 3504TIP3    H132003   1.236   3.151   0.117  0.5635 -0.2021 -0.9226
 3504TIP3    H232004   1.122   3.096   0.201  1.3116 -1.0763 -0.4702
 3505TIP3   OH232005   0.568   2.918  17.610 -0.0852 -0.0292 -0.0914
 3505TIP3    H132006   0.517   2.910  17.690  0.6943 -0.6607  0.3556
 3505TIP3    H232007   0.554   3.009  17.582 -1.0239 -0.0444  0.2981
 3506TIP3   OH232008   4.430   2.731   3.407  0.0837  0.5353  0.0292
 3506TIP3    H132009   4.482   2.789   3.462  2.3000 -1.4200  0.1447
 3506TIP3    H232010   4.414   2.654   3.461 -0.2455 -0.1908 -1.0613
 3507TIP3   OH232011   0.251   5.728   5.201 -0.1494 -0.2741 -0.0134
 3507TIP3    H132012   0.185   5.661   5.185 -0.5377  0.5766 -2.4932
 3507TIP3    H232013   0.202   5.810   5.200  0.1663  0.1240  3.9101
 3508TIP3   OH232014   0.873   1.273   0.050  0.0454 -0.0373 -0.9253
 3508TIP3    H132015   0.816   1.264   0.127  0.8666 -0.8991 -0.3861
 3508TIP3    H232016   0.864   1.364   0.023 -0.7017  0.1270 -0.1555
 3509TIP3   OH232017   2.769   4.176  12.816  0.6970  0.1752  0.4848
 3509TIP3    H132018   2.813   4.096  12.789  0.5796  0.5463 -0.8367
 3509TIP3    H232019   2.822   4.247  12.781 -0.2625  0.6494 -0.0580
 3510TIP3   OH232020   3.173   0.625  11.264  0.3269  0.1140  0.2178
 3510TIP3    H132021   3.200   0.569  11.191  2.2318  0.3000  0.7406
 3510TIP3    H232022   3.235   0.698  11.263 -2.5991  2.8558 -1.0286
 3511TIP3   OH232023   5.817   3.201  13.236  0.5206  0.4122  0.1577
 3511TIP3    H132024   5.824   3.135  13.168  1.1339  0.1893  0.4341
 3511TIP3    H232025   5.906   3.234  13.247  0.4078  0.5218  0.7748
 3512TIP3   OH232026   5.679   2.616   4.325 -0.1164 -0.1386  0.1104
 3512TIP3    H132027   5.713   2.616   4.415 -0.3755  1.8142  0.2581
 3512TIP3    H232028   5.590   2.581   4.333  0.3570 -1.3176  0.3765
 3513TIP3   OH232029   0.051   4.610   1.503 -0.8095 -0.0271  0.0935
 3513TIP3    H132030   0.099   4.529   1.486  1.4057  1.5288 -1.5782
 3513TIP3    H232031  -0.028   4.603   1.450 -0.1342 -0.6579 -0.8494
 3514TIP3   OH232032   4.870   1.037   4.499  0.2359 -0.0491  0.4749
 3514TIP3    H132033   4.857   0.981   4.423  0.1991  2.6305 -1.6253
 3514TIP3    H232034   4.789   1.029   4.549  0.6196 -2.5610  0.8534
 3515TIP3   OH232035   2.280   4.227   0.439 -0.2628 -0.8427  0.3337
 3515TIP3    H132036   2.354   4.197   0.386 -1.2608 -2.0468 -0.4326
 3515TIP3    H232037   2.226   4.278   0.378 -0.2303 -0.2350  0.8053
 3516TIP3   OH232038   4.443   0.435  12.324  0.1557  0.0588  0.6593
 3516TIP3    H132039   4.419   0.346  12.351  0.6221 -0.1814  0.2946
 3516TIP3    H232040   4.433   0.488  12.403  0.9393 -0.5238  1.1618
 3517TIP3   OH232041   2.182   5.494   0.708 -0.6173  0.1995  0.0520
 3517TIP3    H132042   2.218   5.456   0.788 -0.9528  0.1192  0.1652
 3517TIP3    H232043   2.132   5.570   0.737 -0.2865  0.4911 -0.1350
 3518TIP3   OH232044   6.447   0.191  16.624 -0.4632  0.0856  0.1643
 3518TIP3    H132045   6.539   0.189  16.600 -0.8368 -1.0507 -1.3372
 3518TIP3    H232046   6.443   0.142  16.706  0.2432  0.0266  0.1685
 3519TIP3   OH232047   3.671   3.943   4.914 -0.4305 -0.6728 -0.3599
 3519TIP3    H132048   3.684   3.858   4.956 -1.3593 -0.8808 -0.4781
 3519TIP3    H232049   3.679   4.007   4.985  0.5014 -0.8328 -0.3103
 3520TIP3   OH232050   5.873   1.013  14.681  0.3966 -0.3537 -0.0062
 3520TIP3    H132051   5.866   1.103  14.714  0.8474  0.9564 -3.1517
 3520TIP3    H232052   5.783   0.981  14.681  0.0966  0.4550  0.2619
 3521TIP3   OH232053   0.944   2.881  12.879  0.0561  0.5955  0.4503
 3521TIP3    H132054   0.946   2.790  12.910  0.2196 -0.1121 -1.4923
 3521TIP3    H232055   1.034   2.900  12.855 -0.4006  0.2186 -1.8426
 3522TIP3   OH232056   4.248   6.656  12.881  0.2214  0.5190  0.0337
 3522TIP3    H132057   4.207   6.650  12.967 -0.1021 -0.8580 -0.1908
 3522TIP3    H232058   4.335   6.692  12.899  0.8977 -1.5060  1.2262
 3523TIP3   OH232059   4.886   5.498  16.399  0.4565  0.7674  0.1222
 3523TIP3    H132060   4.906   5.561  16.467  0.8304  0.2907  0.4589
 3523TIP3    H232061   4.893   5.548  16.317 -0.7893  1.5411  0.4610
 3524TIP3   OH232062   4.738   1.719  11.193 -0.3222 -0.0756  0.2943
 3524TIP3    H132063   4.708   1.675  11.113 -1.6296 -1.6912  1.5929
 3524TIP3    H232064   4.833   1.724  11.183 -0.5428  0.9167 -1.8838
 3525TIP3   OH232065   5.097   0.256   1.489  0.7592 -0.3951 -0.3627
 3525TIP3    H132066   5.181   0.245   1.445  1.3908  1.5209  0.2979
 3525TIP3    H232067   5.111   0.222   1.578  0.1052 -2.2653 -0.9288
 3526TIP3   OH232068   2.434   1.042  12.545 -0.4873 -0.1126 -0.4585
 3526TIP3    H132069   2.417   0.998  12.462 -2.8675  0.9379 -0.6132
 3526TIP3    H232070   2.364   1.012  12.603  2.2620 -2.4403  1.9464
 3527TIP3   OH232071   1.419   1.161   5.289  0.2176  0.0991 -0.2322
 3527TIP3    H132072   1.455   1.206   5.365  0.7396 -0.5441 -0.0835
 3527TIP3    H232073   1.420   1.227   5.219  0.9168  0.3395 -0.0077
 3528TIP3   OH232074   4.181   1.045  14.546 -0.1922 -0.1260  0.1978
 3528TIP3    H132075   4.276   1.042  14.534 -0.3045 -0.4750 -0.6788
 3528TIP3    H232076   4.166   1.002  14.630  0.3744 -0.6553  0.0361
 3529TIP3   OH232077   0.061   5.514   2.405  0.1661 -0.6954 -0.1743
 3529TIP3    H132078   0.108   5.590   2.441 -3.4423  0.8960  1.7356
 3529TIP3    H232079   0.057   5.452   2.477 -1.6978 -0.1968  0.2135
 3530TIP3   OH232080   5.300   5.726  13.261  0.3334 -0.7275  0.3284
 3530TIP3    H132081   5.263   5.665  13.325  1.3838 -0.2902  1.3821
 3530TIP3    H232082   5.250   5.807  13.273  0.4782 -0.6697  0.5414
 3531TIP3   OH232083   4.736   5.502   5.983  0.3644 -0.2417 -0.2312
 3531TIP3    H132084   4.787   5.521   5.904 -1.8225  1.2358 -1.4222
 3531TIP3    H232085   4.694   5.418   5.965  0.4065 -0.2357 -0.3573
 3532TIP3   OH232086   3.602   5.329  14.010  0.1654 -0.0036  0.4394
 3532TIP3    H132087   3.541   5.325  13.936 -0.1098  3.3517  0.3239
 3532TIP3    H232088   3.688   5.336  13.969  0.5065 -2.4376  0.5866
 3533TIP3   OH232089   3.264   5.343  12.515  0.3510  0.2671  0.3049
 3533TIP3    H132090   3.176   5.372  12.489  0.2865 -0.5359 -0.4167
 3533TIP3    H232091   3.287   5.275  12.452  1.7971  0.9626  0.0265
 3534TIP3   OH232092   1.517   2.498   4.646  0.0002 -0.0167 -0.5111
 3534TIP3    H132093   1.520   2.520   4.553  0.9132 -1.5288 -0.8680
 3534TIP3    H232094   1.492   2.406   4.649  0.4827 -0.1336  0.7127
 3535TIP3   OH232095   6.547   0.917  17.677  0.0899 -0.4174  0.2181
 3535TIP3    H132096   6.456   0.943  17.691 -0.5696 -2.6753  0.4634
 3535TIP3    H232097   6.567   0.859  17.751  2.3499  1.4065  1.1585
 3536TIP3   OH232098   4.491   2.576   5.037  0.3089 -0.0508  0.3215
 3536TIP3    H132099   4.505   2.615   5.124 -0.3745  0.6931  0.1042
 3536TIP3    H232100   4.554   2.504   5.033 -0.8542 -1.2845  2.1698
 3537TIP3   OH232101   3.447   2.053   0.047  0.1513 -0.0508  0.1838
 3537TIP3    H132102   3.483   2.097   0.124  0.5089 -0.5640  0.3150
 3537TIP3    H232103   3.516   1.994   0.018  0.0762  0.2496 -0.6285
 3538TIP3   OH232104   4.378   5.145   5.751 -0.2670 -0.3116  0.1806
 3538TIP3    H132105   4.299   5.095   5.769  0.3219 -1.0419  0.7650
 3538TIP3    H232106   4.442   5.114   5.814  0.6497 -0.0857 -0.6026
 3539TIP3   OH232107   0.091   0.022   3.498  0.3816  1.0686 -0.6813
 3539TIP3    H132108   0.015   0.057   3.544  1.0426 -0.2741  1.5953
 3539TIP3    H232109   0.165   0.068   3.535  0.8888  0.5208 -0.9890
 3540TIP3   OH232110   3.898   5.539   2.092  0.1182  0.1093 -0.1471
 3540TIP3    H132111   3.921   5.630   2.111 -0.6633  0.4453 -0.7496
 3540TIP3    H232112   3.831   5.545   2.024 -1.0272 -0.8604  0.8513
 3541TIP3   OH232113   6.108   6.497  11.622  0.2567  0.0317 -0.0461
 3541TIP3    H132114   6.050   6.502  11.546 -0.9123  0.4498  0.8427
 3541TIP3    H232115   6.117   6.404  11.640 -0.9437 -0.0070  0.3899
 3542TIP3   OH232116   6.218   1.946   0.163  0.5460 -0.0359 -0.4517
 3542TIP3    H132117   6.131   1.976   0.136  0.8975  0.7027 -0.8042
 3542TIP3    H232118   6.202   1.881   0.231 -0.2396  1.2192  0.5957
 3543TIP3   OH232119   1.585   0.545  14.288  0.5116  0.0442 -0.3981
 3543TIP3    H132120   1.540   0.521  14.207 -1.6644 -0.0246  0.7612
 3543TIP3    H232121   1.546   0.628  14.314  0.8507 -0.1576  0.8245
 3544TIP3   OH232122   4.537   2.220   5.813 -0.7071 -0.5264 -0.3149
 3544TIP3    H132123   4.588   2.254   5.740 -1.6068  1.2052 -0.1972
 3544TIP3    H232124   4.453   2.266   5.808 -1.2165 -1.2099  1.1376
 3545TIP3   OH232125   2.911   5.862   5.581 -0.3160 -0.2619  0.4687
 3545TIP3    H132126   3.001   5.850   5.549 -0.9717  0.5029 -1.8563
 3545TIP3    H232127   2.888   5.951   5.555 -1.5617 -0.2278  1.5798
 3546TIP3   OH232128   3.002   0.061  15.268  0.1015  0.3762  0.0119
 3546TIP3    H132129   2.919   0.094  15.301 -0.5795 -0.8387 -0.3974
 3546TIP3    H232130   3.014   0.104  15.184 -0.4921  0.0168 -0.2607
 3547TIP3   OH232131   3.890   5.735  11.315  0.0070 -0.3040  0.2843
 3547TIP3    H132132   3.885   5.758  11.222 -0.6264  1.0954  0.6300
 3547TIP3    H232133   3.968   5.680  11.323 -0.1453 -0.7531 -1.1267
 3548TIP3   OH232134   0.574   3.843  14.679  0.3571  0.2140 -0.2862
 3548TIP3    H132135   0.597   3.794  14.758 -0.1794  0.2978 -0.0778
 3548TIP3    H232136   0.621   3.926  14.688 -2.0653  1.5226  1.4654
 3549TIP3   OH232137   5.098   3.008   3.368  0.3341  0.5285  0.7120
 3549TIP3    H132138   5.141   3.091   3.390 -0.8673  0.7463  2.4309
 3549TIP3    H232139   5.005   3.026   3.374  0.0389 -1.0440  1.6066
 3550TIP3   OH232140   0.081   0.379   4.360 -0.4130 -0.2047 -0.0521
 3550TIP3    H132141   0.091   0.375   4.455 -0.8092 -1.7353 -0.0545
 3550TIP3    H232142   0.022   0.453   4.345 -0.8572 -0.3491  0.9390
 3551TIP3   OH232143   3.220   0.847   2.025  0.4194  0.0044  0.7255
 3551TIP3    H132144   3.196   0.754   2.025 -0.5489  0.2241 -0.3801
 3551TIP3    H232145   3.299   0.851   1.970  2.0218 -0.4672  2.8538
 3552TIP3   OH232146   0.818   5.050   1.306 -0.0027  0.2897  0.2920
 3552TIP3    H132147   0.848   5.138   1.282 -0.0107  0.1541 -0.2193
 3552TIP3    H232148   0.863   4.992   1.245 -1.1513  0.0631 -0.3689
 3553TIP3   OH232149   0.160   1.328  16.606 -0.2523  0.1171 -0.7722
 3553TIP3    H132150   0.070   1.345  16.635 -0.3972 -0.3715 -0.9129
 3553TIP3    H232151   0.152   1.251  16.549  0.2575  0.0616 -0.7740
 3554TIP3   OH232152   4.878   2.580  12.608 -0.1697  0.3078  0.3664
 3554TIP3    H132153   4.931   2.595  12.686 -1.0182  1.3588  0.7591
 3554TIP3    H232154   4.852   2.668  12.579  0.2840 -0.0441 -1.2227
 3555TIP3   OH232155   5.961   4.679  16.017 -0.0419  0.2529 -0.6707
 3555TIP3    H132156   5.963   4.583  16.011 -1.9864  0.1169 -0.1531
 3555TIP3    H232157   5.952   4.696  16.111 -1.6335  0.8117 -0.8837
 3556TIP3   OH232158   3.368   3.364   3.662  0.0674  0.4945  0.0940
 3556TIP3    H132159   3.367   3.270   3.646  1.6367  0.5686 -0.6073
 3556TIP3    H232160   3.315   3.376   3.741  0.6308 -1.0865  0.7421
 3557TIP3   OH232161   2.689   3.841   1.745  0.2942 -0.3202 -0.1660
 3557TIP3    H132162   2.606   3.806   1.776  0.0471 -0.7178 -1.2342
 3557TIP3    H232163   2.754   3.808   1.808 -0.4237  0.6352  1.1207
 3558TIP3   OH232164   6.186   6.442   3.579  0.4761 -0.0102  0.2548
 3558TIP3    H132165   6.179   6.473   3.489 -1.5418  0.5665  0.5821
 3558TIP3    H232166   6.256   6.376   3.575 -0.0588 -0.5424 -1.8797
 3559TIP3   OH232167   1.986   3.503   1.804 -0.0492  0.0226 -0.1526
 3559TIP3    H132168   2.037   3.477   1.882  3.3532  3.2737 -0.9759
 3559TIP3    H232169   1.895   3.489   1.829  0.9176 -0.1512  4.0290
 3560TIP3   OH232170   4.180   4.570  15.991 -0.4619  0.6593  0.1747
 3560TIP3    H132171   4.236   4.612  16.056  0.5252  1.3458 -1.0880
 3560TIP3    H232172   4.178   4.631  15.917 -2.2035  0.2690 -0.1543
 3561TIP3   OH232173   2.809   4.077   0.404  0.1107 -0.0220 -0.4298
 3561TIP3    H132174   2.783   4.099   0.315 -0.3751 -0.8496 -0.5045
 3561TIP3    H232175   2.889   4.025   0.394 -0.5375 -1.0474 -0.4709
 3562TIP3   OH232176   5.714   0.074   0.634  0.2385 -0.0127  0.8458
 3562TIP3    H132177   5.677   0.108   0.553  1.0695 -1.8835 -0.3534
 3562TIP3    H232178   5.641   0.079   0.697 -0.7474  0.4106 -0.2958
 3563TIP3   OH232179   3.109   6.292  16.643  0.2045 -0.3666  0.0256
 3563TIP3    H132180   3.127   6.255  16.556 -2.3482 -0.6346 -0.4683
 3563TIP3    H232181   3.154   6.377  16.643 -1.3700  0.5617 -2.3896
 3564TIP3   OH232182   4.217   5.176   1.655  0.2528  0.5544  0.0784
 3564TIP3    H132183   4.147   5.113   1.673  0.4701  0.5643  1.0086
 3564TIP3    H232184   4.276   5.130   1.595  0.7052 -0.3635  1.1814
 3565TIP3   OH232185   5.919   1.218   2.954  0.2508  0.5165 -0.5227
 3565TIP3    H132186   5.886   1.303   2.924  0.8255  0.5454 -1.0822
 3565TIP3    H232187   5.892   1.213   3.045  0.7000  1.5527 -0.3206
 3566TIP3   OH232188   2.662   2.225  16.294 -0.1079  0.4743 -0.0644
 3566TIP3    H132189   2.670   2.313  16.258  0.4080  1.0375  1.3593
 3566TIP3    H232190   2.748   2.185  16.280 -0.7138 -0.3049 -1.8704
 3567TIP3   OH232191   3.628   4.245  16.573 -0.2763 -0.2253  0.1155
 3567TIP3    H132192   3.626   4.154  16.604  1.1394 -0.3078  0.0083
 3567TIP3    H232193   3.627   4.297  16.653 -0.5148 -0.3368  0.1895
 3568TIP3   OH232194   4.798   3.251   0.854  0.1615 -0.2666  0.3030
 3568TIP3    H132195   4.816   3.334   0.811 -1.2875 -0.5294 -0.9038
 3568TIP3    H232196   4.824   3.184   0.790  2.1047 -0.8011  1.5846
 3569TIP3   OH232197   0.763   6.338  13.864 -0.9134  0.1504  0.2934
 3569TIP3    H132198   0.706   6.391  13.809 -1.7674 -0.0662  0.9273
 3569TIP3    H232199   0.802   6.274  13.805 -1.3826  0.2711 -0.1524
 3570TIP3   OH232200   0.382   1.564   4.979 -0.0090  0.4742  0.0747
 3570TIP3    H132201   0.287   1.568   4.987  0.0535 -0.0140  1.1980
 3570TIP3    H232202   0.402   1.470   4.979  0.3467  0.4848 -2.1008
 3571TIP3   OH232203   5.640   5.119  13.234  0.4769  0.6170 -0.5544
 3571TIP3    H132204   5.660   5.175  13.309 -0.0257  1.5013 -1.0621
 3571TIP3    H232205   5.644   5.030  13.269  0.7184  0.9890  0.4078
 3572TIP3   OH232206   5.898   5.498  14.923  0.0085  0.2876 -0.2280
 3572TIP3    H132207   5.974   5.481  14.979  1.2980  1.7162 -1.4767
 3572TIP3    H232208   5.921   5.460  14.838 -0.5846  0.8951 -0.6725
 3573TIP3   OH232209   6.675   4.944  10.598  0.0350 -0.1497  0.1694
 3573TIP3    H132210   6.762   4.917  10.567  0.1400  0.4232 -0.0443
 3573TIP3    H232211   6.643   5.002  10.530 -1.5735 -2.2656 -1.0082
 3574TIP3   OH232212   3.924   4.597   1.097 -0.3625  0.5026 -0.3608
 3574TIP3    H132213   3.849   4.653   1.079  0.6655  2.0132 -0.1534
 3574TIP3    H232214   3.991   4.657   1.130  0.4938 -0.9908  0.7442
 3575TIP3   OH232215   3.627   5.619   5.805  0.0942  0.2560  0.0861
 3575TIP3    H132216   3.708   5.670   5.812  1.1543 -1.0105 -1.7890
 3575TIP3    H232217   3.564   5.679   5.766  0.1312  1.2090  1.4035
 3576TIP3   OH232218   4.267   4.223  16.776  0.0743 -0.3233 -0.4995
 3576TIP3    H132219   4.241   4.193  16.689 -1.1907 -2.9137  0.6628
 3576TIP3    H232220   4.187   4.262  16.813 -0.2989 -1.9156  0.5034
 3577TIP3   OH232221   5.633   6.474  11.598  0.0982  0.4676  0.3993
 3577TIP3    H132222   5.585   6.552  11.626 -0.6876  0.2287 -0.2390
 3577TIP3    H232223   5.678   6.501  11.518 -1.3090 -0.1128 -0.6115
 3578TIP3   OH232224   5.673   5.707  13.158 -0.4060 -0.3184 -0.5624
 3578TIP3    H132225   5.651   5.714  13.250 -0.6610 -1.1484 -0.5455
 3578TIP3    H232226   5.734   5.632  13.153  2.4671  1.8404 -0.6123
 3579TIP3   OH232227   4.904   2.008  16.747  0.5380  0.0199 -0.5768
 3579TIP3    H132228   4.863   1.994  16.662  1.6926 -1.6265 -0.9085
 3579TIP3    H232229   4.911   1.921  16.786  0.9769  0.6212  0.7654
 3580TIP3   OH232230   6.584   2.122  14.458  0.1025 -0.6926 -0.6950
 3580TIP3    H132231   6.651   2.107  14.525 -1.3679  0.1710  1.0468
 3580TIP3    H232232   6.565   2.216  14.464 -1.8678 -1.0720 -0.5324
 3581TIP3   OH232233   1.345   6.257  15.114 -0.1374 -0.3997 -0.0845
 3581TIP3    H132234   1.306   6.325  15.059  0.0096 -0.5159 -0.3360
 3581TIP3    H232235   1.431   6.242  15.076 -0.6700 -1.6713 -0.8689
 3582TIP3   OH232236   5.111   6.013  11.574  0.0358 -0.2464  0.4875
 3582TIP3    H132237   5.024   5.981  11.552  0.4395 -1.2255  0.2635
 3582TIP3    H232238   5.171   5.945  11.542  0.8395  0.0482  1.3260
 3583TIP3   OH232239   5.678   5.488  12.427  0.3564  0.6850  0.4533
 3583TIP3    H132240   5.733   5.421  12.469  0.4219  0.0174 -0.6675
 3583TIP3    H232241   5.677   5.560  12.490  0.6608 -0.1839  1.4896
 3584TIP3   OH232242   6.630   4.468   3.796 -0.5780 -0.1564 -0.8001
 3584TIP3    H132243   6.572   4.439   3.726 -0.4014 -0.9511 -0.6332
 3584TIP3    H232244   6.673   4.546   3.762 -1.1314 -0.0408 -1.2397
 3585TIP3   OH232245   5.552   5.682   2.968 -0.4722 -0.0474 -0.3910
 3585TIP3    H132246   5.620   5.620   2.942 -0.1175  0.1184  0.1161
 3585TIP3    H232247   5.499   5.694   2.889 -2.7015 -3.6393  0.3408
 3586TIP3   OH232248   5.178   1.907  16.356 -0.2599 -0.5121  0.1331
 3586TIP3    H132249   5.141   1.973  16.414  0.4480  0.6708 -0.7177
 3586TIP3    H232250   5.237   1.856  16.412 -1.7007 -1.2282  1.0638
 3587TIP3   OH232251   0.730   3.608  14.361 -0.2219 -0.1848 -0.0938
 3587TIP3    H132252   0.679   3.535  14.396  0.2094 -0.1575  0.6093
 3587TIP3    H232253   0.765   3.575  14.278 -0.3748 -0.6317  0.0145
 3588TIP3   OH232254   4.352   4.683   5.306 -0.1431  0.0445  0.2691
 3588TIP3    H132255   4.373   4.759   5.252 -0.8678  0.7405  0.9430
 3588TIP3    H232256   4.361   4.608   5.247  2.3060  0.4525  0.0224
 3589TIP3   OH232257   5.750   6.421   1.974  0.1048  0.5012 -0.4035
 3589TIP3    H132258   5.816   6.381   1.918 -0.7043 -1.0395 -0.3183
 3589TIP3    H232259   5.759   6.515   1.959  0.3278  0.1828 -2.6637
 3590TIP3   OH232260   2.676   0.925   4.540  0.5167  0.6058  0.1183
 3590TIP3    H132261   2.623   0.959   4.467 -0.0658 -0.9512 -0.2385
 3590TIP3    H232262   2.698   1.002   4.592 -3.0337  1.2652  0.9103
 3591TIP3   OH232263   0.090   0.292   0.597 -0.2283  0.4747 -0.2922
 3591TIP3    H132264   0.011   0.338   0.626  0.8731  2.5236 -0.3627
 3591TIP3    H232265   0.134   0.266   0.677  0.2975  1.6418 -0.1891
 3592TIP3   OH232266   0.089   3.556  13.367  0.9564 -0.3062  0.5196
 3592TIP3    H132267   0.048   3.632  13.326 -0.1200 -0.5484  1.1111
 3592TIP3    H232268   0.163   3.536  13.311  0.6293  0.5311 -0.2382
 3593TIP3   OH232269   6.708   6.268  14.737  0.2664 -0.1793 -0.3179
 3593TIP3    H132270   6.717   6.362  14.719 -0.0327 -0.1367 -0.2398
 3593TIP3    H232271   6.635   6.240  14.683  0.2453 -0.3321 -0.2094
 3594TIP3   OH232272   4.122   1.579   1.207  0.3665  0.5378 -0.0138
 3594TIP3    H132273   4.093   1.519   1.277  0.0807  0.6859 -0.0009
 3594TIP3    H232274   4.041   1.604   1.163  0.3496  1.7897  0.6883
 3595TIP3   OH232275   3.347   5.689  17.053  0.0742  0.4941 -0.3690
 3595TIP3    H132276   3.335   5.669  17.146  0.6334 -2.4183 -0.8087
 3595TIP3    H232277   3.296   5.621  17.008 -1.6336  2.8793 -2.2649
 3596TIP3   OH232278   3.497   0.552  15.523  0.0845 -0.6740 -0.7181
 3596TIP3    H132279   3.420   0.530  15.470 -0.0736 -2.9164  0.3022
 3596TIP3    H232280   3.497   0.487  15.593  0.6938  1.6679  1.6476
 3597TIP3   OH232281   6.383   2.583  11.393 -0.2213  0.0747 -0.3677
 3597TIP3    H132282   6.469   2.567  11.432 -0.1935 -2.8701 -1.3733
 3597TIP3    H232283   6.327   2.606  11.467  0.6700 -1.5386  0.8887
 3598TIP3   OH232284   1.930   4.366  17.133 -0.1003 -0.2256 -0.1167
 3598TIP3    H132285   1.872   4.297  17.164  1.0761 -0.3945  1.8382
 3598TIP3    H232286   2.004   4.320  17.094  0.3151 -0.0857  0.4867
 3599TIP3   OH232287   3.105   2.168  16.028  0.1651 -0.0414 -0.4547
 3599TIP3    H132288   3.135   2.234  15.965 -0.5551  2.2044  1.4061
 3599TIP3    H232289   3.019   2.140  15.996  0.1652  0.4746 -0.9073
 3600TIP3   OH232290   3.009   6.399   1.598 -0.0305 -0.2902  0.4107
 3600TIP3    H132291   3.064   6.469   1.632  3.1694 -2.9244  1.1560
 3600TIP3    H232292   3.066   6.348   1.541 -1.8883 -2.7463  0.5389
 3601TIP3   OH232293   3.437   5.301  15.381 -0.5959 -0.2270  0.4589
 3601TIP3    H132294   3.405   5.226  15.330  1.5075 -0.5490 -0.5026
 3601TIP3    H232295   3.444   5.372  15.317 -2.0486  0.6852  1.2582
 3602TIP3   OH232296   3.591   0.257  12.398 -0.3838 -0.1800  0.3937
 3602TIP3    H132297   3.595   0.198  12.323  2.0972  0.2731  0.0960
 3602TIP3    H232298   3.505   0.300  12.390 -0.4557 -0.6335 -1.7809
 3603TIP3   OH232299   5.551   6.043  17.361  0.2758 -0.1184  0.4234
 3603TIP3    H132300   5.547   6.032  17.266  1.1577  2.3335  0.0239
 3603TIP3    H232301   5.597   5.965  17.392  0.8163 -0.5225 -1.2900
 3604TIP3   OH232302   3.891   4.629  13.397  0.1747 -0.5787  0.0593
 3604TIP3    H132303   3.916   4.556  13.341  0.8067 -1.8657  1.9386
 3604TIP3    H232304   3.867   4.699  13.336  2.1970 -1.4108 -1.8163
 3605TIP3   OH232305   2.656   2.298  14.025 -0.0592  0.1989  0.1444
 3605TIP3    H132306   2.676   2.390  14.010  2.0988 -0.3512 -0.8343
 3605TIP3    H232307   2.719   2.251  13.971 -0.8699 -1.8739  0.8846
 3606TIP3   OH232308   4.217   6.410  12.762 -0.0511 -0.0495 -0.6437
 3606TIP3    H132309   4.203   6.502  12.787  0.4674 -0.4028  1.1096
 3606TIP3    H232310   4.228   6.364  12.845 -1.1322 -1.8651 -1.4333
 3607TIP3   OH232311   5.337   2.880   5.957  0.1053  0.1302  0.3067
 3607TIP3    H132312   5.377   2.918   5.879  0.5931 -1.4045 -0.2254
 3607TIP3    H232313   5.376   2.929   6.030  1.6886 -0.1540 -0.2918
 3608TIP3   OH232314   3.507   0.068  15.709 -0.2103 -0.4620 -0.1624
 3608TIP3    H132315   3.556   0.149  15.724  1.4465 -1.4260 -0.0317
 3608TIP3    H232316   3.488   0.035  15.796  0.4822 -0.9624 -0.1885
 3609TIP3   OH232317   4.059   5.191  17.196  0.2257  0.2701 -0.3123
 3609TIP3    H132318   4.003   5.199  17.119 -1.2191 -0.6719  0.5982
 3609TIP3    H232319   4.041   5.271  17.246  1.6124  1.1744 -1.1827
 3610TIP3   OH232320   4.904   6.027   1.274  0.2311  0.0748  0.0252
 3610TIP3    H132321   4.921   6.107   1.324  1.0098 -0.1493  0.1356
 3610TIP3    H232322   4.903   5.958   1.339 -1.2588  0.0815  0.0326
 3611TIP3   OH232323   6.729   0.936  12.640 -0.6316 -0.5302  0.1397
 3611TIP3    H132324   6.724   0.913  12.547  2.9273 -2.9882  0.4057
 3611TIP3    H232325   6.775   1.020  12.641  0.8549 -1.3124 -0.3088
 3612TIP3   OH232326   1.968   3.887   4.916 -0.4497  0.3562 -0.3674
 3612TIP3    H132327   1.986   3.817   4.979 -0.3787  0.2947 -0.4553
 3612TIP3    H232328   2.054   3.912   4.882 -0.6029 -0.8342 -1.7446
 3613TIP3   OH232329   4.546   4.122   6.272 -0.0923 -0.1097  0.1861
 3613TIP3    H132330   4.457   4.157   6.273  0.3080  0.9092  0.3131
 3613TIP3    H232331   4.556   4.085   6.184 -0.7483 -0.5384  0.2807
 3614TIP3   OH232332   6.493   5.179  13.010  0.0312  0.4601  1.1628
 3614TIP3    H132333   6.423   5.243  12.997 -0.5912 -0.6262 -1.5259
 3614TIP3    H232334   6.458   5.117  13.073 -1.0229  0.5149  0.6507
 3615TIP3   OH232335   1.989   1.427   5.913  0.0064 -0.0204  0.6013
 3615TIP3    H132336   2.078   1.461   5.915  0.8397 -2.1195  2.2701
 3615TIP3    H232337   1.941   1.480   5.977  0.5662 -0.1778  1.1498
 3616TIP3   OH232338   1.515   5.136  11.684 -0.3147 -0.2399 -0.0500
 3616TIP3    H132339   1.536   5.214  11.736 -0.4719 -1.3339  1.7421
 3616TIP3    H232340   1.421   5.142  11.669 -0.4261 -0.3747  0.5851
 3617TIP3   OH232341   5.238   5.977   6.358 -0.3825 -0.1456 -0.1940
 3617TIP3    H132342   5.232   6.037   6.432  1.2565 -2.7977  2.2981
 3617TIP3    H232343   5.152   5.934   6.355 -1.0629  1.1940 -1.0737
 3618TIP3   OH232344   0.401   0.152  16.963 -0.0625 -0.2587 -0.2350
 3618TIP3    H132345   0.365   0.210  17.030 -0.4836  1.3061 -1.7288
 3618TIP3    H232346   0.490   0.132  16.993  0.1104  1.2168  0.3055
 3619TIP3   OH232347   0.642   2.638   5.642 -0.0995 -0.4806  0.3282
 3619TIP3    H132348   0.670   2.554   5.680  0.4813 -0.0731  0.8169
 3619TIP3    H232349   0.723   2.685   5.624 -0.3969 -0.3426 -0.7004
 3620TIP3   OH232350   3.326   5.693   0.478 -0.0233  0.0514 -0.9296
 3620TIP3    H132351   3.390   5.627   0.506  0.2467 -0.1294 -1.9295
 3620TIP3    H232352   3.379   5.760   0.435  0.1803  2.6408  2.8121
 3621TIP3   OH232353   3.987   5.823   6.612 -0.2619 -0.5209 -0.2364
 3621TIP3    H132354   4.032   5.832   6.696 -1.6781  0.5855  0.4646
 3621TIP3    H232355   4.054   5.793   6.551  2.0937  3.2528  0.1835
 3622TIP3   OH232356   6.462   4.878   2.223  0.3097 -0.6399  0.5247
 3622TIP3    H132357   6.487   4.881   2.130 -2.0835  0.1334 -0.1626
 3622TIP3    H232358   6.491   4.962   2.258 -0.3358 -0.1910  0.0084
 3623TIP3   OH232359   3.693   3.875  12.549 -0.1658  0.1146 -0.2264
 3623TIP3    H132360   3.670   3.802  12.490 -0.1313 -0.0560 -0.0284
 3623TIP3    H232361   3.788   3.871  12.555 -0.2341 -0.5709  0.7312
 3624TIP3   OH232362   2.414   2.586  13.358 -0.7635  0.7257  0.8479
 3624TIP3    H132363   2.477   2.596  13.286 -0.1217  2.1604  1.5782
 3624TIP3    H232364   2.465   2.602  13.437 -1.4693 -0.8354  1.6418
 3625TIP3   OH232365   2.382   0.339  11.558 -0.0577 -0.3782 -0.2497
 3625TIP3    H132366   2.371   0.402  11.486  0.1934  0.4683  0.4401
 3625TIP3    H232367   2.474   0.312  11.552 -0.1921 -0.7876 -0.6114
 3626TIP3   OH232368   5.899   1.749  13.094  0.0296  0.3098  0.1506
 3626TIP3    H132369   5.870   1.764  13.004  0.2938 -0.8657 -0.1504
 3626TIP3    H232370   5.823   1.711  13.138  1.0228 -3.1281 -0.7363
 3627TIP3   OH232371   0.545   2.792  12.297  0.0419  0.1869 -0.0230
 3627TIP3    H132372   0.551   2.817  12.389  1.8210 -1.7032  0.4356
 3627TIP3    H232373   0.525   2.699  12.298  0.7740 -0.0150 -1.5304
 3628TIP3   OH232374   5.894   1.033   1.398  0.1800 -0.0969 -0.6231
 3628TIP3    H132375   5.848   1.115   1.387  1.4653  1.0165  1.5747
 3628TIP3    H232376   5.838   0.981   1.456 -0.2701 -0.5062 -1.4004
 3629TIP3   OH232377   4.946   2.289  15.593 -0.0362 -0.3708  0.0511
 3629TIP3    H132378   4.870   2.345  15.577  1.2526  1.6587  0.6664
 3629TIP3    H232379   4.911   2.214  15.641 -1.4520  1.4398  2.0714
 3630TIP3   OH232380   0.300   0.510  12.040 -0.6433 -0.2046  0.0185
 3630TIP3    H132381   0.282   0.564  11.963  0.5756 -0.3066 -0.3648
 3630TIP3    H232382   0.312   0.422  12.005 -0.0214 -0.2402  0.3145
 3631TIP3   OH232383   0.773   4.381   5.697  0.0098 -0.1397 -0.6886
 3631TIP3    H132384   0.678   4.379   5.705  0.1491 -0.2510  1.2735
 3631TIP3    H232385   0.793   4.469   5.666 -0.7270 -0.1942 -1.3564
 3632TIP3   OH232386   4.216   1.505   0.937 -0.4817  0.0528  0.6622
 3632TIP3    H132387   4.188   1.434   0.879 -2.4610 -0.4743  2.1665
 3632TIP3    H232388   4.181   1.481   1.023 -0.1273  2.2491  1.4766
 3633TIP3   OH232389   5.589   1.612  15.894 -0.1082 -0.3263 -0.0812
 3633TIP3    H132390   5.607   1.599  15.801 -0.3917 -1.6510  0.0255
 3633TIP3    H232391   5.656   1.674  15.923  1.0566 -1.1878 -0.8091
 3634TIP3   OH232392   2.493   0.523   5.247 -0.5092 -0.3205 -0.7060
 3634TIP3    H132393   2.474   0.613   5.271 -0.9964 -0.3496 -0.9660
 3634TIP3    H232394   2.419   0.496   5.192  0.1471 -0.5260 -1.5253
 3635TIP3   OH232395   1.214   1.173   6.375  0.7836 -0.6830 -0.0942
 3635TIP3    H132396   1.299   1.218   6.370 -0.7943  2.4725 -1.5665
 3635TIP3    H232397   1.197   1.146   6.285 -0.6196  0.6265 -0.2662
 3636TIP3   OH232398   4.574   0.320   1.251 -0.2559  0.1087 -0.1499
 3636TIP3    H132399   4.635   0.250   1.229 -0.5212 -0.2565  0.2536
 3636TIP3    H232400   4.548   0.302   1.341  0.2439  1.1588  0.2186
 3637TIP3   OH232401   5.373   6.439  12.288 -0.1510 -0.8869  0.0420
 3637TIP3    H132402   5.443   6.403  12.342 -0.0717  0.3717  0.8116
 3637TIP3    H232403   5.295   6.435  12.343  0.1380  1.3710  0.7074
 3638TIP3   OH232404   6.493   1.514  13.386 -0.7762 -0.0484 -0.2461
 3638TIP3    H132405   6.545   1.462  13.447  0.6910  1.4353 -0.1586
 3638TIP3    H232406   6.479   1.457  13.310  1.7116 -0.2376 -0.6250
 3639TIP3   OH232407   0.111   3.219  14.221  0.0296 -0.1873 -0.3158
 3639TIP3    H132408   0.086   3.127  14.213 -2.4518  0.0670  2.4016
 3639TIP3    H232409   0.057   3.252  14.293  0.7523  3.4405 -1.2089
 3640TIP3   OH232410   1.260   1.281  13.212 -0.1757 -0.2601  0.1039
 3640TIP3    H132411   1.252   1.291  13.117  1.3668  1.7514  0.1038
 3640TIP3    H232412   1.353   1.297  13.230 -0.5531  0.0525  2.0178
 3641TIP3   OH232413   5.552   3.095  14.169  0.0718  0.4272 -0.3231
 3641TIP3    H132414   5.482   3.093  14.104 -1.3591  0.3628  1.1602
 3641TIP3    H232415   5.535   3.021  14.227  0.2626  1.4711  1.1525
 3642TIP3   OH232416   3.258   2.764  14.025  0.3869 -0.3716 -0.1521
 3642TIP3    H132417   3.297   2.679  14.043 -0.8700 -1.7662 -3.2833
 3642TIP3    H232418   3.318   2.805  13.963 -0.0654  0.1189 -0.2709
 3643TIP3   OH232419   2.233   5.725  15.478  0.4163 -0.2804  0.6654
 3643TIP3    H132420   2.293   5.753  15.546  0.9068 -0.6535  0.3924
 3643TIP3    H232421   2.241   5.629  15.476 -0.2916 -0.3454  0.7225
 3644TIP3   OH232422   2.834   0.135   3.815  0.5681  0.2420  0.1112
 3644TIP3    H132423   2.814   0.172   3.901  0.5521  0.0521  0.1898
 3644TIP3    H232424   2.749   0.127   3.773  0.7175  1.9467 -0.5929
 3645TIP3   OH232425   3.597   0.961   1.917  0.3821 -0.1714 -0.0034
 3645TIP3    H132426   3.668   0.912   1.875 -0.4553 -0.0974 -1.6080
 3645TIP3    H232427   3.582   1.036   1.859  0.7946  1.3265  1.7501
 3646TIP3   OH232428   5.886   6.374   4.935 -0.1227  0.0594  0.0372
 3646TIP3    H132429   5.868   6.286   4.902 -0.6538 -0.4504  1.5969
 3646TIP3    H232430   5.867   6.431   4.860  0.3833 -1.1332 -1.0531
 3647TIP3   OH232431   2.315   5.334   1.434  0.9497  0.1948  0.0073
 3647TIP3    H132432   2.294   5.388   1.510 -0.1792 -0.3982  0.1405
 3647TIP3    H232433   2.277   5.249   1.454 -1.2025  0.5591 -2.0540
 3648TIP3   OH232434   0.847   6.560  17.514  0.1278  0.3028 -0.2325
 3648TIP3    H132435   0.854   6.656  17.517 -1.8716  0.4863 -0.6420
 3648TIP3    H232436   0.757   6.541  17.541  0.9339 -1.5887  1.4086
 3649TIP3   OH232437   6.004   2.890  15.343  0.1742 -0.4203  0.0735
 3649TIP3    H132438   6.032   2.896  15.435  0.9355 -2.2811  0.0107
 3649TIP3    H232439   5.908   2.896  15.347  0.2592  0.7450  0.8504
 3650TIP3   OH232440   1.629   6.072   2.541  0.0897 -0.0660  0.2107
 3650TIP3    H132441   1.618   6.148   2.597 -0.8232 -0.2437  0.2808
 3650TIP3    H232442   1.724   6.064   2.530  0.2087  2.3721 -1.5496
 3651TIP3   OH232443   3.082   3.211  12.758  0.7142  0.0914  0.1791
 3651TIP3    H132444   3.100   3.133  12.811 -0.2228  0.7116  1.4754
 3651TIP3    H232445   3.009   3.186  12.702  0.6310 -0.0730  0.3599
 3652TIP3   OH232446   6.253   0.826  16.604 -0.2367  0.2053  0.0334
 3652TIP3    H132447   6.321   0.810  16.537 -1.0987  0.0515 -0.8333
 3652TIP3    H232448   6.299   0.817  16.687  0.4531 -1.6843 -0.4924
 3653TIP3   OH232449   2.566   6.674   2.513  0.6097 -0.0705  0.0147
 3653TIP3    H132450   2.571   6.766   2.486  2.2791 -0.1774 -0.1414
 3653TIP3    H232451   2.618   6.670   2.594  0.6021 -0.8859 -0.0153
 3654TIP3   OH232452   1.877   2.593  13.448  0.0926  0.1727  0.1990
 3654TIP3    H132453   1.801   2.618  13.501  1.2344  0.8506  1.6050
 3654TIP3    H232454   1.889   2.667  13.389 -0.1301  0.2216  0.2122
 3655TIP3   OH232455   6.602   3.187  17.573 -0.0823  0.2190  0.6787
 3655TIP3    H132456   6.542   3.158  17.503  0.9016 -0.2578  0.0107
 3655TIP3    H232457   6.553   3.254  17.620 -0.5575  1.0013 -0.8636
 3656TIP3   OH232458   0.512   2.772   5.455  0.1834  0.4274  0.7018
 3656TIP3    H132459   0.416   2.773   5.454  0.1911  1.0088  0.3188
 3656TIP3    H232460   0.534   2.707   5.522 -0.4786 -1.2304 -0.6026
 3657TIP3   OH232461   3.402   2.511   5.184 -0.0457 -0.7171  0.2005
 3657TIP3    H132462   3.391   2.594   5.231 -0.1025 -0.0788 -0.8979
 3657TIP3    H232463   3.331   2.455   5.216  0.9567 -0.9334  2.1458
 3658TIP3   OH232464   3.168   6.207  14.133 -0.0947 -0.0500 -0.2283
 3658TIP3    H132465   3.199   6.180  14.046  0.5038 -1.8473  0.5108
 3658TIP3    H232466   3.131   6.128  14.171 -1.6425  1.0412  0.6499
 3659TIP3   OH232467   5.175   1.042  13.509 -0.2248 -0.2022 -0.0189
 3659TIP3    H132468   5.169   1.077  13.420  1.8576  1.6145  0.4496
 3659TIP3    H232469   5.211   0.954  13.497  2.2744  0.8431 -0.9706
 3660TIP3   OH232470   3.769   4.712   4.197 -0.2058  1.0107 -0.1954
 3660TIP3    H132471   3.768   4.661   4.278 -0.4403 -0.1459 -0.8886
 3660TIP3    H232472   3.833   4.781   4.212  1.6944 -0.7000  0.0910
 3661TIP3   OH232473   6.378   2.037   4.353  0.3277 -0.1101 -0.3009
 3661TIP3    H132474   6.368   1.977   4.427  0.3732 -0.6821 -0.7472
 3661TIP3    H232475   6.296   2.030   4.304  0.6336 -0.4094 -0.7824
 3662TIP3   OH232476   2.869   2.106  11.789 -0.4132  0.4020  0.4196
 3662TIP3    H132477   2.837   2.121  11.700  1.6278 -1.3041 -0.6946
 3662TIP3    H232478   2.964   2.097  11.780 -0.1664 -0.1214  2.7362
 3663TIP3   OH232479   1.354   0.315   0.801  0.4735  0.4028  0.0542
 3663TIP3    H132480   1.267   0.325   0.839  0.1715 -0.3466 -0.3990
 3663TIP3    H232481   1.339   0.323   0.706  1.0188  1.0246  0.0152
 3664TIP3   OH232482   6.229   5.269  15.711  0.2807 -0.5970  0.7030
 3664TIP3    H132483   6.312   5.304  15.682 -0.1652 -0.0955  0.0032
 3664TIP3    H232484   6.168   5.288  15.640 -0.3079 -1.4607  0.9569
 3665TIP3   OH232485   2.962   0.190  17.551 -0.6301 -0.1325  0.0283
 3665TIP3    H132486   3.028   0.148  17.496  1.0306  2.8722 -0.4498
 3665TIP3    H232487   2.910   0.243  17.491  1.3344  3.3726  1.1570
 3666TIP3   OH232488   2.557   3.081   1.593  0.0114 -0.5272  0.1027
 3666TIP3    H132489   2.525   3.107   1.507 -0.7193  0.5102  0.6662
 3666TIP3    H232490   2.583   3.163   1.635  0.5955 -1.0418  0.7894
 3667TIP3   OH232491   1.831   3.314   3.670 -0.2719  0.2014  0.2683
 3667TIP3    H132492   1.922   3.299   3.645 -0.6769  0.4737 -1.4701
 3667TIP3    H232493   1.817   3.407   3.652 -1.3505 -0.1958 -1.1046
 3668TIP3   OH232494   0.192   1.840  12.992 -0.5823  0.3726  0.3420
 3668TIP3    H132495   0.283   1.817  13.008  0.4205  2.1945 -2.0430
 3668TIP3    H232496   0.155   1.855  13.079  1.2944 -0.6868  1.3779
 3669TIP3   OH232497   0.598   5.517  16.556 -0.0319 -0.2206 -0.5896
 3669TIP3    H132498   0.549   5.570  16.619  0.2695  0.4092 -0.8757
 3669TIP3    H232499   0.543   5.516  16.478  0.7163  1.0893 -1.1583
 3670TIP3   OH232500   1.438   6.667  16.953  0.4843  0.2923  0.0553
 3670TIP3    H132501   1.364   6.692  17.008  1.3666  0.3065  1.2725
 3670TIP3    H232502   1.512   6.663  17.013  1.0344 -1.9878 -0.6899
 3671TIP3   OH232503   2.312   3.061   6.453  0.7281 -0.2239  0.6532
 3671TIP3    H132504   2.380   3.054   6.521 -1.1797 -0.3690  2.6738
 3671TIP3    H232505   2.245   3.116   6.493  0.0387  0.7040 -1.6426
 3672TIP3   OH232506   5.146   6.624  16.847 -0.3042 -1.1307  0.1966
 3672TIP3    H132507   5.172   6.532  16.842  0.2182 -0.9341 -1.1863
 3672TIP3    H232508   5.094   6.639  16.767 -0.0781 -0.1396  0.2206
 3673TIP3   OH232509   5.456   1.191  17.194  0.5767  0.7907 -0.0776
 3673TIP3    H132510   5.470   1.096  17.186  1.4626  0.5004  3.2640
 3673TIP3    H232511   5.362   1.202  17.179  0.5514 -0.5082 -1.1221
 3674TIP3   OH232512   1.681   6.064  17.057 -0.0883 -0.4802  0.8366
 3674TIP3    H132513   1.695   5.988  17.114 -1.4545 -0.2305  1.5628
 3674TIP3    H232514   1.756   6.121  17.073  0.8892 -1.5913  0.3796
 3675TIP3   OH232515   6.579   4.837   2.636 -0.2648  0.0634  0.1244
 3675TIP3    H132516   6.608   4.898   2.705  0.1792  0.1234 -0.1200
 3675TIP3    H232517   6.498   4.800   2.672 -1.2147  1.6867 -0.2166
 3676TIP3   OH232518   2.888   0.670   6.191 -0.2548 -0.3928  0.3889
 3676TIP3    H132519   2.968   0.666   6.140 -1.1608 -0.8745 -1.0421
 3676TIP3    H232520   2.917   0.692   6.280  1.5254 -1.4621  0.1112
 3677TIP3   OH232521   6.359   3.534   1.287  0.2739  0.3174  0.2128
 3677TIP3    H132522   6.409   3.577   1.357 -0.0908 -1.1041  1.4031
 3677TIP3    H232523   6.377   3.441   1.299 -3.1319 -0.3540  1.1299
 3678TIP3   OH232524   2.616   1.606   1.120  0.3494 -0.3443  0.2646
 3678TIP3    H132525   2.535   1.635   1.162 -0.4742 -0.8723 -0.8942
 3678TIP3    H232526   2.632   1.672   1.052 -0.2981 -1.3275 -0.8920
 3679TIP3   OH232527   6.247   1.806   4.531 -0.1696 -0.4502  0.1697
 3679TIP3    H132528   6.155   1.821   4.554 -0.0205  0.1158  0.4052
 3679TIP3    H232529   6.285   1.767   4.610  0.3842  1.6554  1.0006
 3680TIP3   OH232530   0.771   4.191  14.168  0.1162 -0.1064 -0.1817
 3680TIP3    H132531   0.774   4.096  14.160 -1.5361 -0.1298 -1.0381
 3680TIP3    H232532   0.829   4.224  14.100 -2.8303 -0.5134 -3.1483
 3681TIP3   OH232533   6.615   0.390   1.217 -0.0067 -0.4067 -0.3691
 3681TIP3    H132534   6.628   0.371   1.124  1.3173  2.3423 -0.8513
 3681TIP3    H232535   6.556   0.465   1.218  2.7474  1.9088  0.7129
 3682TIP3   OH232536   5.216   6.689   4.873 -0.0765  0.0544 -0.2212
 3682TIP3    H132537   5.195   6.735   4.954 -0.2480 -0.4339  0.0175
 3682TIP3    H232538   5.191   6.598   4.890 -0.7927  0.0772 -1.0723
 3683TIP3   OH232539   3.172   2.384   5.328 -0.0807 -0.0391 -0.0932
 3683TIP3    H132540   3.169   2.291   5.349 -1.3061  0.3424  1.5891
 3683TIP3    H232541   3.081   2.406   5.308  0.1991  0.8094 -0.4594
 3684TIP3   OH232542   1.530   4.936   0.326  0.2838  0.5035 -0.0256
 3684TIP3    H132543   1.531   4.984   0.243  2.0366  1.9565  0.7601
 3684TIP3    H232544   1.460   4.872   0.316  0.4122  0.6657 -2.5944
 3685TIP3   OH232545   0.288   1.482  14.464 -0.4317 -0.0289 -0.4688
 3685TIP3    H132546   0.363   1.431  14.433  0.4243  0.1101  1.2462
 3685TIP3    H232547   0.326   1.563  14.498 -1.1511 -0.5503  1.7456
 3686TIP3   OH232548   2.993   0.805   4.164 -0.0729 -0.2356  0.4403
 3686TIP3    H132549   2.982   0.900   4.158  1.6983  0.1673  2.5245
 3686TIP3    H232550   2.931   0.778   4.232 -0.9005 -0.6708 -0.4662
 3687TIP3   OH232551   2.837   6.208   2.272  0.3142 -0.2622 -0.1521
 3687TIP3    H132552   2.778   6.273   2.234  0.1276  0.2535  0.9685
 3687TIP3    H232553   2.833   6.134   2.212 -0.9462  0.0275 -0.4608
 3688TIP3   OH232554   0.877   6.269   6.878  0.3561 -0.1367 -0.2014
 3688TIP3    H132555   0.844   6.340   6.824  1.0047  0.5166  0.2433
 3688TIP3    H232556   0.808   6.202   6.875 -0.9677  1.1317  0.5930
 3689TIP3   OH232557   3.093   1.278   1.730 -0.1452 -0.5632  0.7735
 3689TIP3    H132558   3.096   1.374   1.728 -1.6734 -0.4916 -0.7262
 3689TIP3    H232559   3.001   1.257   1.715  0.5243 -2.2734 -1.4667
 3690TIP3   OH232560   3.957   5.142  11.595  0.1902 -0.0679 -0.6728
 3690TIP3    H132561   4.041   5.186  11.610 -0.3502  0.6164  0.4943
 3690TIP3    H232562   3.891   5.210  11.610 -0.6506 -1.1514  0.7932
 3691TIP3   OH232563   3.007   4.000  15.340  0.3063 -0.1023 -0.1167
 3691TIP3    H132564   2.919   3.973  15.368  0.6961  0.2777  1.6271
 3691TIP3    H232565   2.991   4.065  15.271 -0.7216 -1.3943 -1.1349
 3692TIP3   OH232566   4.332   0.138  12.410 -0.1492  0.0331  0.5628
 3692TIP3    H132567   4.321   0.052  12.452 -2.7374 -0.1165 -0.2363
 3692TIP3    H232568   4.379   0.120  12.329  1.4937 -0.2355  1.5432
 3693TIP3   OH232569   6.157   0.918   0.474  0.3870 -0.6974  0.2482
 3693TIP3    H132570   6.154   0.863   0.553  1.5672 -1.5800 -0.2946
 3693TIP3    H232571   6.249   0.945   0.468  0.2261 -0.3366 -0.6326
 3694TIP3   OH232572   5.617   0.540  10.662  0.2583 -0.1280  0.5102
 3694TIP3    H132573   5.648   0.630  10.659  0.5901 -0.2243  1.0200
 3694TIP3    H232574   5.653   0.504  10.743  0.6522 -0.9031  0.0150
 3695TIP3   OH232575   3.837   4.997  16.013 -0.0615 -0.3390  0.2589
 3695TIP3    H132576   3.793   4.945  16.080  0.0901 -0.4242  0.2903
 3695TIP3    H232577   3.861   5.078  16.058  1.1210 -0.8838  0.6284
 3696TIP3   OH232578   0.274   4.765  11.401 -0.2839 -0.0319 -1.3065
 3696TIP3    H132579   0.333   4.813  11.343 -1.3263  0.4910 -1.9737
 3696TIP3    H232580   0.204   4.828  11.420 -0.4025 -0.4930 -0.1880
 3697TIP3   OH232581   0.907   3.303   2.188 -0.9661  0.2448  0.4331
 3697TIP3    H132582   0.962   3.234   2.153  1.5249  1.4128  1.7868
 3697TIP3    H232583   0.850   3.258   2.251  0.1248 -0.7102  0.7871
 3698TIP3   OH232584   2.985   6.533   3.610 -0.7692  0.4939  0.2567
 3698TIP3    H132585   3.040   6.455   3.612  1.1452  1.7105 -1.3851
 3698TIP3    H232586   2.948   6.539   3.698  3.0998  0.5351  2.0657
 3699TIP3   OH232587   5.481   5.788   5.071 -0.3468 -0.3380  0.1084
 3699TIP3    H132588   5.469   5.840   4.991 -0.9494  0.0003  0.4170
 3699TIP3    H232589   5.576   5.788   5.085 -0.2964  0.2090 -0.2034
 3700TIP3   OH232590   2.764   2.373   1.557  0.3843 -1.0579  0.0720
 3700TIP3    H132591   2.711   2.310   1.606 -1.4536  0.5994  0.3247
 3700TIP3    H232592   2.839   2.391   1.613  0.7156 -2.6458  0.1859
 3701TIP3   OH232593   3.941   4.389   1.313 -0.4564 -0.2910 -0.1398
 3701TIP3    H132594   3.980   4.411   1.228 -4.1335  0.4157 -1.8379
 3701TIP3    H232595   3.994   4.438   1.376  3.1638 -1.7648 -1.7398
 3702TIP3   OH232596   5.261   4.834  15.084 -0.0715 -0.7507  0.3594
 3702TIP3    H132597   5.300   4.891  15.017 -3.4651  1.4108 -0.0260
 3702TIP3    H232598   5.331   4.818  15.146  2.2007  0.2949 -1.7730
 3703TIP3   OH232599   2.690   4.743   3.446  0.2017 -0.3114  0.4401
 3703TIP3    H132600   2.626   4.678   3.475  0.7948 -0.5441  1.2836
 3703TIP3    H232601   2.774   4.699   3.454  0.4217 -0.4350 -1.8323
 3704TIP3   OH232602   3.523   1.385   5.556  0.6214  0.3901  0.5819
 3704TIP3    H132603   3.549   1.451   5.620 -0.6253 -0.8766  2.4916
 3704TIP3    H232604   3.462   1.329   5.603  0.2392 -1.0671 -1.5224
 3705TIP3   OH232605   4.086   0.591   4.462 -0.2490 -0.2228  0.1930
 3705TIP3    H132606   4.085   0.614   4.369 -0.2575  0.3726  0.3398
 3705TIP3    H232607   4.161   0.533   4.471  0.3221  0.4729 -0.0070
 3706TIP3   OH232608   0.047   5.528  14.372  0.4258 -0.5141  0.0074
 3706TIP3    H132609   0.128   5.574  14.392  0.9851 -2.0403  1.5898
 3706TIP3    H232610  -0.020   5.573  14.424  0.8663 -1.0529  1.0985
 3707TIP3   OH232611   5.361   2.567  15.433  0.4590  0.2325  0.4884
 3707TIP3    H132612   5.275   2.537  15.404  1.1724  0.3180 -1.9412
 3707TIP3    H232613   5.406   2.592  15.352  2.3152  1.4079  1.8124
 3708TIP3   OH232614   1.840   6.063  14.666  0.2879  0.2830 -0.2726
 3708TIP3    H132615   1.933   6.048  14.683 -0.0368  0.2950  1.7815
 3708TIP3    H232616   1.816   5.997  14.601  1.3745 -0.8381  0.4280
 3709TIP3   OH232617   1.218   0.619  13.925  0.2890  0.0358  0.0459
 3709TIP3    H132618   1.143   0.657  13.880  0.4523 -1.0489 -1.1928
 3709TIP3    H232619   1.188   0.534  13.956 -1.0146  2.0236  5.3725
 3710TIP3   OH232620   6.697   4.259   3.999 -0.0044  0.5377  0.2229
 3710TIP3    H132621   6.696   4.312   3.920  0.0344  0.5480  0.2294
 3710TIP3    H232622   6.686   4.322   4.070  0.9107  0.6394  0.2894
 3711TIP3   OH232623   3.883   3.732  12.935  0.1337  0.1908 -0.7546
 3711TIP3    H132624   3.787   3.738  12.934  0.1737  0.8069 -1.7619
 3711TIP3    H232625   3.908   3.735  12.843  1.1573  0.4736 -0.4753
 3712TIP3   OH232626   5.949   2.452   3.875 -0.5792 -0.0011 -0.0387
 3712TIP3    H132627   5.960   2.444   3.970  1.9087 -0.2825 -0.2684
 3712TIP3    H232628   5.922   2.543   3.861 -0.3017  0.2375  0.9207
 3713TIP3   OH232629   0.263   5.501   2.213 -0.4522 -0.2029 -0.2744
 3713TIP3    H132630   0.205   5.490   2.289 -1.0799 -0.1086 -0.7280
 3713TIP3    H232631   0.295   5.413   2.195  1.0358  0.0129  1.1118
 3714TIP3   OH232632   0.966   3.513   1.529 -0.2212 -0.1605 -0.0306
 3714TIP3    H132633   0.996   3.489   1.617 -0.9966 -0.6804  0.0933
 3714TIP3    H232634   1.024   3.464   1.470  1.2022  1.2257  0.1388
 3715TIP3   OH232635   3.318   5.469  13.820  0.0772  0.0043  0.6775
 3715TIP3    H132636   3.293   5.535  13.756 -1.6084  0.1313  1.4073
 3715TIP3    H232637   3.322   5.387  13.771 -1.1126  0.1126  0.3887
 3716TIP3   OH232638   3.314   6.699  14.757  0.2599 -0.2009 -0.1891
 3716TIP3    H132639   3.305   6.733  14.846 -0.1415 -3.3458  1.1356
 3716TIP3    H232640   3.232   6.721  14.713 -0.6646 -0.8265  1.1466
 3717TIP3   OH232641   0.380   6.662   1.016 -0.1189  0.0754  0.3002
 3717TIP3    H132642   0.341   6.702   1.093  0.6751 -1.9969  1.8716
 3717TIP3    H232643   0.471   6.645   1.041  0.1740 -0.6143 -1.1137
 3718TIP3   OH232644   5.963   4.757  17.453 -0.2441 -0.3772 -0.0331
 3718TIP3    H132645   6.031   4.769  17.387  0.4323 -1.0802  0.5268
 3718TIP3    H232646   5.905   4.691  17.415  0.6607 -1.4780  0.4521
 3719TIP3   OH232647   4.635   0.063  11.743 -0.1333 -0.7360  0.6816
 3719TIP3    H132648   4.588  -0.016  11.768  0.9047 -1.1207  1.4618
 3719TIP3    H232649   4.644   0.112  11.825 -2.2438  1.0348 -0.0499
 3720TIP3   OH232650   6.737   0.026  15.684  0.0086  0.2998 -0.3313
 3720TIP3    H132651   6.783  -0.024  15.616  0.0796  1.5251 -1.2189
 3720TIP3    H232652   6.719  -0.039  15.752 -1.3116 -1.3373 -2.1046
 3721TIP3   OH232653   5.496   0.699  11.635 -0.5399 -0.4359 -0.3961
 3721TIP3    H132654   5.530   0.695  11.546  0.7375 -0.9743  0.0984
 3721TIP3    H232655   5.497   0.792  11.657  1.3590 -0.4974 -0.1252
 3722TIP3   OH232656   5.441   0.837   3.402 -0.1339 -0.4404  0.4853
 3722TIP3    H132657   5.387   0.910   3.372  1.2216 -0.1059 -1.2917
 3722TIP3    H232658   5.474   0.865   3.488 -1.2548  0.1222  0.7567
 3723TIP3   OH232659   2.867   3.626   4.973  0.1630 -1.0226  0.0282
 3723TIP3    H132660   2.850   3.694   4.908  3.2020  0.0758  0.1986
 3723TIP3    H232661   2.838   3.545   4.932  3.5934 -0.6631 -3.6712
 3724TIP3   OH232662   2.364   1.122  15.723  0.1229  0.1779  0.3015
 3724TIP3    H132663   2.374   1.115  15.818 -0.2102 -1.8889  0.2386
 3724TIP3    H232664   2.341   1.033  15.695 -1.5616  1.0994 -1.4990
 3725TIP3   OH232665   6.219   1.476   0.970 -0.6059  0.2262 -0.0306
 3725TIP3    H132666   6.270   1.459   0.891  2.2204 -1.2737  1.9257
 3725TIP3    H232667   6.155   1.405   0.973 -1.6075  1.0140 -1.5359
 3726TIP3   OH232668   3.385   6.251  16.282 -0.1424 -0.2755  0.4176
 3726TIP3    H132669   3.363   6.329  16.230  0.4606  0.2917  0.9974
 3726TIP3    H232670   3.315   6.245  16.346  1.2469  1.5023  2.2340
 3727TIP3   OH232671   0.550   3.239   5.426  0.3250  0.0715  0.4714
 3727TIP3    H132672   0.630   3.188   5.410 -0.7754 -1.1286 -1.7551
 3727TIP3    H232673   0.528   3.277   5.341 -0.4460  2.0074  1.4687
 3728TIP3   OH232674   6.243   3.175   5.936  0.8786 -0.3308 -0.4222
 3728TIP3    H132675   6.287   3.092   5.920  1.0468 -0.3282  0.0162
 3728TIP3    H232676   6.154   3.151   5.962  0.9887 -0.3831 -0.0896
 3729TIP3   OH232677   4.046   2.478  16.719 -0.2323 -0.4168 -0.1432
 3729TIP3    H132678   4.043   2.394  16.674  2.2420 -0.4883 -0.3137
 3729TIP3    H232679   3.955   2.497  16.741 -1.1390 -1.9397 -2.2615
 3730TIP3   OH232680   5.420   4.819  16.486 -0.0610  0.3211  0.2285
 3730TIP3    H132681   5.475   4.811  16.564  1.7962  0.8957 -0.9518
 3730TIP3    H232682   5.461   4.760  16.423 -1.1340  0.3706 -0.5276
 3731TIP3   OH232683   6.482   0.138   0.320  0.1749  0.4945 -0.1753
 3731TIP3    H132684   6.401   0.139   0.269  0.2442 -0.8333 -0.3367
 3731TIP3    H232685   6.453   0.125   0.410  0.1073  1.9808  0.0418
 3732TIP3   OH232686   3.420   1.361   4.054  0.4616  0.4780  0.2671
 3732TIP3    H132687   3.404   1.318   3.970  2.7558  0.8489 -0.4356
 3732TIP3    H232688   3.430   1.289   4.116  0.7849  0.1205 -0.1928
 3733TIP3   OH232689   2.316   3.450   5.781  0.2746 -0.4445 -0.2921
 3733TIP3    H132690   2.384   3.493   5.729  0.2290  0.4869  0.3876
 3733TIP3    H232691   2.364   3.399   5.846  0.3302 -1.5019 -1.1395
 3734TIP3   OH232692   0.954   6.256  11.046  0.3215 -0.4528  0.1733
 3734TIP3    H132693   0.879   6.316  11.039  0.2114 -0.2231  2.4547
 3734TIP3    H232694   0.930   6.198  11.118  1.3257 -1.9446 -0.6561
 3735TIP3   OH232695   0.310   3.195  15.971 -0.6409 -0.3869  0.0776
 3735TIP3    H132696   0.391   3.168  16.015 -1.0063 -0.9749  0.3918
 3735TIP3    H232697   0.336   3.207  15.879  0.0541  0.5577  0.3787
 3736TIP3   OH232698   3.067   6.305  15.862 -0.2303  0.1295  0.5999
 3736TIP3    H132699   3.130   6.294  15.791 -0.3717 -2.7097  0.7937
 3736TIP3    H232700   2.991   6.347  15.822  1.2129  2.3971  0.0689
 3737TIP3   OH232701   0.541   3.987   0.980 -0.1472  0.2455 -0.1462
 3737TIP3    H132702   0.541   3.911   1.039 -1.1975  0.8754  0.7001
 3737TIP3    H232703   0.558   4.062   1.036  0.6443  0.6881 -0.9448
 3738TIP3   OH232704   2.292   6.037  12.307  0.6474 -0.1044  0.0973
 3738TIP3    H132705   2.374   6.064  12.265 -0.5039  0.4307 -1.9254
 3738TIP3    H232706   2.253   5.976  12.246 -0.9840  0.4727  0.5131
 3739TIP3   OH232707   5.229   6.513  13.431  0.2301  0.1349 -0.3320
 3739TIP3    H132708   5.262   6.424  13.423  0.9926  0.0984  2.2207
 3739TIP3    H232709   5.171   6.524  13.356  0.9387 -2.1245 -1.2938
 3740TIP3   OH232710   4.274   1.885  12.991  0.1419 -0.4301  0.2467
 3740TIP3    H132711   4.189   1.924  12.972  1.2188  1.8247 -0.3253
 3740TIP3    H232712   4.292   1.911  13.082  0.0657 -1.2069  0.4851
 3741TIP3   OH232713   3.360   3.120   3.510 -0.0819 -1.1177  0.2378
 3741TIP3    H132714   3.380   3.062   3.583  1.1959  0.8295  1.5215
 3741TIP3    H232715   3.419   3.091   3.440 -1.3062 -2.9876 -0.0963
 3742TIP3   OH232716   3.880   0.909  17.203  0.4297 -1.0652  0.2666
 3742TIP3    H132717   3.922   0.887  17.287 -1.7448 -0.6640  1.5235
 3742TIP3    H232718   3.834   0.829  17.178  0.7040 -1.0407 -0.3418
 3743TIP3   OH232719   0.053   4.019   2.007  0.2021 -0.2741  0.3719
 3743TIP3    H132720   0.116   3.947   2.005  0.4262 -0.0623 -0.8598
 3743TIP3    H232721   0.084   4.080   1.940 -1.3964 -0.2500 -0.3943
 3744TIP3   OH232722   2.909   4.865  16.674  0.0647 -0.0325 -0.0621
 3744TIP3    H132723   2.952   4.805  16.735 -1.9712 -1.8011 -0.2744
 3744TIP3    H232724   2.877   4.810  16.603 -2.2528  1.1953 -0.0636
 3745TIP3   OH232725   4.022   3.052   2.508 -0.0618 -0.0390  0.1333
 3745TIP3    H132726   4.090   3.023   2.447  0.7946  1.1886  0.4653
 3745TIP3    H232727   3.940   3.027   2.467  0.5385 -0.1433 -1.0333
 3746TIP3   OH232728   3.641   0.404   0.551 -0.0798 -0.4504  0.4071
 3746TIP3    H132729   3.705   0.354   0.501  0.3279  1.4037 -1.0845
 3746TIP3    H232730   3.671   0.399   0.641  1.2309 -0.9717 -0.0345
 3747TIP3   OH232731   2.245   3.945   0.401  0.3115 -0.3257 -0.4441
 3747TIP3    H132732   2.229   4.037   0.422  1.1770 -0.0624 -0.8620
 3747TIP3    H232733   2.187   3.896   0.460 -0.9332  0.5031 -0.9540
 3748TIP3   OH232734   4.766   6.507   2.612 -0.4342 -0.2896  0.3467
 3748TIP3    H132735   4.711   6.567   2.562 -1.0920  1.4684  2.9739
 3748TIP3    H232736   4.823   6.467   2.546 -1.1572  1.8999 -1.7795
 3749TIP3   OH232737   2.561   3.175   3.817 -0.1205 -0.6410 -0.1218
 3749TIP3    H132738   2.612   3.250   3.847 -0.9906  0.1181 -0.5011
 3749TIP3    H232739   2.565   3.181   3.721 -0.7449 -0.6841 -0.1552
 3750TIP3   OH232740   4.877   0.132   6.576 -0.5386  0.2406  0.6875
 3750TIP3    H132741   4.795   0.156   6.531 -1.3387 -0.6892  1.6140
 3750TIP3    H232742   4.942   0.131   6.506 -1.9764 -2.4358 -0.7862
 3751TIP3   OH232743   3.532   0.726   1.691 -0.1734 -0.0494 -0.1053
 3751TIP3    H132744   3.590   0.765   1.756 -1.0878 -0.6567  1.1372
 3751TIP3    H232745   3.536   0.632   1.709 -0.3580 -0.2353 -1.0016
 3752TIP3   OH232746   5.242   0.156  12.173  0.7416 -0.1904  0.3371
 3752TIP3    H132747   5.189   0.156  12.252  0.0118  1.1171 -0.1192
 3752TIP3    H232748   5.204   0.087  12.118  0.8275 -0.6407  0.8363
 3753TIP3   OH232749   6.201   6.729   5.394 -0.5339  0.3068 -0.0567
 3753TIP3    H132750   6.200   6.800   5.458 -0.7727  0.9068 -0.7177
 3753TIP3    H232751   6.153   6.764   5.318  1.3241  0.2940 -1.2977
 3754TIP3   OH232752   6.211   3.169   0.120 -0.0354 -0.9379 -0.5408
 3754TIP3    H132753   6.115   3.167   0.114  0.0404 -1.1548 -2.3780
 3754TIP3    H232754   6.240   3.102   0.058  1.3269 -0.6032 -0.2975
 3755TIP3   OH232755   6.643   3.818   4.466  0.3373  0.0186 -0.2120
 3755TIP3    H132756   6.613   3.752   4.404 -0.1431  0.0669 -0.0410
 3755TIP3    H232757   6.604   3.791   4.549  0.2689  0.4284 -0.1099
 3756TIP3   OH232758   2.331   1.061   5.065 -0.2526 -1.3319 -0.0467
 3756TIP3    H132759   2.315   0.970   5.038  1.5573 -1.9429  0.7756
 3756TIP3    H232760   2.319   1.060   5.160 -1.3756 -0.4213 -0.1644
 3757TIP3   OH232761   4.630   2.306  17.624 -0.4632  0.0772  0.1046
 3757TIP3    H132762   4.632   2.217  17.589 -1.3052  0.1080 -0.0442
 3757TIP3    H232763   4.717   2.319  17.663 -0.7238 -1.2372  1.1894
 3758TIP3   OH232764   1.270   1.018  11.584  0.2674  0.2511 -1.0639
 3758TIP3    H132765   1.280   0.961  11.508  0.8376  0.7227 -1.3460
 3758TIP3    H232766   1.349   1.072  11.585  0.6808 -0.3300  0.3672
 3759TIP3   OH232767   4.934   2.343   5.687  0.1631 -0.2829  0.0848
 3759TIP3    H132768   4.931   2.359   5.782  0.5109 -0.7611  0.1755
 3759TIP3    H232769   5.009   2.395   5.657 -0.1940  0.1937  0.0059
 3760TIP3   OH232770   2.150   2.094   3.974 -0.2819 -0.0144  0.1955
 3760TIP3    H132771   2.066   2.053   3.998  0.4408 -1.0041  1.1570
 3760TIP3    H232772   2.168   2.062   3.886 -0.0071 -1.3755  0.7186
 3761TIP3   OH232773   0.108   3.639  12.359 -0.4570  0.1132  0.3942
 3761TIP3    H132774   0.017   3.618  12.380 -0.0242 -1.8878  0.4730
 3761TIP3    H232775   0.120   3.606  12.270  0.3619 -0.2182  0.6179
 3762TIP3   OH232776   6.566   5.722   3.921 -0.2265  0.2569  0.1925
 3762TIP3    H132777   6.640   5.758   3.872  0.0227  0.4013  0.6727
 3762TIP3    H232778   6.588   5.629   3.933  0.6426  0.6277  1.7081
 3763TIP3   OH232779   5.476   2.625   3.404  0.5838 -0.2919 -0.5189
 3763TIP3    H132780   5.399   2.580   3.371  0.4280  1.4902 -2.8823
 3763TIP3    H232781   5.506   2.571   3.477 -2.5171 -1.3546  0.1255
 3764TIP3   OH232782   6.045   0.625   5.747 -0.5646 -0.1006  0.2612
 3764TIP3    H132783   6.011   0.715   5.745  1.0241  0.5423  0.4922
 3764TIP3    H232784   6.033   0.597   5.838 -1.9066 -0.4799 -0.0202
 3765TIP3   OH232785   3.025   0.596  12.450 -0.4253 -0.0993 -0.3328
 3765TIP3    H132786   2.959   0.557  12.392  0.4332  0.7288 -1.9410
 3765TIP3    H232787   3.008   0.557  12.535 -3.9864  1.2230 -0.2797
 3766TIP3   OH232788   4.340   1.906   0.978 -0.0922  0.0190 -0.2821
 3766TIP3    H132789   4.284   1.983   0.984 -1.9960 -1.3183 -0.1014
 3766TIP3    H232790   4.331   1.862   1.063 -1.4201 -1.9286 -1.3466
 3767TIP3   OH232791   0.640   0.131  15.190  0.7987  0.2628 -0.2644
 3767TIP3    H132792   0.677   0.100  15.272 -1.0446  1.4055  1.0551
 3767TIP3    H232793   0.649   0.056  15.130  2.1419 -0.5965  0.9459
 3768TIP3   OH232794   1.342   1.507   1.390  0.4602 -0.3566 -0.4053
 3768TIP3    H132795   1.337   1.548   1.304  2.3240  0.4373 -0.1963
 3768TIP3    H232796   1.346   1.413   1.372 -1.3646 -0.3557 -1.0248
 3769TIP3   OH232797   1.574   3.416   2.694  0.9488 -0.2531 -0.0031
 3769TIP3    H132798   1.492   3.367   2.699  1.5119 -1.4150 -1.4263
 3769TIP3    H232799   1.600   3.429   2.786  0.1367 -1.5510  0.4440
 3770TIP3   OH232800   3.097   0.449  13.271  0.6648 -0.1497 -0.2476
 3770TIP3    H132801   3.044   0.478  13.197  0.1538 -0.3909  0.0175
 3770TIP3    H232802   3.185   0.437  13.234  0.8915  1.6681 -0.3634
 3771TIP3   OH232803   3.428   2.421  14.614  0.5007  0.2555  0.2943
 3771TIP3    H132804   3.516   2.402  14.646  0.4290  0.5414  0.6625
 3771TIP3    H232805   3.390   2.479  14.680  0.7900  1.8794 -0.8771
 3772TIP3   OH232806   3.820   2.715   1.134 -0.4833  0.3787 -0.3101
 3772TIP3    H132807   3.826   2.629   1.091 -1.8312  0.0934  0.0073
 3772TIP3    H232808   3.775   2.770   1.070 -1.7427  0.1792  0.3674
 3773TIP3   OH232809   0.172   0.938   3.467  0.4100 -0.4126 -0.2369
 3773TIP3    H132810   0.246   0.981   3.423  0.5788  0.8789  1.2336
 3773TIP3    H232811   0.209   0.855   3.499  1.9086  1.0756  2.2486
 3774TIP3   OH232812   1.192   4.843   4.915 -0.0911 -0.2219 -0.3138
 3774TIP3    H132813   1.142   4.802   4.985  1.6029  1.1450  1.8051
 3774TIP3    H232814   1.220   4.769   4.859 -0.7949 -1.4397  0.8899
 3775TIP3   OH232815   6.679   4.819  13.966  0.0480  0.2206  0.4603
 3775TIP3    H132816   6.702   4.896  14.017 -1.3684  1.2331 -0.3397
 3775TIP3    H232817   6.584   4.827  13.952  0.4792  0.5587 -3.1546
 3776TIP3   OH232818   0.827   4.207  17.470  0.0440 -0.0778  0.0579
 3776TIP3    H132819   0.786   4.168  17.393 -0.3336  0.0640  0.1823
 3776TIP3    H232820   0.764   4.192  17.541  0.3043 -0.0443  0.2991
 3777TIP3   OH232821   0.997   4.283   1.017  0.0504 -0.4316  0.4397
 3777TIP3    H132822   0.967   4.197   0.986  0.8042 -0.7981  0.6863
 3777TIP3    H232823   0.952   4.346   0.961  0.7203 -1.0402 -0.8508
 3778TIP3   OH232824   3.029   0.242   5.346 -0.1955 -0.2005  0.6023
 3778TIP3    H132825   2.982   0.177   5.398 -0.2027 -0.1746  0.6275
 3778TIP3    H232826   3.034   0.203   5.259  2.5041 -1.6704  1.2833
 3779TIP3   OH232827   1.375   0.558   0.056  0.1090 -0.3353  0.1353
 3779TIP3    H132828   1.292   0.570   0.008  1.3782  0.4147 -2.0370
 3779TIP3    H232829   1.368   0.617   0.131 -0.7064  0.9505 -0.9068
 3780TIP3   OH232830   2.803   3.740  11.854 -0.2743 -0.7358 -0.1508
 3780TIP3    H132831   2.882   3.787  11.879 -1.6188  0.7010  1.6386
 3780TIP3    H232832   2.827   3.647  11.860  1.6017 -0.3383 -0.9008
 3781TIP3   OH232833   4.141   3.436   3.083 -0.5381  0.1156 -0.1008
 3781TIP3    H132834   4.045   3.439   3.089 -0.4357  2.5819  1.5113
 3781TIP3    H232835   4.166   3.517   3.040  0.8701 -0.0792  0.2841
 3782TIP3   OH232836   2.934   1.843   0.984 -0.4072 -0.5140  0.3390
 3782TIP3    H132837   2.969   1.755   0.965 -1.3105 -1.6973  3.5385
 3782TIP3    H232838   2.848   1.844   0.942  0.0896 -0.6881 -0.7091
 3783TIP3   OH232839   3.750   1.774  17.086 -0.6365  0.1730  0.0083
 3783TIP3    H132840   3.724   1.730  17.006 -1.4870  0.1442  0.2936
 3783TIP3    H232841   3.845   1.782  17.079 -0.5238 -1.1693 -0.3181
 3784TIP3   OH232842   1.027   5.017  13.319  0.1648  0.4060 -0.2652
 3784TIP3    H132843   1.095   5.082  13.337  0.9379 -0.3895 -0.2561
 3784TIP3    H232844   0.950   5.069  13.295  0.8353  1.3171 -0.4978
 3785TIP3   OH232845   4.135   6.497  11.821 -0.6501  0.0490  0.0328
 3785TIP3    H132846   4.057   6.442  11.828 -0.2526 -0.3582  1.6501
 3785TIP3    H232847   4.173   6.474  11.736 -1.3308 -1.0581  0.0078
 3786TIP3   OH232848   5.443   2.922  12.409 -0.0539  1.2670  0.0412
 3786TIP3    H132849   5.478   2.841  12.444 -1.3261  0.8702  0.4641
 3786TIP3    H232850   5.510   2.953  12.348  0.3915 -0.1614 -0.2368
 3787TIP3   OH232851   2.911   1.713   3.261 -0.4913 -0.1501 -0.7380
 3787TIP3    H132852   2.998   1.752   3.271  0.4404 -1.2447 -3.5932
 3787TIP3    H232853   2.919   1.626   3.301  0.0918 -0.6305 -1.8396
 3788TIP3   OH232854   4.765   3.184  16.628 -0.1137  0.4232 -0.3010
 3788TIP3    H132855   4.749   3.231  16.546 -0.8358 -0.2907 -0.5798
 3788TIP3    H232856   4.768   3.252  16.695 -2.8205  0.7761 -0.4489
 3789TIP3   OH232857   5.281   3.780   2.512 -0.6330  0.0686 -0.2638
 3789TIP3    H132858   5.359   3.787   2.458 -0.7955 -0.2993 -0.5535
 3789TIP3    H232859   5.229   3.711   2.470 -0.5303 -0.5835  0.6370
 3790TIP3   OH232860   1.502   4.305  15.251 -0.0844 -0.5865 -0.1964
 3790TIP3    H132861   1.513   4.284  15.159 -0.8917  0.0756 -0.4561
 3790TIP3    H232862   1.552   4.386  15.263 -0.0261 -0.6411 -0.0620
 3791TIP3   OH232863   4.437   2.302   5.277 -0.1989  0.9166  0.6248
 3791TIP3    H132864   4.396   2.378   5.319  0.1656  0.1540  2.4877
 3791TIP3    H232865   4.401   2.227   5.325 -0.5507 -0.1074 -1.1763
 3792TIP3   OH232866   4.954   3.681   0.936 -0.0227 -0.7488  0.1283
 3792TIP3    H132867   4.887   3.713   0.877 -0.9465 -1.8150  0.5677
 3792TIP3    H232868   5.014   3.755   0.947 -2.2254  0.9660  1.3700
 3793TIP3   OH232869   2.929   6.443   2.056 -0.2812 -0.5244 -0.0365
 3793TIP3    H132870   2.892   6.373   2.002  1.2287 -0.4063 -1.2825
 3793TIP3    H232871   2.943   6.516   1.995  0.9500 -0.1880  0.6177
 3794TIP3   OH232872   5.590   4.723   4.747 -0.1009  1.0867 -0.0934
 3794TIP3    H132873   5.539   4.756   4.821  0.7443  0.7338  0.6730
 3794TIP3    H232874   5.586   4.628   4.755  1.4188  1.0519  0.5305
 3795TIP3   OH232875   2.926   1.200   6.143  0.4827 -0.0960 -0.1038
 3795TIP3    H132876   2.966   1.177   6.059  0.8369  2.1395 -0.5986
 3795TIP3    H232877   2.933   1.295   6.148 -0.2546 -0.1045  2.1174
 3796TIP3   OH232878   0.934   4.660  10.958 -0.1631 -0.6812 -0.2452
 3796TIP3    H132879   0.849   4.685  10.993  1.3242  3.3964  1.0341
 3796TIP3    H232880   0.990   4.650  11.035  1.4246  0.8799 -1.1299
 3797TIP3   OH232881   5.471   1.269  16.327  0.8016 -0.0497  0.1341
 3797TIP3    H132882   5.537   1.337  16.316  0.2289  0.4894 -0.0269
 3797TIP3    H232883   5.499   1.199  16.267  0.9766  0.3630 -0.2719
 3798TIP3   OH232884   3.268   5.439   3.660  0.5187  0.2693 -0.1737
 3798TIP3    H132885   3.312   5.478   3.584 -1.1310  2.0722 -0.2899
 3798TIP3    H232886   3.206   5.506   3.688 -0.8131 -1.4248  1.1162
 3799TIP3   OH232887   0.439   5.526  13.094  0.4521  0.1036  0.2332
 3799TIP3    H132888   0.443   5.618  13.122 -0.3120  0.3350 -0.3847
 3799TIP3    H232889   0.346   5.509  13.081  0.7694  0.3287 -3.1532
 3800TIP3   OH232890   1.417   6.460  16.504 -0.4683  0.0849 -0.6354
 3800TIP3    H132891   1.448   6.435  16.417  1.2761 -0.7037  0.1606
 3800TIP3    H232892   1.337   6.409  16.516  0.1849 -1.1145 -1.1360
 3801TIP3   OH232893   1.048   2.017  13.918  0.5165  0.6839  0.1243
 3801TIP3    H132894   0.988   2.086  13.947  0.8287  0.5873  1.0294
 3801TIP3    H232895   1.063   1.964  13.997 -0.0940 -0.7112 -0.6617
 3802TIP3   OH232896   3.455   0.242   2.293 -0.5563  0.3350 -0.4680
 3802TIP3    H132897   3.524   0.208   2.236  1.2457 -0.3231  1.9096
 3802TIP3    H232898   3.422   0.165   2.339  0.5950  1.1678  1.9082
 3803TIP3   OH232899   5.472   2.722  13.619 -0.5963 -0.2008  0.1434
 3803TIP3    H132900   5.495   2.813  13.641 -1.2220 -0.5485  2.4998
 3803TIP3    H232901   5.450   2.725  13.526 -0.2685  1.9959  0.0826
 3804TIP3   OH232902   1.542   4.650   2.869  0.6329  0.3113  0.2206
 3804TIP3    H132903   1.506   4.701   2.941 -0.6829 -0.3925  0.0961
 3804TIP3    H232904   1.467   4.630   2.814  1.9879  3.4844 -3.1256
 3805TIP3   OH232905   0.242   5.337   4.046  0.3150  0.0384 -0.1019
 3805TIP3    H132906   0.325   5.381   4.064  2.2347 -2.8683 -1.0626
 3805TIP3    H232907   0.203   5.322   4.132  1.9055 -0.4746  0.5660
 3806TIP3   OH232908   6.131   3.446  16.401  0.1988  0.5748  0.0902
 3806TIP3    H132909   6.097   3.524  16.445  0.5136  1.7496 -1.6474
 3806TIP3    H232910   6.225   3.462  16.392  0.7274 -1.1172  1.7990
 3807TIP3   OH232911   4.960   6.115  17.682 -0.3113 -0.0903  0.4778
 3807TIP3    H132912   4.868   6.104  17.659  0.0070  0.7316 -1.4088
 3807TIP3    H232913   4.991   6.185  17.624  1.1825  0.5865  2.0010
 3808TIP3   OH232914   3.185   4.761   1.048  0.3969  0.4181 -0.4267
 3808TIP3    H132915   3.122   4.831   1.028  0.5806  0.5703 -0.4745
 3808TIP3    H232916   3.151   4.684   1.002  0.5833  0.6576 -0.9746
 3809TIP3   OH232917   3.295   0.888   4.059 -0.3389  0.1412  0.2108
 3809TIP3    H132918   3.334   0.948   3.996 -0.0991  0.0772  0.2976
 3809TIP3    H232919   3.306   0.932   4.144 -0.0113 -0.1019  0.2956
 3810TIP3   OH232920   5.648   0.161   0.961  0.3597 -0.0878 -0.0109
 3810TIP3    H132921   5.730   0.211   0.955  1.4076 -1.8382 -0.8806
 3810TIP3    H232922   5.672   0.080   1.005 -0.5394 -1.3249 -1.6821
 3811TIP3   OH232923   1.981   6.534   1.329 -0.1474 -0.0762 -0.2664
 3811TIP3    H132924   2.069   6.533   1.367  0.5415  1.6485 -1.6877
 3811TIP3    H232925   1.965   6.444   1.302 -0.0992 -1.0727  2.7241
 3812TIP3   OH232926   4.656   6.532   4.979 -0.2822 -0.9157  0.0324
 3812TIP3    H132927   4.567   6.549   4.950  0.2698 -0.6861 -1.6914
 3812TIP3    H232928   4.692   6.472   4.912  1.5566  0.8358 -0.6569
 3813TIP3   OH232929   0.301   6.327   4.355 -0.6380  0.0991  0.2386
 3813TIP3    H132930   0.209   6.318   4.330 -0.9452 -0.9055  1.5991
 3813TIP3    H232931   0.308   6.416   4.389 -1.3826 -0.1807  1.1479
 3814TIP3   OH232932   6.438   1.850  16.985  0.4217 -0.6490  0.9887
 3814TIP3    H132933   6.382   1.863  16.908  1.5108 -0.0856  0.2605
 3814TIP3    H232934   6.392   1.894  17.056  0.8731  1.6073 -0.0258
 3815TIP3   OH232935   0.266   5.464  14.160 -0.0414  0.8164  0.7989
 3815TIP3    H132936   0.358   5.449  14.139 -0.2122  0.0175  0.5660
 3815TIP3    H232937   0.246   5.398  14.227 -0.2497  1.4854  1.4097
 3816TIP3   OH232938   3.548   5.873   0.548  1.0343 -0.1479  0.4454
 3816TIP3    H132939   3.623   5.841   0.498  1.3671 -2.0975  2.0620
 3816TIP3    H232940   3.565   5.843   0.638 -2.1935 -1.7226  0.6657
 3817TIP3   OH232941   2.997   3.754   5.197  0.4029  0.0546  0.3613
 3817TIP3    H132942   2.986   3.849   5.192 -2.2574 -0.1179  1.2497
 3817TIP3    H232943   2.959   3.721   5.116  1.1157 -0.2901  0.1553
 3818TIP3   OH232944   0.163   5.860  15.366  0.0022 -0.1829 -0.3820
 3818TIP3    H132945   0.133   5.950  15.380  2.4172  0.5052  0.8882
 3818TIP3    H232946   0.233   5.867  15.301 -0.4800 -1.3135 -1.0567
 3819TIP3   OH232947   1.778   2.569  13.874  0.3229  0.1452 -0.0193
 3819TIP3    H132948   1.693   2.540  13.908  0.8562 -4.4965 -1.8719
 3819TIP3    H232949   1.759   2.646  13.822 -2.5190  0.0101  0.6774
 3820TIP3   OH232950   2.055   5.435  14.032  0.3154 -0.3632  0.0882
 3820TIP3    H132951   2.136   5.395  14.063 -0.8047 -0.8524  2.7053
 3820TIP3    H232952   1.990   5.365  14.038 -0.7227  0.5765  0.1587
 3821TIP3   OH232953   3.300   6.248   7.139 -0.1124  0.8190 -0.1765
 3821TIP3    H132954   3.280   6.314   7.073  1.5361  0.8432 -0.6974
 3821TIP3    H232955   3.366   6.192   7.098  0.2757  0.2906  1.1127
 3822TIP3   OH232956   6.664   0.769  11.070  0.2804 -0.4980  0.4158
 3822TIP3    H132957   6.709   0.800  10.990  2.3541  0.4080  1.8363
 3822TIP3    H232958   6.626   0.685  11.045  1.6404 -0.6640 -1.3074
 3823TIP3   OH232959   0.287   2.558   4.034  0.0274  0.3265  0.0149
 3823TIP3    H132960   0.376   2.536   4.063 -0.7547 -1.4933  1.2679
 3823TIP3    H232961   0.255   2.617   4.102  0.3516  1.1821 -0.5694
 3824TIP3   OH232962   1.808   5.224   4.408  0.3958  0.0510  0.7646
 3824TIP3    H132963   1.747   5.244   4.337 -0.7424 -1.1033  1.3878
 3824TIP3    H232964   1.756   5.235   4.488  0.9073 -1.2403  1.2888
 3825TIP3   OH232965   2.254   6.339  11.627  0.1705 -0.0473 -0.3911
 3825TIP3    H132966   2.180   6.320  11.570 -0.8876  1.8108  0.2507
 3825TIP3    H232967   2.227   6.304  11.712  1.3045 -1.9086 -0.7586
 3826TIP3   OH232968   3.502   6.267  11.942 -0.4539 -0.0111  0.2456
 3826TIP3    H132969   3.577   6.326  11.932  0.2813 -0.9600 -0.0838
 3826TIP3    H232970   3.535   6.182  11.911 -1.9986 -0.2201 -0.9252
 3827TIP3   OH232971   3.997   1.176  14.850  0.1216  0.1629  0.2135
 3827TIP3    H132972   3.912   1.207  14.818 -0.1651  0.0534  0.8594
 3827TIP3    H232973   4.014   1.096  14.800  0.7819  1.2166 -1.3367
 3828TIP3   OH232974   4.894   4.054   4.373  0.3928  0.4739  0.0055
 3828TIP3    H132975   4.932   4.079   4.457  0.9150  1.0094 -0.3936
 3828TIP3    H232976   4.920   3.962   4.361  0.1279  0.3259  0.5251
 3829TIP3   OH232977   2.041   1.331  11.626 -0.1947  0.3026  0.2198
 3829TIP3    H132978   2.002   1.245  11.646  2.4743 -2.0415 -3.4679
 3829TIP3    H232979   2.123   1.332  11.675  0.3326  0.1898 -0.6455
 3830TIP3   OH232980   5.418   2.304   4.119  0.2366 -0.5227  0.0678
 3830TIP3    H132981   5.481   2.305   4.191  0.3456  0.7925 -0.0334
 3830TIP3    H232982   5.471   2.311   4.040  0.0240 -0.3938 -0.0658
 3831TIP3   OH232983   5.884   0.293  12.951 -0.6402 -0.1325 -0.1378
 3831TIP3    H132984   5.893   0.197  12.951 -0.6341 -0.1387  0.6369
 3831TIP3    H232985   5.964   0.325  12.992 -0.0534  0.2815 -1.5698
 3832TIP3   OH232986   0.693   3.057  13.516 -0.3477 -0.0666  0.0743
 3832TIP3    H132987   0.784   3.042  13.541 -0.5181 -0.0524  0.7250
 3832TIP3    H232988   0.650   2.973  13.531 -0.1447 -0.5080 -1.6538
 3833TIP3   OH232989   3.751   4.077   5.203  0.7356 -0.4647 -0.2658
 3833TIP3    H132990   3.726   4.006   5.261 -0.7854 -0.8026 -1.2761
 3833TIP3    H232991   3.823   4.042   5.150  0.0515 -1.2237 -0.6987
 3834TIP3   OH232992   0.418   5.300  11.665 -0.4167  0.1108 -0.1221
 3834TIP3    H132993   0.465   5.220  11.690  0.4334  0.4527 -0.5761
 3834TIP3    H232994   0.327   5.272  11.655 -0.7292 -0.1675  2.7079
 3835TIP3   OH232995   5.773   5.651  11.013 -0.0408 -0.2256  0.4691
 3835TIP3    H132996   5.762   5.741  10.982 -1.5340  0.2273  2.1948
 3835TIP3    H232997   5.763   5.598  10.934  0.4259  1.0732 -0.5101
 3836TIP3   OH232998   3.221   4.216  13.548 -0.1876  0.4929  0.2329
 3836TIP3    H132999   3.289   4.182  13.490 -0.6708 -1.7137  0.8694
 3836TIP3    H233000   3.143   4.165  13.527 -0.6048  0.2197  2.2130
 3837TIP3   OH233001   0.492   3.993   3.254 -0.2517 -0.5250  0.3079
 3837TIP3    H133002   0.462   3.939   3.328 -0.0513 -1.1711 -0.0753
 3837TIP3    H233003   0.547   4.060   3.294 -1.0682 -0.1661  0.8711
 3838TIP3   OH233004   0.756   1.637  15.361  0.7152  0.5944  0.6382
 3838TIP3    H133005   0.793   1.717  15.323  2.0588 -0.5336 -0.5411
 3838TIP3    H233006   0.812   1.567  15.329 -2.2410 -1.2511 -1.0003
 3839TIP3   OH233007   2.259   0.975  14.495 -0.1629 -0.5479 -0.2113
 3839TIP3    H133008   2.300   1.021  14.568 -3.4174 -0.6003  1.8745
 3839TIP3    H233009   2.183   1.029  14.473 -2.1613 -3.0891 -0.0054
 3840TIP3   OH233010   3.763   6.370   0.379  0.4078 -0.6669 -0.7411
 3840TIP3    H133011   3.754   6.365   0.475  0.4843 -2.3938 -0.7814
 3840TIP3    H233012   3.822   6.443   0.364 -0.9250  0.7325  0.4268
 3841TIP3   OH233013   1.191   1.222   1.813 -0.4751  0.0350  0.4425
 3841TIP3    H133014   1.188   1.198   1.720  2.0244 -0.9759  0.5454
 3841TIP3    H233015   1.175   1.316   1.814 -0.6446  0.0439 -0.9999
 3842TIP3   OH233016   1.862   3.355  13.292 -0.7040  0.2602 -0.2054
 3842TIP3    H133017   1.814   3.271  13.294 -0.6911  0.2683  1.5400
 3842TIP3    H233018   1.835   3.400  13.371 -0.8566  2.0362 -1.2167
 3843TIP3   OH233019   1.348   1.184  12.325  0.2399 -0.1542 -0.5060
 3843TIP3    H133020   1.320   1.238  12.399 -0.4307 -1.1866  0.0300
 3843TIP3    H233021   1.443   1.173  12.338  0.1803 -0.0669  0.0400
 3844TIP3   OH233022   3.303   1.220   6.154 -0.4231 -0.6791  0.7306
 3844TIP3    H133023   3.391   1.256   6.163 -0.0329 -1.2938 -0.3958
 3844TIP3    H233024   3.317   1.126   6.146 -1.2982 -0.9256  1.8856
 3845TIP3   OH233025   1.052   1.370  13.359  0.6065  0.3741 -0.4882
 3845TIP3    H133026   1.119   1.350  13.293 -0.0061  2.8973 -2.0487
 3845TIP3    H233027   1.044   1.466  13.356 -1.3929  0.3512  1.3732
 3846TIP3   OH233028   2.516   1.673   5.446 -0.1557  0.1685 -0.4822
 3846TIP3    H133029   2.564   1.701   5.524  0.0672 -0.7511 -0.2805
 3846TIP3    H233030   2.436   1.634   5.479 -0.4287  0.4825 -0.7605
 3847TIP3   OH233031   3.197   2.320   6.188  0.4413 -0.3922  0.0390
 3847TIP3    H133032   3.230   2.331   6.099  0.0309  0.0227 -0.0648
 3847TIP3    H233033   3.189   2.409   6.222 -1.0578 -0.4318 -0.1277
 3848TIP3   OH233034   6.231   6.124  15.730  0.6303  0.2386 -0.8249
 3848TIP3    H133035   6.207   6.109  15.822  0.1707  0.7747 -0.8523
 3848TIP3    H233036   6.261   6.038  15.699 -0.3276 -0.2216 -0.5061
 3849TIP3   OH233037   3.983   1.504  16.421 -0.2919  0.2613 -0.4912
 3849TIP3    H133038   4.049   1.452  16.466  0.4990  0.8042 -0.9986
 3849TIP3    H233039   3.944   1.444  16.357  0.5273  0.2429 -0.9836
 3850TIP3   OH233040   5.776   5.085  13.827  0.2009  0.8448  0.2159
 3850TIP3    H133041   5.748   5.051  13.741  0.9445  2.3042 -0.6459
 3850TIP3    H233042   5.698   5.128  13.862 -1.2148 -2.7666  1.9889
 3851TIP3   OH233043   1.276   4.539   2.799 -0.2541  0.6590  0.3924
 3851TIP3    H133044   1.224   4.483   2.858 -2.2782  0.7130 -1.2592
 3851TIP3    H233045   1.218   4.611   2.777  1.3560  1.9586  0.2414
 3852TIP3   OH233046   6.255   5.440   5.203 -0.0881  0.0949 -0.0010
 3852TIP3    H133047   6.209   5.492   5.137  0.3571  0.5176  0.0158
 3852TIP3    H233048   6.218   5.469   5.286  0.3963  0.6306  0.0305
 3853TIP3   OH233049   4.109   0.828  13.725 -0.5910  0.1772  0.1098
 3853TIP3    H133050   4.133   0.856  13.636 -0.6076  1.4085  0.4650
 3853TIP3    H233051   4.158   0.748  13.740  0.8731  0.9549 -0.3352
 3854TIP3   OH233052   5.499   1.640   3.898 -0.1952 -0.0167  0.2881
 3854TIP3    H133053   5.464   1.554   3.920 -0.1270 -0.0606  0.2248
 3854TIP3    H233054   5.456   1.699   3.959  2.5667 -0.5744  3.0259
 3855TIP3   OH233055   3.504   1.420  12.322 -0.0362  0.2831  0.7198
 3855TIP3    H133056   3.581   1.437  12.376 -0.9296  0.9886  1.8158
 3855TIP3    H233057   3.481   1.506  12.286 -2.2435  0.7928  3.0953
 3856TIP3   OH233058   5.537   4.949   1.095  0.0684 -0.1998 -0.1120
 3856TIP3    H133059   5.560   4.968   1.004 -1.4477  0.4098 -0.4044
 3856TIP3    H233060   5.536   5.035   1.137  1.0587 -0.5116  0.5696
 3857TIP3   OH233061   5.471   0.928  17.665  0.3303 -0.1019  0.0641
 3857TIP3    H133062   5.455   0.903  17.756  0.1670 -0.9697 -0.1889
 3857TIP3    H233063   5.513   1.014  17.670  0.9179 -0.4325  0.9805
 3858TIP3   OH233064   6.470   5.303   4.455  0.6655 -0.7689  0.1059
 3858TIP3    H133065   6.377   5.282   4.441  0.7981 -1.8001  0.6869
 3858TIP3    H233066   6.514   5.266   4.379  0.7091 -1.1728  0.3245
 3859TIP3   OH233067   2.309   3.180  12.449  0.2718  0.0528 -0.4168
 3859TIP3    H133068   2.399   3.173  12.416  0.9607 -0.1447  1.4184
 3859TIP3    H233069   2.312   3.253  12.511 -1.3183  1.3264 -1.7414
 3860TIP3   OH233070   2.012   4.992   4.651 -0.1401 -0.3937 -0.6272
 3860TIP3    H133071   2.035   4.941   4.729 -2.6206 -1.7606 -0.7052
 3860TIP3    H233072   1.981   4.928   4.587 -0.5849  0.9368 -1.8163
 3861TIP3   OH233073   5.082   5.496  16.762 -0.5819  0.5693 -0.0078
 3861TIP3    H133074   5.024   5.537  16.825 -0.4086  0.4744  0.2119
 3861TIP3    H233075   5.111   5.567  16.705  0.6750  0.9876  1.0920
 3862TIP3   OH233076   6.660   3.657   3.920  0.1222 -0.1939 -0.3532
 3862TIP3    H133077   6.590   3.711   3.957  2.5840  1.3766  2.3766
 3862TIP3    H233078   6.677   3.694   3.833 -2.4260 -0.7328 -1.1707
 3863TIP3   OH233079   1.578   1.775  16.142 -0.2430 -0.1014 -0.3827
 3863TIP3    H133080   1.623   1.691  16.140  0.8098  0.4443 -1.4491
 3863TIP3    H233081   1.496   1.760  16.095  0.0029 -0.5055 -0.6850
 3864TIP3   OH233082   5.774   4.116  15.210  0.1743  0.1254  0.0554
 3864TIP3    H133083   5.798   4.168  15.287  1.4583 -1.0258  0.4710
 3864TIP3    H233084   5.736   4.035  15.247 -1.8113  0.7022 -0.5764
 3865TIP3   OH233085   3.072   2.547  15.845  0.1032 -0.4568  0.1479
 3865TIP3    H133086   3.109   2.610  15.783 -0.7034  0.9857  1.0653
 3865TIP3    H233087   3.144   2.524  15.903  0.1041  0.7315  0.6535
 3866TIP3   OH233088   0.391   6.263   0.274 -0.6198 -0.3520  0.7358
 3866TIP3    H133089   0.296   6.256   0.269 -0.6674 -0.5677  1.8345
 3866TIP3    H233090   0.413   6.242   0.365  0.6018 -1.6402  0.1853
 3867TIP3   OH233091   4.478   1.722  14.796 -0.3746  0.2805 -0.1415
 3867TIP3    H133092   4.453   1.812  14.773 -0.5408  1.0030  2.4861
 3867TIP3    H233093   4.395   1.674  14.797 -0.6602  0.7545  0.8719
 3868TIP3   OH233094   0.375   5.254  14.934 -0.3039 -0.1771  0.0714
 3868TIP3    H133095   0.336   5.268  14.848 -0.0285 -0.6085 -0.1257
 3868TIP3    H233096   0.352   5.333  14.983 -0.9273 -0.1662 -0.2225
 3869TIP3   OH233097   1.544   1.767  13.950  0.1227 -0.7297  0.2666
 3869TIP3    H133098   1.580   1.819  14.022 -0.4228 -1.6244  1.2136
 3869TIP3    H233099   1.620   1.740  13.899  0.6225 -0.9314  1.0924
 3870TIP3   OH233100   1.433   1.501  15.426  0.2182 -0.0990 -0.0615
 3870TIP3    H133101   1.410   1.440  15.496 -1.3059  1.3348  0.7806
 3870TIP3    H233102   1.526   1.521  15.441  0.7481 -2.1460 -0.3680
 3871TIP3   OH233103   1.406   2.300   6.278  0.1555 -0.7140 -0.0347
 3871TIP3    H133104   1.494   2.276   6.309  0.3464 -0.7808 -0.6054
 3871TIP3    H233105   1.420   2.381   6.228 -0.0007 -1.0568 -0.6507
 3872TIP3   OH233106   0.072   6.319  12.533 -0.3047  0.7108  0.4340
 3872TIP3    H133107   0.140   6.332  12.600 -1.5608  0.4164  1.8057
 3872TIP3    H233108   0.059   6.406  12.496  1.7714  0.5562 -0.8713
 3873TIP3   OH233109   2.339   5.191  14.229 -0.1101  0.2680 -0.8400
 3873TIP3    H133110   2.409   5.142  14.187 -1.0773 -1.9886  0.0509
 3873TIP3    H233111   2.360   5.186  14.323 -1.4236 -0.4110 -0.5698
 3874TIP3   OH233112   6.703   3.179   6.605 -0.6795  0.4444 -0.4237
 3874TIP3    H133113   6.769   3.111   6.596  2.1564  3.0028 -0.5612
 3874TIP3    H233114   6.671   3.171   6.694  1.9250  0.7926  0.6251
 3875TIP3   OH233115   5.325   3.853   5.230  0.0692  0.2871  0.0981
 3875TIP3    H133116   5.395   3.858   5.294  0.8447 -0.0320 -0.6972
 3875TIP3    H233117   5.269   3.781   5.260  0.2614  0.3355  0.5698
 3876TIP3   OH233118   6.045   0.784   2.906  0.7193  0.2522  0.5889
 3876TIP3    H133119   6.115   0.787   2.971 -0.0033 -0.3180  1.4207
 3876TIP3    H233120   5.972   0.741   2.951 -0.9587  2.7933  0.5277
 3877TIP3   OH233121   5.657   4.296  11.587 -0.2290 -0.2003  0.6992
 3877TIP3    H133122   5.752   4.287  11.596 -0.0201  0.1302 -0.9972
 3877TIP3    H233123   5.635   4.371  11.644  0.2263 -1.3862  2.5252
 3878TIP3   OH233124   0.066   3.991   3.907  0.0557 -0.1632  0.5185
 3878TIP3    H133125   0.020   3.958   3.830  0.4565  0.0765  0.1677
 3878TIP3    H233126   0.032   4.079   3.920  0.7604  0.2040 -0.0448
 3879TIP3   OH233127   0.015   6.717  12.783  1.0892 -0.5432 -0.1821
 3879TIP3    H133128   0.052   6.720  12.871 -0.3891 -1.5131  0.4982
 3879TIP3    H233129  -0.031   6.800  12.774  2.1180  0.0186 -0.4703
 3880TIP3   OH233130   6.277   5.903   6.445 -0.2322  0.0258 -0.0327
 3880TIP3    H133131   6.259   5.990   6.481 -0.9210 -0.5023  0.9347
 3880TIP3    H233132   6.314   5.854   6.518  2.0288  0.0375 -1.0636
 3881TIP3   OH233133   4.915   0.793   4.035 -0.4079  0.3064 -0.0239
 3881TIP3    H133134   4.977   0.737   4.081  1.3035  0.3408 -2.1401
 3881TIP3    H233135   4.830   0.751   4.049  0.4422 -1.2435  0.7440
 3882TIP3   OH233136   0.855   2.998   3.796 -0.0973  0.0306  0.3006
 3882TIP3    H133137   0.837   2.958   3.711 -0.0071 -0.4137  0.4871
 3882TIP3    H233138   0.885   3.087   3.775  2.3625 -0.8537 -0.3123
 3883TIP3   OH233139   0.790   0.453  17.078  0.1317  0.5761 -0.0170
 3883TIP3    H133140   0.791   0.518  17.008 -0.9199  0.7804  0.1313
 3883TIP3    H233141   0.874   0.463  17.123  0.9408  0.2369 -1.4200
 3884TIP3   OH233142   4.432   2.754  14.442  0.1136 -0.0616  0.3287
 3884TIP3    H133143   4.479   2.790  14.516  2.5177 -0.7385 -0.7591
 3884TIP3    H233144   4.379   2.826  14.409  2.7107  1.7814 -0.1532
 3885TIP3   OH233145   1.812   0.251   0.763 -0.1460  0.4181 -0.6389
 3885TIP3    H133146   1.897   0.220   0.732  0.1243  1.0361 -0.5341
 3885TIP3    H233147   1.834   0.317   0.828 -0.6798  2.0210 -2.0215
 3886TIP3   OH233148   4.616   2.700  13.159  0.4830  0.2907 -0.1118
 3886TIP3    H133149   4.608   2.751  13.078 -0.3714 -0.2226 -0.3657
 3886TIP3    H233150   4.540   2.641  13.157  1.2001 -0.6653  0.4030
 3887TIP3   OH233151   2.475   0.481   1.382 -0.2378 -0.1625 -0.3607
 3887TIP3    H133152   2.388   0.509   1.411 -0.6082  1.7358 -2.9523
 3887TIP3    H233153   2.530   0.559   1.392  0.9010 -0.9902  0.0962
 3888TIP3   OH233154   2.810   3.806   5.503 -0.1286 -1.0118  0.1161
 3888TIP3    H133155   2.730   3.858   5.508 -0.9047 -1.8726 -2.1969
 3888TIP3    H233156   2.881   3.870   5.517 -1.1421 -0.0307  0.9545
 3889TIP3   OH233157   0.093   3.731   6.456 -0.2021  0.1035 -0.7082
 3889TIP3    H133158   0.051   3.655   6.498  0.5288  0.1991  0.2227
 3889TIP3    H233159   0.020   3.779   6.417 -0.9146 -0.0266  0.4033
 3890TIP3   OH233160   4.783   2.064   1.013  0.0452  0.1257 -0.1777
 3890TIP3    H133161   4.706   2.121   1.013  0.7028  1.0534 -1.0679
 3890TIP3    H233162   4.824   2.079   0.928  1.0708 -0.5415  0.1751
 3891TIP3   OH233163   5.424   0.127  16.663  0.1950  0.1060  0.4200
 3891TIP3    H133164   5.411   0.193  16.594 -0.5350  1.0870  1.4599
 3891TIP3    H233165   5.346   0.072  16.659  0.0839  0.2529  0.5544
 3892TIP3   OH233166   2.757   6.424   4.413  0.6293 -0.3594  0.2213
 3892TIP3    H133167   2.707   6.343   4.422 -1.1874  0.6862 -0.1056
 3892TIP3    H233168   2.692   6.493   4.412  2.1575  1.1762  0.9303
 3893TIP3   OH233169   0.350   0.200   1.167  0.3539  0.6601 -0.2437
 3893TIP3    H133170   0.431   0.244   1.139  0.4616  1.0171  0.5813
 3893TIP3    H233171   0.361   0.190   1.262  0.8445 -2.2058 -0.5216
 3894TIP3   OH233172   1.480   6.014   4.271 -0.0687  0.1752  0.4963
 3894TIP3    H133173   1.471   5.943   4.208  1.2852  1.2063 -0.9315
 3894TIP3    H233174   1.516   5.973   4.349  0.9046 -0.6865 -0.3830
 3895TIP3   OH233175   0.394   5.053   3.969  0.4249  0.8363 -0.2237
 3895TIP3    H133176   0.323   5.002   3.931  0.4112 -0.3834  1.3171
 3895TIP3    H233177   0.350   5.117   4.026  0.5078 -0.3136  1.2060
 3896TIP3   OH233178   4.761   3.661   4.141  1.0080  0.2127 -0.8830
 3896TIP3    H133179   4.677   3.625   4.169  0.4363  1.2416 -1.2265
 3896TIP3    H233180   4.744   3.695   4.053  1.9367 -0.0756 -1.1873
 3897TIP3   OH233181   2.589   2.220   0.693 -0.3450 -0.2313 -0.2504
 3897TIP3    H133182   2.617   2.310   0.678 -0.6685 -0.0841  0.0188
 3897TIP3    H233183   2.495   2.221   0.676 -0.3658 -0.4973 -0.1534
 3898TIP3   OH233184   6.670   1.425  14.917  0.1910  0.4098  0.5380
 3898TIP3    H133185   6.759   1.444  14.890  0.3808 -0.5608  0.4134
 3898TIP3    H233186   6.621   1.417  14.835 -0.0478  1.1140  0.6120
 3899TIP3   OH233187   6.393   1.663  11.538 -0.0270  0.0100 -0.2444
 3899TIP3    H133188   6.370   1.727  11.469 -0.7477 -1.0248 -0.9908
 3899TIP3    H233189   6.486   1.644  11.522 -0.3233 -0.6261 -1.2839
 3900TIP3   OH233190   2.380   0.019  11.117  0.5695  0.1574  0.2940
 3900TIP3    H133191   2.475   0.033  11.116  0.3891  1.5383 -0.0770
 3900TIP3    H233192   2.355   0.034  11.208  0.7357 -0.4419  0.4393
 3901TIP3   OH233193   3.203   6.210   6.227  0.6135 -0.3557 -0.3834
 3901TIP3    H133194   3.263   6.189   6.299 -1.6826 -2.0288  1.1650
 3901TIP3    H233195   3.132   6.147   6.236 -1.5264  1.6860 -1.9563
 3902TIP3   OH233196   1.267   3.605   2.602  0.4550 -0.2509 -0.1861
 3902TIP3    H133197   1.268   3.594   2.507 -0.7052  3.5719 -0.8174
 3902TIP3    H233198   1.346   3.656   2.621 -0.8551  1.6625  0.3740
 3903TIP3   OH233199   6.697   5.543  12.825 -0.2257 -0.1781 -0.0772
 3903TIP3    H133200   6.764   5.479  12.849 -0.1969 -0.2175 -0.2555
 3903TIP3    H233201   6.738   5.595  12.755  0.5060  1.3596  1.4217
 3904TIP3   OH233202   4.500   1.569  10.585  0.1016 -0.6762 -0.1949
 3904TIP3    H133203   4.416   1.552  10.626  0.0229  0.8411  0.3394
 3904TIP3    H233204   4.491   1.656  10.547  1.0995 -0.9140 -1.0080
 3905TIP3   OH233205   0.771   6.040   4.788 -0.3841  0.0611 -0.2172
 3905TIP3    H133206   0.678   6.063   4.794 -0.0155  1.5916  0.0522
 3905TIP3    H233207   0.795   6.057   4.697 -0.6588 -1.6381 -0.6433
 3906TIP3   OH233208   1.316   5.144  11.250  0.4462  0.2946 -0.3958
 3906TIP3    H133209   1.260   5.205  11.202  1.0051  0.6203 -0.6457
 3906TIP3    H233210   1.390   5.128  11.191  1.6615  1.4919  0.7323
 3907TIP3   OH233211   4.138   0.214  12.877 -0.6257  0.0735 -0.3818
 3907TIP3    H133212   4.177   0.270  12.944 -1.4839 -0.2262  0.3897
 3907TIP3    H233213   4.096   0.144  12.926 -2.5968  0.6643 -1.1408
 3908TIP3   OH233214   2.692   2.685  13.306 -0.4184 -0.0688  0.1350
 3908TIP3    H133215   2.702   2.700  13.400  1.7377  0.2270 -0.0946
 3908TIP3    H233216   2.780   2.693  13.271 -1.0552 -1.0005 -1.8157
 3909TIP3   OH233217   3.442   4.814  11.889 -0.1204 -0.0405  0.1205
 3909TIP3    H133218   3.415   4.742  11.946 -2.0714 -0.5339 -1.3285
 3909TIP3    H233219   3.439   4.891  11.945 -3.7811 -0.2027  0.4069
 3910TIP3   OH233220   6.309   3.845  14.783  0.6490  0.1496 -0.5391
 3910TIP3    H133221   6.319   3.752  14.765  0.9576  0.3874 -1.6229
 3910TIP3    H233222   6.398   3.880  14.785  0.6259  0.1951  1.2272
 3911TIP3   OH233223   2.005   4.123  12.198  0.6640 -0.4444  0.4477
 3911TIP3    H133224   2.025   4.205  12.151  0.8918 -0.0427  1.2292
 3911TIP3    H233225   2.018   4.145  12.290  0.6041 -1.3374  0.6728
 3912TIP3   OH233226   2.500   4.843   4.265 -0.4015  0.2440 -0.1889
 3912TIP3    H133227   2.544   4.870   4.184 -0.0115 -0.8239 -0.3490
 3912TIP3    H233228   2.546   4.891   4.334  0.3098 -0.0386 -0.4583
 3913TIP3   OH233229   0.041   3.766   6.101 -0.1784 -0.0967 -0.4208
 3913TIP3    H133230  -0.019   3.782   6.028 -0.7136 -1.7446 -0.3930
 3913TIP3    H233231   0.015   3.830   6.168 -1.5449 -0.3800 -0.6416
 3914TIP3   OH233232   0.448   1.591   5.489 -0.0079 -0.2999 -0.4777
 3914TIP3    H133233   0.422   1.638   5.410 -0.8981 -0.5289 -0.3374
 3914TIP3    H233234   0.406   1.505   5.480  0.8567 -0.7436 -0.3111
 3915TIP3   OH233235   6.081   4.585   5.163 -0.1707  0.4525 -0.2262
 3915TIP3    H133236   6.093   4.630   5.247  0.8317 -0.7917  0.3235
 3915TIP3    H233237   6.070   4.493   5.186  0.7989 -0.0135 -1.4851
 3916TIP3   OH233238   5.662   1.011  16.514 -0.3304  0.0122 -0.7550
 3916TIP3    H133239   5.594   0.955  16.553  0.5095 -0.7128 -0.2840
 3916TIP3    H233240   5.675   0.975  16.426  0.2957 -0.6311 -0.4092
 3917TIP3   OH233241   6.495   6.677   2.106 -0.7238 -0.4203 -0.1020
 3917TIP3    H133242   6.454   6.735   2.042  0.8956  0.0591 -0.7620
 3917TIP3    H233243   6.430   6.608   2.122 -2.1691  0.8428 -0.2911
 3918TIP3   OH233244   5.361   3.403  16.688  0.1752 -0.7292  0.7670
 3918TIP3    H133245   5.350   3.476  16.748  2.0262  0.3042 -0.0459
 3918TIP3    H233246   5.366   3.443  16.601  0.1483 -1.9308  0.1852
 3919TIP3   OH233247   6.457   4.177  16.303  0.4404 -0.5381 -0.3689
 3919TIP3    H133248   6.457   4.272  16.310 -0.5399 -0.5841  0.4816
 3919TIP3    H233249   6.365   4.153  16.297  0.3944 -1.6104  2.8468
 3920TIP3   OH233250   5.828   3.453  15.303 -0.3748 -0.1774 -0.3512
 3920TIP3    H133251   5.753   3.496  15.344 -0.6201  0.0712 -1.0395
 3920TIP3    H233252   5.905   3.490  15.347 -0.5410  1.4729 -1.3485
 3921TIP3   OH233253   1.991   0.955   5.198 -0.2119 -0.0441 -0.3150
 3921TIP3    H133254   2.003   1.049   5.213  0.6317 -0.4075  1.5674
 3921TIP3    H233255   1.922   0.929   5.258 -0.0432 -0.7226 -0.4017
 3922TIP3   OH233256   1.750   4.067   4.212  0.3248 -0.2028  0.3633
 3922TIP3    H133257   1.824   4.015   4.180  0.0745  0.4457 -1.3969
 3922TIP3    H233258   1.751   4.145   4.157 -0.4609  0.7685  1.6853
 3923TIP3   OH233259   6.129   3.072  16.859  0.8270 -0.7322  0.8096
 3923TIP3    H133260   6.125   2.986  16.817 -0.4689  0.5291 -1.8679
 3923TIP3    H233261   6.223   3.088  16.870  1.1094 -2.2290  0.8692
 3924TIP3   OH233262   0.644   4.890  16.371 -0.2257 -0.4050 -0.1983
 3924TIP3    H133263   0.625   4.960  16.434  0.4428 -0.1591 -0.2514
 3924TIP3    H233264   0.740   4.889  16.366 -0.2428 -1.0708 -0.4924
 3925TIP3   OH233265   4.797   1.601  11.766 -0.2586  0.1523  0.1529
 3925TIP3    H133266   4.766   1.512  11.746  1.4599 -0.8359  1.6710
 3925TIP3    H233267   4.813   1.640  11.680 -1.5208 -0.7887 -0.5562
 3926TIP3   OH233268   3.581   6.046  13.177 -0.1454 -0.1363  0.6648
 3926TIP3    H133269   3.538   6.069  13.260 -0.2599  1.7131  0.1379
 3926TIP3    H233270   3.518   5.991  13.132 -1.8625  2.1445  0.1094
 3927TIP3   OH233271   0.520   5.404  14.044  0.2656  0.4077  0.0492
 3927TIP3    H133272   0.610   5.401  14.073  0.3352  1.1503 -0.0501
 3927TIP3    H233273   0.506   5.322  13.996  1.4738  1.1026 -1.5809
 3928TIP3   OH233274   4.684   4.902  15.678 -0.2558  0.0227 -0.0681
 3928TIP3    H133275   4.721   4.907  15.766 -2.1011  1.6039  0.6801
 3928TIP3    H233276   4.622   4.974  15.674 -1.9304 -1.4064 -1.8606
 3929TIP3   OH233277   6.525   0.347  14.555 -0.4405 -0.6389  0.6017
 3929TIP3    H133278   6.619   0.333  14.542 -0.5883 -1.7540  0.6602
 3929TIP3    H233279   6.514   0.348  14.650  0.0366  3.3911  0.8019
 3930TIP3   OH233280   0.925   6.578  11.931  0.3679 -0.5096  0.7021
 3930TIP3    H133281   0.844   6.534  11.956  0.0416  0.9040  2.2601
 3930TIP3    H233282   0.916   6.668  11.963  0.7631  0.9740 -2.8879
 3931TIP3   OH233283   0.547   2.822  12.015  0.0141 -0.2687 -0.6179
 3931TIP3    H133284   0.556   2.825  12.110  0.8724  2.4615 -0.7253
 3931TIP3    H233285   0.618   2.765  11.986  0.5051 -0.1215  0.2846
 3932TIP3   OH233286   4.886   3.575   5.562  0.2648 -0.1048 -0.0339
 3932TIP3    H133287   4.963   3.523   5.542  0.4174  0.4895 -1.0513
 3932TIP3    H233288   4.914   3.634   5.632  0.2593 -0.9548  0.7040
 3933TIP3   OH233289   4.810   3.303   5.949  0.0430 -0.1542 -1.3478
 3933TIP3    H133290   4.728   3.332   5.909 -0.6969  0.0646  0.2757
 3933TIP3    H233291   4.784   3.264   6.032  1.6537  0.8688 -0.3004
 3934TIP3   OH233292   5.921   4.047   2.570 -0.1442  0.1980 -0.3642
 3934TIP3    H133293   5.833   4.068   2.539 -0.4702 -1.2459 -0.5226
 3934TIP3    H233294   5.970   4.025   2.490  0.7207  2.0997 -0.4001
 3935TIP3   OH233295   5.357   0.690   1.928 -0.1270  0.6722 -0.5284
 3935TIP3    H133296   5.426   0.751   1.954 -0.2407  0.8385 -0.6099
 3935TIP3    H233297   5.394   0.603   1.944  1.9811  0.4879 -4.9316
 3936TIP3   OH233298   0.689   0.199  14.467  0.1175 -0.4800 -0.4969
 3936TIP3    H133299   0.771   0.241  14.439  0.5316  0.4263  1.8179
 3936TIP3    H233300   0.716   0.138  14.536 -1.2090  0.5137  0.9742
 3937TIP3   OH233301   4.140   5.549   0.273 -0.7326 -0.3442 -0.7162
 3937TIP3    H133302   4.112   5.495   0.347  0.9280  0.1991  0.3569
 3937TIP3    H233303   4.072   5.535   0.206 -1.8587 -1.4647  0.5977
 3938TIP3   OH233304   1.661   6.240   5.805 -0.2253  0.2009  0.4402
 3938TIP3    H133305   1.590   6.211   5.862  0.6224  0.1611  1.5404
 3938TIP3    H233306   1.703   6.312   5.854  0.0951  0.6532 -0.4680
 3939TIP3   OH233307   1.810   2.241  17.068  0.1655 -0.4876  0.5613
 3939TIP3    H133308   1.759   2.319  17.049  1.6689  0.1384 -1.1212
 3939TIP3    H233309   1.878   2.270  17.129  0.9229 -0.3852 -0.3157
 3940TIP3   OH233310   0.295   2.945   0.506  0.1786 -0.1860 -0.1044
 3940TIP3    H133311   0.237   2.892   0.451  0.2501  0.5782 -0.9497
 3940TIP3    H233312   0.236   3.005   0.552  0.1587 -0.5265  0.3188
 3941TIP3   OH233313   0.974   1.172   0.535 -0.0220  0.5677  0.1710
 3941TIP3    H133314   0.909   1.113   0.575  0.2698  0.9768  1.2678
 3941TIP3    H233315   0.963   1.158   0.441 -1.4069  0.2996  0.3404
 3942TIP3   OH233316   0.272   0.732  12.946  0.2761  0.0783 -0.3402
 3942TIP3    H133317   0.345   0.676  12.973 -1.2144 -2.1547 -0.7137
 3942TIP3    H233318   0.279   0.809  13.003  1.6162 -1.0858  1.1757
 3943TIP3   OH233319   4.192   0.375   1.559 -0.1165 -0.1785 -0.1562
 3943TIP3    H133320   4.106   0.400   1.524  0.0413  0.9917  0.2267
 3943TIP3    H233321   4.224   0.455   1.602  1.4973 -0.3656 -0.9364
 3944TIP3   OH233322   5.419   5.104  16.728  0.2314 -0.6499 -0.5472
 3944TIP3    H133323   5.365   5.174  16.692  0.9135  0.0097 -0.3301
 3944TIP3    H233324   5.386   5.024  16.688  0.1500 -0.0808 -1.6531
 3945TIP3   OH233325   1.220   2.859   4.204  0.0001  0.5139  0.1011
 3945TIP3    H133326   1.204   2.785   4.146 -1.0436  0.1458  0.8356
 3945TIP3    H233327   1.266   2.923   4.149 -1.0130  0.2062 -1.1628
 3946TIP3   OH233328   6.078   5.332   5.468  0.0540  0.0964  0.0251
 3946TIP3    H133329   6.064   5.306   5.559 -1.4298  1.2106  0.1381
 3946TIP3    H233330   6.142   5.403   5.473 -0.7001  0.7698  0.2987
 3947TIP3   OH233331   2.238   0.190  11.719 -0.7234  0.2618  0.0733
 3947TIP3    H133332   2.251   0.100  11.690 -1.1696  0.1130  0.3164
 3947TIP3    H233333   2.299   0.242  11.667 -1.4477  0.0027 -1.0734
 3948TIP3   OH233334   2.169   6.096   0.015  0.2972 -0.6740  0.3051
 3948TIP3    H133335   2.095   6.041  -0.008 -0.3307  0.3674 -0.2528
 3948TIP3    H233336   2.129   6.179   0.043  1.2337 -0.2748  0.5045
 3949TIP3   OH233337   2.116   2.310   4.939 -0.8141 -0.6767  0.0751
 3949TIP3    H133338   2.145   2.221   4.957  2.4370  0.2149 -0.1053
 3949TIP3    H233339   2.066   2.335   5.016  0.7112 -1.7073  1.4724
 3950TIP3   OH233340   2.619   2.872   2.462  0.2218 -0.6768 -0.1330
 3950TIP3    H133341   2.591   2.863   2.553  1.4130  1.1766  0.4839
 3950TIP3    H233342   2.713   2.852   2.464  1.0809  2.7552 -0.1841
 3951TIP3   OH233343   5.713   3.372  12.999  0.2690  0.4144 -0.6632
 3951TIP3    H133344   5.788   3.361  13.057  0.4597  0.8725 -0.8205
 3951TIP3    H233345   5.721   3.299  12.937 -0.9440 -1.1716  0.9416
 3952TIP3   OH233346   2.019   1.187   4.281  0.3267  1.2199 -0.0160
 3952TIP3    H133347   1.936   1.140   4.290  0.2393  1.3226 -0.2792
 3952TIP3    H233348   2.015   1.255   4.348  0.1347  1.3129 -0.1185
 3953TIP3   OH233349   0.483   5.986   6.501 -0.2603 -0.3071 -0.0742
 3953TIP3    H133350   0.452   5.978   6.411  2.3167  2.0918 -1.3055
 3953TIP3    H233351   0.571   5.949   6.501 -0.6716 -1.4402  1.8156
 3954TIP3   OH233352   4.615   1.873   2.890 -0.2007  0.0611 -0.0029
 3954TIP3    H133353   4.681   1.807   2.913 -0.5477 -0.2490  0.0967
 3954TIP3    H233354   4.575   1.839   2.810 -1.5917 -0.7374  0.9850
 3955TIP3   OH233355   5.348   6.621   3.148 -0.3602  0.6863  0.2951
 3955TIP3    H133356   5.272   6.662   3.107  0.4987  1.8993 -0.1241
 3955TIP3    H233357   5.324   6.529   3.156 -1.0409  0.6164 -1.8436
 3956TIP3   OH233358   5.332   2.042   1.312 -1.1991 -0.0866  0.0788
 3956TIP3    H133359   5.344   1.955   1.275 -1.9044 -1.3309  2.5713
 3956TIP3    H233360   5.348   2.102   1.239  0.8070 -2.2195 -1.3516
 3957TIP3   OH233361   5.689   4.180  16.390 -0.3089 -0.0215 -0.2008
 3957TIP3    H133362   5.721   4.123  16.460 -1.9274 -0.6586  0.0636
 3957TIP3    H233363   5.600   4.149  16.373  0.0252  0.1743 -2.5140
 3958TIP3   OH233364   5.684   1.224  13.608  0.1787 -0.0761  0.1237
 3958TIP3    H133365   5.766   1.179  13.588  0.2266 -0.5130  1.2530
 3958TIP3    H233366   5.619   1.182  13.552  0.8447  0.8204 -1.3895
 3959TIP3   OH233367   0.911   2.092  16.842  0.0896  0.3229  0.1648
 3959TIP3    H133368   0.932   2.165  16.784  0.9245 -0.5892 -0.7411
 3959TIP3    H233369   0.851   2.038  16.791  1.5678 -0.9778 -0.3038
 3960TIP3   OH233370   1.404   2.985  15.545 -0.6500  0.0352 -0.0528
 3960TIP3    H133371   1.473   2.925  15.572 -0.6879  0.3870  0.8653
 3960TIP3    H233372   1.322   2.938  15.564 -0.6870  0.4625  0.9584
 3961TIP3   OH233373   6.009   3.271   3.807  0.8221 -0.1001 -0.6693
 3961TIP3    H133374   5.920   3.308   3.811  0.5713 -0.5058 -2.0393
 3961TIP3    H233375   6.023   3.252   3.714  3.1577  1.8946 -0.8473
 3962TIP3   OH233376   1.504   1.134  11.627  0.2079 -0.4163  0.2606
 3962TIP3    H133377   1.576   1.178  11.672  0.3984 -1.2154  0.7563
 3962TIP3    H233378   1.508   1.043  11.658  0.4852 -1.0510 -1.5372
 3963TIP3   OH233379   5.078   4.208  11.323  0.7812  0.4322  0.3814
 3963TIP3    H133380   5.001   4.262  11.341 -2.3626 -3.2364 -0.6314
 3963TIP3    H233381   5.115   4.189  11.409  0.5659  2.2106  0.9030
 3964TIP3   OH233382   4.312   1.829   3.067 -0.2042 -0.2982  0.3006
 3964TIP3    H133383   4.375   1.801   3.134 -0.6154 -0.5378  0.5979
 3964TIP3    H233384   4.227   1.827   3.112 -0.4332 -0.0472 -0.1121
 3965TIP3   OH233385   6.483   5.079  15.971 -0.5949  0.3196 -0.1130
 3965TIP3    H133386   6.563   5.026  15.974 -0.8821 -0.0824  0.5686
 3965TIP3    H233387   6.444   5.070  16.058 -1.2157  0.7717 -0.3349
 3966TIP3   OH233388   1.171   5.127   1.174  0.0783  0.3410 -0.0312
 3966TIP3    H133389   1.175   5.221   1.162 -1.7056  0.3733 -0.6074
 3966TIP3    H233390   1.201   5.091   1.090  0.9670  0.3650  0.2610
 3967TIP3   OH233391   6.333   3.470  16.709  0.0281 -0.0642 -0.1567
 3967TIP3    H133392   6.253   3.451  16.758 -0.4895  1.2847 -0.4535
 3967TIP3    H233393   6.343   3.565  16.713  1.6014 -0.1928 -0.1734
 3968TIP3   OH233394   0.159   5.159  12.271 -0.5266  0.0136 -0.3449
 3968TIP3    H133395   0.117   5.121  12.194 -0.9409 -0.8679  0.3091
 3968TIP3    H233396   0.153   5.091  12.338  2.2270 -0.2717 -0.3044
 3969TIP3   OH233397   1.100   1.662  13.831 -0.1240 -0.4974 -0.1311
 3969TIP3    H133398   1.093   1.718  13.754  0.7290  0.2576  0.3227
 3969TIP3    H233399   1.034   1.594  13.817 -2.2316  1.4110 -0.0316
 3970TIP3   OH233400   2.526   3.310   1.104  0.9135 -0.2115  0.3945
 3970TIP3    H133401   2.618   3.315   1.079  0.8248 -1.7020 -0.3263
 3970TIP3    H233402   2.483   3.270   1.028 -0.1827 -0.3218  1.0608
 3971TIP3   OH233403   0.754   2.429  14.508 -0.0050 -0.4495  0.0365
 3971TIP3    H133404   0.768   2.359  14.571  1.1322 -1.7455 -1.5901
 3971TIP3    H233405   0.715   2.386  14.432 -0.3173  0.8708 -0.5819
 3972TIP3   OH233406   6.082   5.308  12.968  0.4167  0.2110 -0.1035
 3972TIP3    H133407   5.998   5.280  13.005  1.1837 -2.7937 -0.3692
 3972TIP3    H233408   6.060   5.380  12.910 -1.6231  1.0848  1.6308
 3973TIP3   OH233409   3.067   0.858   0.054 -0.2136 -0.1904  0.1790
 3973TIP3    H133410   2.993   0.890   0.106  0.9192  2.0941  0.5297
 3973TIP3    H233411   3.112   0.796   0.111 -0.3175  0.4958  1.0270
 3974TIP3   OH233412   6.704   4.085   0.872  0.1456 -0.1704 -0.4039
 3974TIP3    H133413   6.666   4.095   0.959  0.5289 -0.4949 -0.2003
 3974TIP3    H233414   6.768   4.156   0.866 -0.6877  0.5764 -0.8663
 3975TIP3   OH233415   6.226   1.951   6.422 -0.3562 -0.5166  0.2713
 3975TIP3    H133416   6.261   1.971   6.508 -0.2636 -1.9216  0.5848
 3975TIP3    H233417   6.281   1.879   6.390 -0.2054  0.1748 -1.0868
 3976TIP3   OH233418   5.542   4.177  15.504 -0.0649 -0.2032  0.0129
 3976TIP3    H133419   5.488   4.099  15.518  0.9527 -0.7849  0.9569
 3976TIP3    H233420   5.630   4.142  15.488  0.0993  0.7172 -1.2734
 3977TIP3   OH233421   5.847   0.874   4.289  0.2328 -0.1316 -0.1218
 3977TIP3    H133422   5.801   0.918   4.361 -0.8799  1.9440 -2.0098
 3977TIP3    H233423   5.898   0.943   4.247  1.3642 -1.4468 -0.9858
 3978TIP3   OH233424   5.874   4.546  11.786  0.8672  0.0554  0.6714
 3978TIP3    H133425   5.885   4.631  11.745  0.7365 -0.5967 -0.8002
 3978TIP3    H233426   5.930   4.487  11.734  0.2481 -0.9135  1.0751
 3979TIP3   OH233427   0.893   2.490   5.233 -0.2375 -1.2563  0.6738
 3979TIP3    H133428   0.831   2.562   5.243  0.0318 -0.3722 -2.9457
 3979TIP3    H233429   0.978   2.530   5.248 -0.0788 -0.6782 -1.4449
 3980TIP3   OH233430   6.634   0.953  15.930  0.3488 -0.1811  0.7136
 3980TIP3    H133431   6.684   1.002  15.996  0.6431 -0.8707  1.0103
 3980TIP3    H233432   6.618   0.868  15.971 -2.6073  0.5677  1.3666
 3981TIP3   OH233433   6.550   0.121  12.531 -0.1108 -0.5783 -0.0226
 3981TIP3    H133434   6.472   0.173  12.547 -0.4240 -0.6816 -1.1377
 3981TIP3    H233435   6.619   0.167  12.580 -0.6319  0.1634  0.0402
 3982TIP3   OH233436   2.675   3.967  14.306  0.4389 -0.6645  0.2701
 3982TIP3    H133437   2.717   4.036  14.254  1.2722 -1.3597 -0.0098
 3982TIP3    H233438   2.693   3.991  14.397 -0.3610  0.1465  0.2283
 3983TIP3   OH233439   6.564   1.093   0.982  0.1898  0.5816  0.0145
 3983TIP3    H133440   6.510   1.065   0.908 -0.8713 -1.7935  1.5674
 3983TIP3    H233441   6.627   1.022   0.995  1.5140  1.7615  0.3609
 3984TIP3   OH233442   1.472   5.968   0.746  0.1795 -0.4183  0.5054
 3984TIP3    H133443   1.391   5.964   0.695  0.0017  0.7510  0.6791
 3984TIP3    H233444   1.502   6.058   0.738  1.0534 -0.6403  1.0930
 3985TIP3   OH233445   0.745   2.464  12.823 -0.3851 -0.2954 -0.5162
 3985TIP3    H133446   0.754   2.368  12.821  1.2846 -0.2152  0.6971
 3985TIP3    H233447   0.834   2.495  12.839 -1.2147  1.3738  1.1293
 3986TIP3   OH233448   0.371   3.305  14.554 -0.1737  0.2422 -0.3064
 3986TIP3    H133449   0.399   3.228  14.505 -0.9649  0.7113 -1.5357
 3986TIP3    H233450   0.315   3.271  14.623 -2.2706 -0.1809 -2.1136
 3987TIP3   OH233451   4.595   6.262  11.970  0.1924 -0.3425  0.3245
 3987TIP3    H133452   4.673   6.222  12.009  0.6492 -0.6881 -0.9106
 3987TIP3    H233453   4.588   6.222  11.884  0.2481  1.6961 -0.6824
 3988TIP3   OH233454   2.260   2.142  14.841 -0.0480 -0.2030  0.5471
 3988TIP3    H133455   2.309   2.203  14.897  2.4836 -1.6294  0.0582
 3988TIP3    H233456   2.280   2.055  14.878 -2.6263 -0.8704  0.5377
 3989TIP3   OH233457   5.328   6.185   5.664 -0.3493  0.2445 -0.0827
 3989TIP3    H133458   5.261   6.251   5.682  1.4852  2.2342 -0.1098
 3989TIP3    H233459   5.350   6.149   5.750 -1.2083 -0.2058 -0.0417
 3990TIP3   OH233460   2.995   2.633   5.848  0.6772  0.6849 -0.2054
 3990TIP3    H133461   2.989   2.556   5.904  0.4972  1.4524  0.8853
 3990TIP3    H233462   3.055   2.608   5.778 -0.6404 -0.9666 -0.7912
 3991TIP3   OH233463   5.989   0.237   6.074  0.6052  0.2596 -0.4706
 3991TIP3    H133464   6.041   0.292   6.015 -0.5819  0.4130 -1.4068
 3991TIP3    H233465   5.929   0.298   6.116  3.1641  0.7062  3.1104
 3992TIP3   OH233466   4.739   6.079  15.720 -0.2365  0.1156 -0.1585
 3992TIP3    H133467   4.748   6.097  15.626 -2.0418  0.3904 -0.3305
 3992TIP3    H233468   4.773   5.990  15.730 -1.0996 -0.3795 -1.3184
 3993TIP3   OH233469   1.304   5.787  13.417 -0.7518 -0.3379 -0.1289
 3993TIP3    H133470   1.225   5.819  13.374  0.9505  3.1085 -0.9940
 3993TIP3    H233471   1.304   5.830  13.502 -0.8481 -2.0901  0.8115
 3994TIP3   OH233472   6.111   0.873   5.969 -0.0158 -0.2457 -0.1430
 3994TIP3    H133473   6.073   0.945   5.919 -1.0103  0.0937  1.0500
 3994TIP3    H233474   6.196   0.857   5.927 -0.5603  0.3892 -1.5654
 3995TIP3   OH233475   2.862   3.248  12.414  0.2310 -0.5342 -0.0266
 3995TIP3    H133476   2.879   3.229  12.321  5.0087 -1.2620  0.7426
 3995TIP3    H233477   2.907   3.331  12.429 -0.8046 -0.2264  1.6140
 3996TIP3   OH233478   2.729   0.643   1.086 -0.3055 -0.2363  0.3383
 3996TIP3    H133479   2.687   0.711   1.034  3.5272 -0.3208 -3.4877
 3996TIP3    H233480   2.778   0.690   1.153 -1.3645  0.3357  0.7249
 3997TIP3   OH233481   1.634   3.782  16.001  0.3596  0.2064  0.4381
 3997TIP3    H133482   1.700   3.722  16.036  0.0725  0.1874  0.9497
 3997TIP3    H233483   1.637   3.858  16.058 -0.6774 -0.1650  1.0320
 3998TIP3   OH233484   5.398   5.423   3.855 -0.0755 -0.4447  0.8233
 3998TIP3    H133485   5.448   5.342   3.846 -0.1462 -0.7721  2.9631
 3998TIP3    H233486   5.312   5.403   3.817  0.4090 -0.8464 -0.0838
 3999TIP3   OH233487   2.166   4.010  15.146  0.5054  0.1113 -0.1020
 3999TIP3    H133488   2.172   4.097  15.183 -0.4695  0.2217 -0.1817
 3999TIP3    H233489   2.128   4.023  15.059  1.1955 -0.3036 -0.4737
 4000TIP3   OH233490   3.795   2.685  11.652  0.1884 -0.0480 -0.2492
 4000TIP3    H133491   3.863   2.632  11.611  0.8377 -1.5866  2.5057
 4000TIP3    H233492   3.833   2.772  11.659 -0.4567  0.6679 -3.8591
 4001TIP3   OH233493   2.786   1.521  12.044 -0.0458 -0.9126  0.5482
 4001TIP3    H133494   2.737   1.473  12.111 -0.9439 -1.6586 -0.6177
 4001TIP3    H233495   2.814   1.455  11.982 -1.6374  0.0468 -1.3050
 4002TIP3   OH233496   3.831   1.691   5.998  0.2617 -0.3603 -0.2135
 4002TIP3    H133497   3.738   1.668   6.001 -0.0723  0.9991  0.6246
 4002TIP3    H233498   3.849   1.702   5.904 -1.0623  1.7136 -0.2955
 4003TIP3   OH233499   2.628   0.674   2.581 -0.2208 -0.1527 -0.2428
 4003TIP3    H133500   2.608   0.672   2.675  0.7770  2.9938  0.1495
 4003TIP3    H233501   2.690   0.602   2.569 -0.3326 -0.5964  1.5222
 4004TIP3   OH233502   4.299   0.023   5.458 -0.0804  0.2828 -0.0416
 4004TIP3    H133503   4.325  -0.005   5.546  0.2709  0.3267 -0.1286
 4004TIP3    H233504   4.211   0.060   5.469 -0.8359 -1.4221 -0.0259
 4005TIP3   OH233505   3.006   1.766  16.121 -0.0231 -0.2389  0.1381
 4005TIP3    H133506   2.961   1.762  16.205 -0.6760  0.6878 -0.1587
 4005TIP3    H233507   3.089   1.810  16.140  1.6587 -3.4031  1.0224
 4006TIP3   OH233508   6.489   0.668  15.102  0.1477  0.4694  0.2919
 4006TIP3    H133509   6.449   0.607  15.040 -0.6493  1.7606 -0.4937
 4006TIP3    H233510   6.485   0.622  15.186 -1.3481 -0.1687 -0.0999
 4007TIP3   OH233511   3.522   2.602   1.143  0.5082  0.7169  0.1352
 4007TIP3    H133512   3.494   2.587   1.233 -1.0543  0.0103 -0.4288
 4007TIP3    H233513   3.584   2.530   1.126  2.8922  2.3317  1.4134
 4008TIP3   OH233514   5.420   3.849   0.802 -0.6447 -0.3356  0.2178
 4008TIP3    H133515   5.495   3.858   0.744 -0.1523  0.8102  0.9998
 4008TIP3    H233516   5.448   3.889   0.884 -2.2542  0.5145  0.3833
 4009TIP3   OH233517   0.847   2.001   0.291  0.0399 -0.3061 -0.0483
 4009TIP3    H133518   0.855   2.006   0.196  1.9827 -2.1604 -0.0509
 4009TIP3    H233519   0.877   2.086   0.323  0.3769 -0.0445 -1.0349
 4010TIP3   OH233520   1.271   4.253  17.133  0.0493 -0.7836 -0.1073
 4010TIP3    H133521   1.342   4.203  17.173  1.1167  0.6702 -0.1082
 4010TIP3    H233522   1.305   4.277  17.046 -0.0422  0.6940  0.2337
 4011TIP3   OH233523   5.638   1.127  17.433  0.7041 -0.0554 -0.3213
 4011TIP3    H133524   5.638   1.145  17.527  1.3027  0.3908 -0.3972
 4011TIP3    H233525   5.577   1.190  17.396  0.4569 -0.2410 -0.2309
 4012TIP3   OH233526   0.198   4.166  11.454 -0.3234  0.3536  0.6314
 4012TIP3    H133527   0.217   4.103  11.384  0.4986  0.4143  0.7886
 4012TIP3    H233528   0.105   4.183  11.446 -0.1547  0.7415 -0.7849
 4013TIP3   OH233529   5.062   1.976   0.250 -0.4792  0.4082  0.3486
 4013TIP3    H133530   5.016   2.043   0.300 -0.9823 -1.2075  2.1834
 4013TIP3    H233531   4.992   1.926   0.207 -0.3262 -0.4939  1.1015
 4014TIP3   OH233532   4.441   0.086  12.948 -1.0501  0.1044 -0.1665
 4014TIP3    H133533   4.536   0.079  12.948 -0.7699  1.9435 -2.8158
 4014TIP3    H233534   4.421   0.153  13.013 -0.4433  0.2744 -0.1548
 4015TIP3   OH233535   2.790   3.434  16.774  0.3003 -0.0968 -0.1051
 4015TIP3    H133536   2.719   3.481  16.818 -0.5113 -0.5308 -0.9299
 4015TIP3    H233537   2.782   3.344  16.805  1.8681  0.2599  1.4916
 4016TIP3   OH233538   5.400   5.904  12.764 -0.1402  0.2559  0.2069
 4016TIP3    H133539   5.335   5.871  12.827 -0.5161  0.5064 -0.0424
 4016TIP3    H233540   5.482   5.863  12.790 -0.3346  0.1957  0.7335
 4017TIP3   OH233541   2.748   0.735  14.668 -0.1414  0.2268 -0.0684
 4017TIP3    H133542   2.663   0.693  14.668 -0.3658  0.6329 -1.4792
 4017TIP3    H233543   2.803   0.678  14.722 -0.7524 -1.1949 -0.9021
 4018TIP3   OH233544   6.086   0.312   5.822 -0.6443  0.2172 -0.0277
 4018TIP3    H133545   6.064   0.362   5.744 -3.6410  0.0969  0.6151
 4018TIP3    H233546   6.085   0.220   5.793  1.0189  0.2645 -0.3675
 4019TIP3   OH233547   4.291   2.657   0.482  0.3819 -0.0203 -0.0165
 4019TIP3    H133548   4.313   2.635   0.391  0.3748 -2.6754  0.5434
 4019TIP3    H233549   4.359   2.720   0.508  0.2204  1.0231 -1.8996
 4020TIP3   OH233550   0.032   3.638   1.615 -0.4782  0.5676  0.5704
 4020TIP3    H133551   0.076   3.601   1.538  1.0931  2.8748  0.2478
 4020TIP3    H233552   0.089   3.614   1.688 -0.9615  0.0052  0.7735
 4021TIP3   OH233553   3.532   4.157   4.436 -0.2077 -0.0674  0.2630
 4021TIP3    H133554   3.526   4.249   4.411  1.0395  0.2050  0.8762
 4021TIP3    H233555   3.519   4.157   4.531  0.2117 -0.4767  0.3220
 4022TIP3   OH233556   6.147   0.820  17.362 -0.6508 -0.2499  0.0026
 4022TIP3    H133557   6.162   0.726  17.349 -1.3374 -0.2744 -0.6369
 4022TIP3    H233558   6.091   0.824  17.440 -1.7817 -0.4621 -0.7791
 4023TIP3   OH233559   1.847   2.552   0.815 -0.6048  0.3566 -0.3590
 4023TIP3    H133560   1.877   2.612   0.884 -0.2967 -0.5798  0.3502
 4023TIP3    H233561   1.862   2.465   0.851 -1.1720 -0.1569 -1.3135
 4024TIP3   OH233562   3.332   6.390   1.940 -0.6527 -0.0062  0.1387
 4024TIP3    H133563   3.368   6.427   2.021 -1.8163 -0.0160  0.6726
 4024TIP3    H233564   3.340   6.296   1.952 -1.7535 -0.0495  0.7109
 4025TIP3   OH233565   3.136   2.313  11.946  0.3717 -0.2524 -0.0401
 4025TIP3    H133566   3.048   2.301  11.982 -0.2711  0.7364 -1.1952
 4025TIP3    H233567   3.124   2.303  11.851  1.7092 -1.1535 -0.1357
 4026TIP3   OH233568   1.140   1.729   0.834  0.4887 -0.5084 -0.2798
 4026TIP3    H133569   1.136   1.810   0.886 -0.0609  0.3924 -1.6811
 4026TIP3    H233570   1.110   1.661   0.895 -2.5540  0.8541 -0.0371
 4027TIP3   OH233571   5.825   1.254   1.144  0.1304 -0.4755  0.2233
 4027TIP3    H133572   5.784   1.170   1.121  0.4085 -0.4577 -0.3720
 4027TIP3    H233573   5.824   1.256   1.239 -0.2436 -0.9748  0.2366
 4028TIP3   OH233574   6.171   4.057  13.592  0.3226  0.0974 -0.4921
 4028TIP3    H133575   6.243   4.045  13.653  0.8112  2.3495 -0.5455
 4028TIP3    H233576   6.159   3.970  13.552  2.5915 -0.4842 -0.0741
 4029TIP3   OH233577   0.591   1.618   1.516 -0.0866  0.4798 -0.3337
 4029TIP3    H133578   0.630   1.531   1.506  1.1794  0.6572  2.2530
 4029TIP3    H233579   0.641   1.673   1.456  1.0976 -0.0641  0.1109
 4030TIP3   OH233580   4.816   5.118  16.961 -0.4913  0.4731 -0.2093
 4030TIP3    H133581   4.823   5.040  16.905  2.9495 -0.1645  0.8436
 4030TIP3    H233582   4.782   5.086  17.044 -0.2548  0.3121 -0.1741
 4031TIP3   OH233583   0.685   1.475   6.337  0.0899  0.1503 -0.1684
 4031TIP3    H133584   0.737   1.554   6.323 -1.7337  1.7847  1.6572
 4031TIP3    H233585   0.707   1.446   6.426  1.1697 -1.8319 -1.0017
 4032TIP3   OH233586   1.343   1.357  16.327  0.5904 -0.5993 -0.3876
 4032TIP3    H133587   1.274   1.373  16.263  1.0563  3.1236 -0.1786
 4032TIP3    H233588   1.421   1.395  16.287  2.0495 -2.7151  0.3389
 4033TIP3   OH233589   3.766   5.734   5.380 -0.2125 -0.0271  0.6827
 4033TIP3    H133590   3.843   5.703   5.428  0.7188  0.4320 -0.4484
 4033TIP3    H233591   3.722   5.792   5.441  1.2311  0.9604  0.8420
 4034TIP3   OH233592   3.948   2.329  15.624 -0.3800 -0.4560  0.1732
 4034TIP3    H133593   3.882   2.384  15.665  0.0051  0.8615 -0.9191
 4034TIP3    H233594   3.917   2.239  15.637 -1.2709  0.0292  1.5409
 4035TIP3   OH233595   6.164   1.657  12.797  0.2038  0.1375  0.6586
 4035TIP3    H133596   6.146   1.739  12.843 -0.0130  1.6590 -1.9344
 4035TIP3    H233597   6.259   1.658  12.784  0.2281 -0.1296  0.8190
 4036TIP3   OH233598   6.499   0.706  16.009 -0.2594 -0.1373  0.0154
 4036TIP3    H133599   6.463   0.748  16.087  0.5136 -1.3307  1.0462
 4036TIP3    H233600   6.428   0.650  15.977 -0.0477 -0.8839  0.8229
 4037TIP3   OH233601   3.506   2.904   1.173  0.1377 -0.3946  0.5481
 4037TIP3    H133602   3.411   2.909   1.162  0.2569  0.8397 -0.0229
 4037TIP3    H233603   3.528   2.814   1.148 -0.8408 -0.5935  0.3768
 4038TIP3   OH233604   6.283   6.406   6.740  0.3346 -0.3113  0.4071
 4038TIP3    H133605   6.232   6.354   6.801 -0.3481 -0.7868 -0.5387
 4038TIP3    H233606   6.372   6.404   6.775  0.4745 -2.6913  0.0421
 4039TIP3   OH233607   4.647   4.732  16.259  0.0396 -0.6865 -0.3518
 4039TIP3    H133608   4.736   4.705  16.280 -0.1141 -0.0029  1.3961
 4039TIP3    H233609   4.658   4.811  16.206  0.4893 -0.4394  0.0986
 4040TIP3   OH233610   1.956   5.279  16.845 -0.2836  0.1180 -0.2287
 4040TIP3    H133611   1.879   5.247  16.798 -1.0780  0.4897  0.7793
 4040TIP3    H233612   1.967   5.369  16.814  0.1555 -0.1561 -0.8737
 4041TIP3   OH233613   4.353   6.257  14.621  0.0201  0.3891  0.0357
 4041TIP3    H133614   4.316   6.272  14.534 -2.4131  0.4335  1.0238
 4041TIP3    H233615   4.313   6.323  14.677  0.4579 -0.5118  1.4732
 4042TIP3   OH233616   3.389   5.745  11.079 -0.1376 -0.1251 -0.0724
 4042TIP3    H133617   3.470   5.713  11.038 -0.7467 -1.4295 -0.3341
 4042TIP3    H233618   3.404   5.838  11.094  1.1905 -0.2268 -0.6485
 4043TIP3   OH233619   0.887   6.002   3.564 -0.1241  0.2824 -0.3746
 4043TIP3    H133620   0.906   5.947   3.489 -0.9642 -0.7133  0.1209
 4043TIP3    H233621   0.893   6.092   3.531 -0.3541 -0.1406 -1.5933
 4044TIP3   OH233622   2.759   1.163   4.666 -0.2642 -0.0204  0.4025
 4044TIP3    H133623   2.709   1.224   4.611 -1.3431  0.7611  2.1402
 4044TIP3    H233624   2.825   1.218   4.708  0.8267 -0.6866 -0.4318
 4045TIP3   OH233625   2.465   5.986   0.790  0.4033 -0.1758  0.5825
 4045TIP3    H133626   2.399   6.055   0.786 -0.8149 -1.1932  1.9794
 4045TIP3    H233627   2.429   5.921   0.850  1.6860 -1.8583 -0.3586
 4046TIP3   OH233628   6.061   5.137  11.222 -0.5455  0.2422 -0.2748
 4046TIP3    H133629   5.999   5.197  11.265 -2.1984  0.2491 -2.4502
 4046TIP3    H233630   6.058   5.163  11.129  0.5098 -1.6711 -0.8985
 4047TIP3   OH233631   3.936   3.675  13.237 -0.3869  0.5996 -0.0810
 4047TIP3    H133632   3.872   3.707  13.173 -1.1245 -1.4983 -0.4949
 4047TIP3    H233633   3.906   3.586  13.259  1.7165 -0.0059  0.6562
 4048TIP3   OH233634   6.217   1.554  17.082 -0.5368 -0.0259  0.1539
 4048TIP3    H133635   6.137   1.541  17.133 -0.0151 -0.6979  0.8226
 4048TIP3    H233636   6.208   1.493  17.008 -0.8707  0.2763 -0.0587
 4049TIP3   OH233637   4.537   4.263   1.451  0.1331  0.7561  0.5152
 4049TIP3    H133638   4.526   4.174   1.484 -0.9709  0.0537 -1.5022
 4049TIP3    H233639   4.578   4.311   1.522  0.6737 -1.3429  1.6983
 4050TIP3   OH233640   5.428   2.280   5.134  0.1125  0.2279  0.0852
 4050TIP3    H133641   5.487   2.338   5.181 -0.1852  0.1902  0.5179
 4050TIP3    H233642   5.341   2.316   5.150 -0.5235 -2.2836  3.4396
 4051TIP3   OH233643   2.269   6.018  15.113 -0.6291 -0.1220  0.0573
 4051TIP3    H133644   2.205   5.954  15.145 -0.0975 -0.5406  0.2981
 4051TIP3    H233645   2.254   6.023  15.019 -0.7911 -0.4788  0.0629
 4052TIP3   OH233646   2.592   2.605  15.631 -0.5153 -0.9058  0.0305
 4052TIP3    H133647   2.574   2.621  15.724  1.1265  2.1043 -0.0507
 4052TIP3    H233648   2.541   2.672  15.585  0.9303 -0.4835 -1.0140
 4053TIP3   OH233649   0.861   2.988  16.633  0.1572 -0.2415  0.0042
 4053TIP3    H133650   0.946   3.024  16.660  0.5007  0.4666 -1.8131
 4053TIP3    H233651   0.814   3.063  16.597 -0.8684 -0.8101  0.1327
 4054TIP3   OH233652   4.277   5.586   3.555  0.1365 -0.2873  0.5027
 4054TIP3    H133653   4.282   5.642   3.632 -0.4179  0.8492 -0.2603
 4054TIP3    H233654   4.262   5.498   3.590 -0.7847  0.3068  1.6602
 4055TIP3   OH233655   2.784   3.608   5.320  0.1343  0.0814  0.3815
 4055TIP3    H133656   2.805   3.684   5.376  0.2874  1.4905 -1.5042
 4055TIP3    H233657   2.833   3.623   5.240 -0.4861 -1.6327 -0.3554
 4056TIP3   OH233658   0.081   0.047  17.264 -0.0751  0.5145  0.2695
 4056TIP3    H133659   0.126   0.101  17.329  0.0986  1.9268 -0.9848
 4056TIP3    H233660   0.045   0.110  17.202 -3.0470 -0.5893  0.7121
 4057TIP3   OH233661   2.822   5.552   1.166 -0.4463 -0.4202 -0.2850
 4057TIP3    H133662   2.810   5.526   1.257 -0.2976 -0.0059 -0.1474
 4057TIP3    H233663   2.917   5.564   1.156 -0.5460  0.4165 -0.2532
 4058TIP3   OH233664   0.488   4.475   5.722 -0.3600  0.7503  0.6646
 4058TIP3    H133665   0.472   4.387   5.687 -0.3118  0.7706  0.5917
 4058TIP3    H233666   0.408   4.496   5.770  1.1414 -1.0815  4.3779
 4059TIP3   OH233667   0.613   5.974  15.762 -0.2243  0.4104  0.0580
 4059TIP3    H133668   0.669   5.921  15.707 -0.2768  1.4116 -0.9969
 4059TIP3    H233669   0.582   5.914  15.830 -1.4163 -1.2794 -1.8615
 4060TIP3   OH233670   4.495   0.701   0.776 -0.4825 -0.0651  0.6154
 4060TIP3    H133671   4.544   0.762   0.831 -0.6014 -0.2446  0.9237
 4060TIP3    H233672   4.411   0.692   0.820 -1.7974  2.1815 -1.1898
 4061TIP3   OH233673   3.781   3.663   1.783 -0.4038 -0.5639 -0.1086
 4061TIP3    H133674   3.692   3.693   1.803  0.3376  2.1450 -0.4773
 4061TIP3    H233675   3.826   3.741   1.750  2.7188 -1.3125  1.9300
 4062TIP3   OH233676   4.695   3.828   2.395  0.0998 -0.6066 -0.2842
 4062TIP3    H133677   4.690   3.917   2.430  0.1810 -0.7795  0.1714
 4062TIP3    H233678   4.675   3.838   2.302 -3.7966 -0.6184  0.4115
 4063TIP3   OH233679   1.180   6.441  16.054  0.3624  0.3757 -0.1720
 4063TIP3    H133680   1.105   6.389  16.024  0.6173  0.6993 -1.4355
 4063TIP3    H233681   1.178   6.519  15.998  0.4919  1.3255  1.1101
 4064TIP3   OH233682   1.935   3.137  13.555 -0.0343  0.5545  0.1591
 4064TIP3    H133683   1.915   3.145  13.649  0.8327  2.5671  0.2266
 4064TIP3    H233684   1.956   3.226  13.528  1.5063 -0.2655 -1.5399
 4065TIP3   OH233685   3.688   2.085   3.380  0.0219  0.2432  0.1598
 4065TIP3    H133686   3.667   2.087   3.286 -2.4208 -0.1324  0.6308
 4065TIP3    H233687   3.641   2.160   3.416  0.9832  0.4149  1.0967
 4066TIP3   OH233688   3.264   5.911  12.209 -0.2833 -0.4304  0.0573
 4066TIP3    H133689   3.324   5.858  12.158 -1.8325 -1.9683 -0.2596
 4066TIP3    H233690   3.231   5.853  12.277 -0.9982  0.5255  0.5587
 4067TIP3   OH233691   5.871   1.257  16.434 -0.5675  0.3863  0.1981
 4067TIP3    H133692   5.793   1.210  16.463 -0.1623 -1.4356 -1.4678
 4067TIP3    H233693   5.907   1.203  16.364  2.2800  1.1068  0.9793
 4068TIP3   OH233694   4.750   0.630   5.782  0.3483  0.5309 -0.4436
 4068TIP3    H133695   4.742   0.662   5.692 -0.0719  0.3123 -0.4830
 4068TIP3    H233696   4.840   0.652   5.807  0.0119  1.9345 -0.3995
 4069TIP3   OH233697   5.266   3.472   5.008 -0.1139  0.2326 -0.2112
 4069TIP3    H133698   5.275   3.382   4.978 -1.0905 -0.0230  0.2285
 4069TIP3    H233699   5.336   3.483   5.073 -0.1252 -0.2694 -0.1119
 4070TIP3   OH233700   5.673   0.192  16.525  0.2605  0.0599 -0.2374
 4070TIP3    H133701   5.591   0.173  16.571  0.8275 -0.7101  0.5035
 4070TIP3    H233702   5.742   0.164  16.586  1.0909  1.0071 -0.6946
 4071TIP3   OH233703   1.962   4.822  15.553 -0.0701  0.2809  0.2684
 4071TIP3    H133704   1.915   4.837  15.471 -0.4751  0.3138  0.5023
 4071TIP3    H233705   2.055   4.820  15.528  0.0588  3.2059  0.2054
 4072TIP3   OH233706   4.516   2.626   6.794  0.2256 -0.3778 -0.6093
 4072TIP3    H133707   4.508   2.531   6.793  1.2443 -0.4660 -1.2353
 4072TIP3    H233708   4.439   2.656   6.744  0.4380 -0.9255 -1.2887
 4073TIP3   OH233709   1.527   1.497   4.706  0.4335  0.0217 -0.3416
 4073TIP3    H133710   1.507   1.509   4.799  0.1596 -2.8644  0.0622
 4073TIP3    H233711   1.463   1.433   4.676  0.7083  0.6718 -2.4867
 4074TIP3   OH233712   5.883   5.605   2.538 -0.0902  0.2992  0.1071
 4074TIP3    H133713   5.868   5.681   2.480 -1.4022  0.5229  0.7002
 4074TIP3    H233714   5.857   5.636   2.624  2.0204  0.0225  0.8884
 4075TIP3   OH233715   2.223   2.345   5.581 -0.3916 -0.7884  0.3512
 4075TIP3    H133716   2.140   2.389   5.561 -0.5293 -1.1082  0.2095
 4075TIP3    H233717   2.238   2.364   5.674  0.3790  0.9162 -0.0811
 4076TIP3   OH233718   2.089   6.229  12.358  0.0605 -0.2992 -0.4325
 4076TIP3    H133719   2.037   6.229  12.438 -0.5539  0.9424 -0.8005
 4076TIP3    H233720   2.154   6.160  12.371  0.7836  0.7112  1.6795
 4077TIP3   OH233721   2.323   5.453   4.618 -0.3681  0.0555 -0.1558
 4077TIP3    H133722   2.248   5.435   4.561 -1.1869 -2.7216  1.6255
 4077TIP3    H233723   2.380   5.377   4.607  0.0185  0.0325  1.7948
 4078TIP3   OH233724   5.089   1.180   5.595  0.0409  0.3544  0.2350
 4078TIP3    H133725   5.152   1.172   5.666  1.3001 -1.5885 -1.0420
 4078TIP3    H233726   5.137   1.155   5.516 -1.6990  1.0733 -1.1257
 4079TIP3   OH233727   4.761   2.116  10.786 -0.0187 -0.1115  0.3951
 4079TIP3    H133728   4.826   2.065  10.834 -0.6882  0.7221  2.3169
 4079TIP3    H233729   4.678   2.097  10.831 -1.2124 -1.3207 -2.1170
 4080TIP3   OH233730   0.509   0.360  14.968 -0.0505  0.1301  0.0351
 4080TIP3    H133731   0.593   0.330  15.004  0.4506  0.9009 -0.4577
 4080TIP3    H233732   0.504   0.319  14.882 -0.3575 -0.1910  0.1985
 4081TIP3   OH233733   3.322   3.903  14.293 -0.4384  0.3837 -0.5995
 4081TIP3    H133734   3.234   3.927  14.266 -0.4821  1.6501  0.5841
 4081TIP3    H233735   3.309   3.843  14.367 -0.2942 -0.0264 -0.8991
 4082TIP3   OH233736   4.162   0.741   1.320  0.0285 -0.5144  0.2858
 4082TIP3    H133737   4.090   0.793   1.356  0.7726  0.8520 -0.1097
 4082TIP3    H233738   4.217   0.805   1.275  1.6058 -1.4791  0.7537
 4083TIP3   OH233739   5.125   3.979  12.426  0.2292 -0.6458 -0.5088
 4083TIP3    H133740   5.090   3.982  12.337  1.3440 -0.7335 -0.9764
 4083TIP3    H233741   5.063   3.924  12.474 -0.9026  0.1797 -0.9774
 4084TIP3   OH233742   6.211   2.212   0.981 -0.4696  0.1306 -0.4294
 4084TIP3    H133743   6.305   2.203   0.993 -0.5912 -0.5042  0.0567
 4084TIP3    H233744   6.188   2.146   0.916 -0.7498 -0.4487  0.2567
 4085TIP3   OH233745   1.306   5.436   2.014  0.2040 -0.0257 -0.4695
 4085TIP3    H133746   1.352   5.452   1.932  1.0982  1.3752  0.2695
 4085TIP3    H233747   1.376   5.418   2.077 -0.3977  0.0676  0.2401
 4086TIP3   OH233748   2.271   0.378   0.420 -0.6700 -0.2970 -0.1624
 4086TIP3    H133749   2.184   0.391   0.381 -0.4452  0.4720 -0.4154
 4086TIP3    H233750   2.331   0.380   0.346 -0.0533  2.8942  0.2929
 4087TIP3   OH233751   2.700   0.052  15.795  0.8755  0.1643  0.3481
 4087TIP3    H133752   2.777   0.024  15.746  0.9183  0.5466  0.1935
 4087TIP3    H233753   2.659  -0.030  15.824 -0.7410 -0.2758 -2.7123
 4088TIP3   OH233754   3.317   3.246  14.991 -0.1667  0.2493  0.1191
 4088TIP3    H133755   3.322   3.319  14.929  1.2513  0.3139  0.2635
 4088TIP3    H233756   3.275   3.176  14.942  1.1215  0.2331 -1.0218
 4089TIP3   OH233757   2.991   2.593   1.679  0.5546  0.1234 -0.3963
 4089TIP3    H133758   2.965   2.531   1.747  0.3345 -0.4770 -1.0212
 4089TIP3    H233759   3.079   2.620   1.704  0.8950 -0.9084 -0.4493
 4090TIP3   OH233760   6.208   6.078   5.402  0.1249 -0.1019 -0.4216
 4090TIP3    H133761   6.301   6.067   5.422 -0.0968  0.9761  1.4582
 4090TIP3    H233762   6.201   6.165   5.362 -0.1834  0.2457  0.3699
 4091TIP3   OH233763   3.691   1.082  15.994 -1.2936  0.0512 -0.1096
 4091TIP3    H133764   3.711   1.170  15.961 -2.1692 -0.3844 -1.9338
 4091TIP3    H233765   3.773   1.034  15.988 -0.5121  1.0222  2.0011
 4092TIP3   OH233766   1.725   6.551  14.588 -0.1922 -0.0685  0.1149
 4092TIP3    H133767   1.762   6.471  14.626 -1.5345 -0.6509  0.2492
 4092TIP3    H233768   1.736   6.539  14.494  2.3202  0.9712  0.2148
 4093TIP3   OH233769   4.379   5.403   5.675  0.5339  0.2095  0.2743
 4093TIP3    H133770   4.372   5.313   5.706  1.2530  0.6859  1.9054
 4093TIP3    H233771   4.333   5.455   5.741  0.4192  1.0825 -0.4711
 4094TIP3   OH233772   5.330   1.207  11.544 -0.2329 -0.0462  0.3375
 4094TIP3    H133773   5.358   1.170  11.460 -2.2982 -3.1397  0.8610
 4094TIP3    H233774   5.236   1.191  11.547 -0.3804  0.8728  2.8644
 4095TIP3   OH233775   5.866   0.624   3.095 -0.6002 -0.3707  0.2726
 4095TIP3    H133776   5.794   0.632   3.159 -0.4367 -2.5616  0.8272
 4095TIP3    H233777   5.918   0.551   3.128  1.2781  0.4525 -0.7368
 4096TIP3   OH233778   2.360   5.087  13.732  0.5968  0.2074  0.2032
 4096TIP3    H133779   2.367   5.004  13.779 -1.2801 -0.6303 -0.8764
 4096TIP3    H233780   2.410   5.149  13.785  1.7746 -1.5142  1.2180
 4097TIP3   OH233781   5.648   4.309   0.663 -0.0352 -0.5807  0.2380
 4097TIP3    H133782   5.689   4.392   0.688 -0.2827 -0.2499 -0.4130
 4097TIP3    H233783   5.555   4.331   0.651  0.2061 -0.4967 -1.8126
 4098TIP3   OH233784   6.670   3.793  13.440  0.5730  0.1253 -0.2535
 4098TIP3    H133785   6.655   3.765  13.531 -1.1783 -1.6472 -1.0124
 4098TIP3    H233786   6.637   3.882  13.436  0.3388  0.0949  0.7709
 4099TIP3   OH233787   4.896   4.401   1.474  0.1016  0.2288 -0.0225
 4099TIP3    H133788   4.930   4.323   1.432  3.6354  0.8561  1.3536
 4099TIP3    H233789   4.903   4.470   1.407 -1.4724 -0.2115 -0.6981
 4100TIP3   OH233790   2.043   0.335  11.848 -0.0704  0.4968  0.0252
 4100TIP3    H133791   2.080   0.248  11.831  2.8383  1.5759  0.1970
 4100TIP3    H233792   2.027   0.372  11.761 -1.3925 -0.2091 -0.0468
 4101TIP3   OH233793   3.200   6.179   1.509  0.3068 -0.1074 -0.2427
 4101TIP3    H133794   3.129   6.116   1.498  0.4107 -0.1684 -0.5948
 4101TIP3    H233795   3.246   6.151   1.588 -0.6391  0.5021  0.5518
 4102TIP3   OH233796   6.041   6.027   2.459 -0.1022  0.2455 -0.3798
 4102TIP3    H133797   5.971   6.012   2.522  0.2800  0.5698  0.1316
 4102TIP3    H233798   6.113   5.971   2.489  0.2309  0.7262 -0.2763
 4103TIP3   OH233799   4.868   3.106  15.664 -0.4102  0.4854  0.3349
 4103TIP3    H133800   4.900   3.173  15.725  0.4555  0.3891  0.0023
 4103TIP3    H233801   4.925   3.114  15.588  0.4945 -1.4076  0.7541
 4104TIP3   OH233802   5.856   4.932  11.232 -0.5296  0.0129 -0.0829
 4104TIP3    H133803   5.813   4.991  11.170 -0.7222  1.2465  1.1683
 4104TIP3    H233804   5.859   4.982  11.314 -0.3396 -1.5806  0.9209
 4105TIP3   OH233805   1.025   5.894  13.692 -0.1009  0.9650  0.0345
 4105TIP3    H133806   0.979   5.931  13.616 -1.5124  1.1869  0.9554
 4105TIP3    H233807   1.117   5.916  13.677 -0.2259  0.3706 -1.9557
 4106TIP3   OH233808   3.076   3.327  13.726 -0.4282 -0.5082  0.5889
 4106TIP3    H133809   3.074   3.407  13.779 -0.8442 -0.1362  0.0164
 4106TIP3    H233810   3.090   3.257  13.790 -0.1029  0.0126  1.1017
 4107TIP3   OH233811   1.075   0.401  14.589  0.1345  0.5311  0.1143
 4107TIP3    H133812   1.072   0.478  14.532 -0.1580 -1.4112 -2.6474
 4107TIP3    H233813   1.169   0.383  14.599  0.1957 -0.4161 -1.7335
 4108TIP3   OH233814   4.190   2.111   1.090 -0.1510  0.2334 -0.3410
 4108TIP3    H133815   4.187   2.170   1.014  0.7036 -1.1432 -1.5067
 4108TIP3    H233816   4.159   2.164   1.163 -1.6026  1.4337 -1.7617
 4109TIP3   OH233817   4.738   1.029  14.608  0.3012 -0.4280 -0.0877
 4109TIP3    H133818   4.706   1.083  14.680 -2.3558 -1.6587 -0.2253
 4109TIP3    H233819   4.757   0.944  14.648 -0.2815 -0.8355 -0.6532
 4110TIP3   OH233820   2.565   1.031   0.319  0.3712 -0.1654 -0.1631
 4110TIP3    H133821   2.567   0.949   0.270  1.8425 -0.1511 -0.1898
 4110TIP3    H233822   2.513   1.091   0.265 -0.2721 -0.9233 -0.3933
 4111TIP3   OH233823   4.953   6.388   2.422 -0.7302  0.6255 -0.1025
 4111TIP3    H133824   4.879   6.352   2.373 -1.9836 -0.2569  2.2942
 4111TIP3    H233825   4.991   6.313   2.467  0.9204  1.2666 -0.3582
 4112TIP3   OH233826   5.582   1.211   2.546 -0.1826 -0.0157 -0.1657
 4112TIP3    H133827   5.580   1.116   2.551  0.3476  0.0342  1.7880
 4112TIP3    H233828   5.491   1.237   2.530 -0.6578 -0.8032  1.1018
 4113TIP3   OH233829   6.437   3.793   3.982  0.5287 -0.3942 -0.2344
 4113TIP3    H133830   6.355   3.754   3.951  1.2451 -1.2171 -1.1497
 4113TIP3    H233831   6.425   3.887   3.970 -1.0115 -0.3196  1.4813
 4114TIP3   OH233832   2.727   1.295  12.315 -0.4729  0.4562 -0.6136
 4114TIP3    H133833   2.633   1.279  12.304 -0.1314 -1.4088 -1.1894
 4114TIP3    H233834   2.750   1.247  12.394  0.2792 -0.4564 -1.3631
 4115TIP3   OH233835   1.667   6.668   5.898  0.6387 -0.0567  0.2877
 4115TIP3    H133836   1.595   6.620   5.857 -1.4490  1.6579  1.7374
 4115TIP3    H233837   1.723   6.599   5.936  0.7163 -1.4973 -2.2122
 4116TIP3   OH233838   2.479   3.284   1.850 -0.6601 -0.4422  0.5889
 4116TIP3    H133839   2.527   3.264   1.930 -0.8522 -1.3610  0.4813
 4116TIP3    H233840   2.503   3.375   1.830 -0.9586 -0.0571  1.9172
 4117TIP3   OH233841   2.857   5.941   2.063 -0.1525 -0.3148 -0.0847
 4117TIP3    H133842   2.894   5.963   1.978 -1.5457  0.9970 -0.3846
 4117TIP3    H233843   2.928   5.960   2.125 -0.0935  1.6214 -0.6937
 4118TIP3   OH233844   1.586   6.613  11.075 -0.0227 -0.2537  0.0756
 4118TIP3    H133845   1.612   6.574  10.991  1.5776  0.4473  0.2096
 4118TIP3    H233846   1.587   6.707  11.058  1.6458 -0.0259  1.1926
 4119TIP3   OH233847   3.014   1.814   3.711 -0.2064 -0.0519  0.2598
 4119TIP3    H133848   2.929   1.787   3.677 -0.5798  0.0348  1.0795
 4119TIP3    H233849   3.055   1.732   3.740  0.0369 -0.1051 -0.2217
 4120TIP3   OH233850   1.656   6.506  13.625 -0.2921  0.5710  0.2750
 4120TIP3    H133851   1.639   6.520  13.532 -0.1501 -0.3310  0.1050
 4120TIP3    H233852   1.751   6.499  13.631 -0.3631 -0.4663  0.3195
 4121TIP3   OH233853   3.180   3.424   1.791  0.0038 -0.4326  0.9484
 4121TIP3    H133854   3.202   3.450   1.881 -0.4872  1.4652  0.5614
 4121TIP3    H233855   3.252   3.366   1.764  1.4910  0.9990  1.6944
 4122TIP3   OH233856   3.919   2.230  11.892  0.6008  0.1921 -0.5384
 4122TIP3    H133857   3.971   2.310  11.899 -2.1420  2.2299 -1.7846
 4122TIP3    H233858   3.848   2.253  11.832 -1.4083 -2.5765  0.6006
 4123TIP3   OH233859   0.854   6.715  16.615  0.8109 -0.5158  0.0943
 4123TIP3    H133860   0.813   6.649  16.560  1.2515 -1.0978  0.4552
 4123TIP3    H233861   0.947   6.710  16.595  0.7293  0.8883 -0.8143
 4124TIP3   OH233862   4.122   1.822  13.853 -0.3888 -0.1824 -0.1361
 4124TIP3    H133863   4.094   1.797  13.941 -1.7988 -0.5145 -0.6487
 4124TIP3    H233864   4.179   1.751  13.825  1.1791  0.5703  0.9866
 4125TIP3   OH233865   3.549   4.396   4.304 -0.4555 -0.3181 -0.1041
 4125TIP3    H133866   3.470   4.445   4.281 -0.1406 -0.4574 -1.5919
 4125TIP3    H233867   3.603   4.399   4.225  1.5896  0.8174  1.2523
 4126TIP3   OH233868   4.753   1.083   2.746 -0.4724  0.2679 -0.2402
 4126TIP3    H133869   4.820   1.015   2.752 -0.3776  0.3942  0.1738
 4126TIP3    H233870   4.801   1.162   2.721 -0.4651  0.3592  0.0595
 4127TIP3   OH233871   5.822   0.360   1.031 -0.3209 -0.1129  0.2255
 4127TIP3    H133872   5.851   0.451   1.025  0.4772 -0.1993  2.1388
 4127TIP3    H233873   5.842   0.334   1.121  0.5463 -2.5508 -0.5940
 4128TIP3   OH233874   0.454   0.510  12.561  0.0260  0.2466  0.1363
 4128TIP3    H133875   0.496   0.549  12.485  0.8112  0.9627  0.9082
 4128TIP3    H233876   0.362   0.504  12.538  0.2867  0.2229 -0.9499
 4129TIP3   OH233877   2.831   3.015   4.349 -0.5803 -0.0306  0.0233
 4129TIP3    H133878   2.924   3.036   4.351 -1.0036  2.1941 -0.4353
 4129TIP3    H233879   2.826   2.923   4.373  1.6954 -0.0960  0.4388
 4130TIP3   OH233880   4.387   3.449   4.313  0.3351  0.2980 -0.1051
 4130TIP3    H133881   4.324   3.393   4.359  0.4543 -0.2138 -0.5557
 4130TIP3    H233882   4.441   3.388   4.263 -0.3623  0.8930 -1.6498
 4131TIP3   OH233883   1.547   1.117  15.490  0.1301 -0.1141  0.2307
 4131TIP3    H133884   1.630   1.162  15.503  0.1395  0.0632 -0.4014
 4131TIP3    H233885   1.520   1.141  15.401  0.1061 -1.3055 -0.1043
 4132TIP3   OH233886   0.246   3.036  11.437 -0.4933  0.7797  0.5797
 4132TIP3    H133887   0.296   3.078  11.506  0.3587  0.2707  0.2830
 4132TIP3    H233888   0.282   3.072  11.356  1.4285 -1.6831  0.2277
 4133TIP3   OH233889   0.642   3.280  13.651 -0.1577 -0.1997  0.3875
 4133TIP3    H133890   0.627   3.287  13.746 -2.5719  0.3047  0.0234
 4133TIP3    H233891   0.655   3.186  13.636 -3.1246 -0.7752  0.8586
 4134TIP3   OH233892   2.837   4.867   0.889  0.3671  0.5641  0.5405
 4134TIP3    H133893   2.901   4.917   0.939  0.8412  0.7359 -0.2157
 4134TIP3    H233894   2.803   4.929   0.825  0.1198  0.2244  0.3383
 4135TIP3   OH233895   6.699   2.117   0.480 -0.4708 -0.7828  0.0618
 4135TIP3    H133896   6.722   2.190   0.423 -0.1669 -0.4154  0.6475
 4135TIP3    H233897   6.755   2.046   0.451 -0.2244 -0.5608 -0.0108
 4136TIP3   OH233898   3.786   5.835   2.937  0.5163  0.3171 -0.5627
 4136TIP3    H133899   3.871   5.799   2.915 -0.2305 -2.2645  0.3791
 4136TIP3    H233900   3.786   5.843   3.032 -0.4299 -0.1116 -0.5114
 4137TIP3   OH233901   0.714   5.495  17.646  0.2448  0.1667  0.3050
 4137TIP3    H133902   0.775   5.552  17.600 -0.1192  0.1592 -0.1949
 4137TIP3    H233903   0.763   5.465  17.723  0.0375  2.1122  1.2545
 4138TIP3   OH233904   2.188   0.327   2.704  0.4693  0.5279  0.0671
 4138TIP3    H133905   2.238   0.343   2.623  0.5325  0.7274  0.1447
 4138TIP3    H233906   2.164   0.234   2.699  1.0700  0.3639  0.1529
 4139TIP3   OH233907   4.097   2.113  11.383  0.2754  0.1081 -0.1637
 4139TIP3    H133908   4.019   2.136  11.333 -0.2953 -0.0111  0.6544
 4139TIP3    H233909   4.085   2.155  11.468  0.1162 -1.5832  0.6922
 4140TIP3   OH233910   2.300   4.247  16.725 -0.3248 -0.0939  0.3371
 4140TIP3    H133911   2.221   4.263  16.673 -0.4030 -0.7633  0.2339
 4140TIP3    H233912   2.305   4.320  16.786 -0.6385  0.3195 -0.1301
 4141TIP3   OH233913   0.579   4.674   5.918 -0.0970 -1.1501  0.3167
 4141TIP3    H133914   0.544   4.761   5.901  0.3181 -0.8697  0.8417
 4141TIP3    H233915   0.550   4.621   5.844  3.8938  0.6130 -2.9207
 4142TIP3   OH233916   6.306   6.292   2.929 -0.2396 -0.6351  0.1140
 4142TIP3    H133917   6.296   6.331   3.016  1.5651  1.5256 -0.5281
 4142TIP3    H233918   6.327   6.200   2.945 -0.9372 -0.5182  1.9011
 4143TIP3   OH233919   4.210   5.740  12.472  0.1043  0.2509  0.4144
 4143TIP3    H133920   4.120   5.709  12.463  0.4529 -0.6075 -0.1969
 4143TIP3    H233921   4.210   5.826  12.431 -0.1159 -0.3530 -0.9015
 4144TIP3   OH233922   5.442   5.131   3.880  0.2290  0.4129  0.4934
 4144TIP3    H133923   5.497   5.076   3.936  1.0882  0.3424 -0.3833
 4144TIP3    H233924   5.413   5.072   3.810  0.1966  0.7881  0.1892
 4145TIP3   OH233925   3.423   1.433   0.997 -0.3986  0.1308  0.1427
 4145TIP3    H133926   3.433   1.520   0.958 -0.1891 -0.7259 -1.8033
 4145TIP3    H233927   3.453   1.444   1.087 -1.6392  2.3670  0.3577
 4146TIP3   OH233928   4.723   6.389   3.098 -0.1508  0.0170 -0.3003
 4146TIP3    H133929   4.717   6.295   3.115  0.4863 -0.3151 -1.8007
 4146TIP3    H233930   4.638   6.424   3.123 -0.0080 -0.7421  1.4179
 4147TIP3   OH233931   6.670   4.266  14.069  0.9546 -0.4349 -0.1381
 4147TIP3    H133932   6.587   4.291  14.027  0.2542  0.5187  1.6902
 4147TIP3    H233933   6.660   4.172  14.085  0.7521 -0.5763 -1.0214
 4148TIP3   OH233934   1.629   3.190   5.858 -0.1046 -0.2276  0.0768
 4148TIP3    H133935   1.575   3.230   5.790 -0.3081 -3.3276 -1.8060
 4148TIP3    H233936   1.719   3.213   5.834 -0.2721  0.0293 -0.3194
 4149TIP3   OH233937   5.890   0.602   4.239  0.1711  0.1308  0.1443
 4149TIP3    H133938   5.799   0.574   4.253  0.4682 -0.3846  1.1857
 4149TIP3    H233939   5.887   0.697   4.247 -0.2693  0.1077  0.2780
 4150TIP3   OH233940   3.964   2.199   0.596  0.6976  0.2280 -0.2625
 4150TIP3    H133941   3.995   2.184   0.507  0.5793 -0.6710 -0.1565
 4150TIP3    H233942   4.018   2.271   0.628  0.6548  0.6455 -1.0991
 4151TIP3   OH233943   2.400   5.176   6.190 -0.1585  0.6396 -0.9479
 4151TIP3    H133944   2.307   5.153   6.189  0.0902 -0.5502 -0.0398
 4151TIP3    H233945   2.414   5.214   6.277  0.1170  1.2340 -1.2483
 4152TIP3   OH233946   4.290   1.800  13.267  0.6024 -0.1465 -0.1271
 4152TIP3    H133947   4.273   1.778  13.359  1.3725 -2.3834 -0.4516
 4152TIP3    H233948   4.299   1.715  13.224 -0.5207  0.8279 -2.4525
 4153TIP3   OH233949   3.967   1.345  13.312  0.1856 -0.0117 -0.0289
 4153TIP3    H133950   4.027   1.270  13.312  0.7252  0.3717 -1.4926
 4153TIP3    H233951   4.014   1.413  13.361  0.4729 -0.0760 -0.2078
 4154TIP3   OH233952   1.708   5.321   5.212 -0.2317  0.4765  0.2070
 4154TIP3    H133953   1.722   5.415   5.198  0.0513  0.5367  0.8825
 4154TIP3    H233954   1.721   5.308   5.306 -2.2073  0.0957  0.4819
 4155TIP3   OH233955   4.604   6.723  15.240 -0.6166  0.1518  0.4333
 4155TIP3    H133956   4.524   6.774  15.250  0.5879  2.0743  0.9532
 4155TIP3    H233957   4.654   6.741  15.320 -0.0567 -1.7967  0.5765
 4156TIP3   OH233958   0.639   3.368  17.320  0.2810  0.7838 -0.6233
 4156TIP3    H133959   0.678   3.453  17.339 -2.2138  1.4322  2.3937
 4156TIP3    H233960   0.575   3.386  17.251 -0.3575  1.4408  0.1189
 4157TIP3   OH233961   1.639   2.905  12.948 -0.3112 -0.0736 -0.2247
 4157TIP3    H133962   1.677   2.941  12.867  0.0687 -0.1104 -0.0633
 4157TIP3    H233963   1.545   2.926  12.941 -0.2982 -0.1693 -0.7227
 4158TIP3   OH233964   5.614   5.912   5.666 -0.4589 -0.3346  0.2679
 4158TIP3    H133965   5.701   5.947   5.647 -1.5401  1.4256 -1.8485
 4158TIP3    H233966   5.566   5.984   5.707 -1.6202 -0.4409 -0.8199
 4159TIP3   OH233967   3.208   5.435   1.710  0.1527  0.2315  0.5180
 4159TIP3    H133968   3.225   5.527   1.692  0.5832  0.4138  1.7729
 4159TIP3    H233969   3.146   5.436   1.783 -0.1319 -0.4745  0.2959
 4160TIP3   OH233970   2.507   1.045   1.377  0.0686  0.0887 -0.4034
 4160TIP3    H133971   2.535   1.134   1.353 -0.5913  0.3905 -0.0931
 4160TIP3    H233972   2.412   1.046   1.364 -0.4245  0.4072  2.5178
 4161TIP3   OH233973   2.024   6.018  16.046 -0.0146 -0.3185  0.8774
 4161TIP3    H133974   2.066   5.985  16.125  0.2302  0.6635  1.1668
 4161TIP3    H233975   1.943   5.967  16.039 -0.6707  0.4128  2.4635
 4162TIP3   OH233976   4.855   1.579  17.042  0.2582  0.0431  0.4935
 4162TIP3    H133977   4.777   1.538  17.005  0.0637  0.3649  0.5455
 4162TIP3    H233978   4.871   1.655  16.987  1.5655 -0.9592 -0.6026
 4163TIP3   OH233979   5.031   2.646   5.931  0.9661 -0.0205 -0.2136
 4163TIP3    H133980   5.090   2.571   5.933  1.1112  0.0962 -0.0104
 4163TIP3    H233981   4.960   2.622   5.992  1.1684  0.1299  0.0859
 4164TIP3   OH233982   5.992   1.550   6.408  0.6342  0.1272  0.3554
 4164TIP3    H133983   6.081   1.564   6.376  0.9429  0.2360  1.2238
 4164TIP3    H233984   5.963   1.637   6.436  0.0754  0.1774 -0.3400
 4165TIP3   OH233985   0.352   5.842   5.476 -0.3906  0.1420 -0.7830
 4165TIP3    H133986   0.325   5.928   5.445 -0.4702 -0.2191 -1.7270
 4165TIP3    H233987   0.339   5.784   5.402 -0.9771 -0.8164  0.0517
 4166TIP3   OH233988   4.267   3.586   1.124 -0.0405  0.2813  0.7363
 4166TIP3    H133989   4.272   3.498   1.087 -0.7516  0.8756 -0.8991
 4166TIP3    H233990   4.179   3.616   1.101  0.6690  1.9328  0.0124
 4167TIP3   OH233991   4.761   1.017  11.145 -0.0907  0.5999 -0.2568
 4167TIP3    H133992   4.669   1.030  11.168  0.0590 -0.6781  1.2286
 4167TIP3    H233993   4.760   0.943  11.083 -0.0672  0.6670 -0.3376
 4168TIP3   OH233994   4.109   3.396   0.123 -0.2357 -0.4573  0.4132
 4168TIP3    H133995   4.177   3.327   0.124  1.7406  1.3834  0.4182
 4168TIP3    H233996   4.133   3.454   0.195 -1.6712  0.4267  0.2096
 4169TIP3   OH233997   3.361   4.531  13.548 -0.4487 -0.2384 -0.1454
 4169TIP3    H133998   3.282   4.486  13.515  0.2740 -1.9951  0.4146
 4169TIP3    H233999   3.388   4.480  13.624  0.9362  0.6499 -0.0048
 4170TIP3   OH234000   4.116   2.793  16.478 -0.2495 -0.4085 -0.4990
 4170TIP3    H134001   4.190   2.772  16.534 -0.6879 -0.1422  0.1983
 4170TIP3    H234002   4.111   2.889  16.479 -1.1184 -0.4451  0.1713
 4171TIP3   OH234003   3.296   6.326   0.433  0.4163 -0.3437  0.3795
 4171TIP3    H134004   3.353   6.303   0.506 -1.5962  1.8250  2.8201
 4171TIP3    H234005   3.221   6.269   0.442 -1.2768  1.9527  2.0819
 4172TIP3   OH234006   0.279   6.092   5.382 -0.0397 -0.7644 -0.0356
 4172TIP3    H134007   0.350   6.110   5.321  0.6230 -2.0853  0.2960
 4172TIP3    H234008   0.205   6.142   5.349  1.4077  1.8662  0.4476
 4173TIP3   OH234009   1.666   1.578  12.715  0.3557 -0.1192  0.3514
 4173TIP3    H134010   1.599   1.639  12.685  0.2770 -0.5344 -0.3261
 4173TIP3    H234011   1.743   1.632  12.731  0.6669 -0.0024 -1.4428
 4174TIP3   OH234012   3.541   2.883   3.324 -0.2887  0.4913 -0.4103
 4174TIP3    H134013   3.614   2.908   3.380 -1.2585 -0.7569  1.5498
 4174TIP3    H234014   3.557   2.927   3.241  1.2484  2.4246  0.8321
 4175TIP3   OH234015   6.640   4.597   4.264 -0.7738 -0.1473  0.0081
 4175TIP3    H134016   6.611   4.558   4.346 -0.1088  0.8409  0.7380
 4175TIP3    H234017   6.734   4.581   4.261 -0.3612  1.7953  0.6209
 4176TIP3   OH234018   3.681   5.651   2.749  0.2141  0.7095 -0.0856
 4176TIP3    H134019   3.588   5.665   2.768  0.3309  1.3749  0.0493
 4176TIP3    H234020   3.724   5.730   2.783  0.8416  0.3551 -0.0382
 4177TIP3   OH234021   5.326   3.568   0.850 -0.4320 -0.4486 -0.1003
 4177TIP3    H134022   5.351   3.567   0.942 -1.1951 -0.8794  0.1061
 4177TIP3    H234023   5.336   3.659   0.823  0.3991 -0.4323  0.2331
 4178TIP3   OH234024   5.949   0.443   0.049 -0.0898 -0.2804  0.0463
 4178TIP3    H134025   6.021   0.491   0.009  1.0621  0.2208  2.5422
 4178TIP3    H234026   5.873   0.499   0.035  0.7040  0.9373  0.4525
 4179TIP3   OH234027   6.003   5.299  16.771 -0.1501 -0.3808  0.2910
 4179TIP3    H134028   6.005   5.241  16.847  1.0155 -0.7457  0.0041
 4179TIP3    H234029   5.969   5.245  16.700  1.0594 -0.7876 -0.0086
 4180TIP3   OH234030   6.428   3.383  14.360  0.1150  0.0734 -0.2663
 4180TIP3    H134031   6.469   3.315  14.413  0.9986  1.9997  1.7146
 4180TIP3    H234032   6.494   3.406  14.295  0.6818  0.4936  0.4424
 4181TIP3   OH234033   1.607   5.481   6.021 -0.5355 -0.3498 -0.9503
 4181TIP3    H134034   1.620   5.396   5.978 -0.4474 -0.4932 -0.6414
 4181TIP3    H234035   1.694   5.523   6.019  0.1278 -1.4432  1.4053
 4182TIP3   OH234036   6.323   4.357   2.777 -0.3094  0.3537 -0.1928
 4182TIP3    H134037   6.250   4.296   2.763 -1.2979  1.2471  0.7937
 4182TIP3    H234038   6.307   4.392   2.865  2.2705 -0.6743  0.7757
 4183TIP3   OH234039   4.517   3.805  16.979  0.0249 -0.2732  0.2156
 4183TIP3    H134040   4.508   3.716  16.944  3.6173 -0.4657 -0.6318
 4183TIP3    H234041   4.527   3.793  17.073 -0.7678 -0.6180  0.2649
 4184TIP3   OH234042   2.936   5.084  16.285  0.1559 -0.3044 -0.1318
 4184TIP3    H134043   2.918   5.178  16.283  0.3908 -0.2445  0.3833
 4184TIP3    H234044   2.874   5.047  16.222 -1.7404 -0.0917  1.4842
 4185TIP3   OH234045   1.640   1.292  12.005  0.3389 -0.1783 -0.0791
 4185TIP3    H134046   1.595   1.373  12.028  0.9968  0.8307 -2.0853
 4185TIP3    H234047   1.569   1.231  11.981 -0.1004  1.0513 -2.1876
 4186TIP3   OH234048   2.961   3.727  12.122  0.3104  0.6323 -0.0518
 4186TIP3    H134049   2.955   3.811  12.076  2.9756  0.5968 -0.6564
 4186TIP3    H234050   3.055   3.707  12.122 -0.0803 -1.5347  1.5811
 4187TIP3   OH234051   3.900   1.071  16.541 -0.1396 -0.3845  0.2036
 4187TIP3    H134052   3.948   1.122  16.476 -0.3079 -1.2845 -0.6554
 4187TIP3    H234053   3.809   1.074  16.511 -0.1453 -1.2013  0.1284
 4188TIP3   OH234054   2.181   1.027  15.297  0.1600 -0.1948 -0.3425
 4188TIP3    H134055   2.232   1.099  15.260 -1.1714  0.9618 -0.0219
 4188TIP3    H234056   2.129   0.994  15.224  1.2621 -1.3230 -0.6515
 4189TIP3   OH234057   4.222   4.138   4.657 -0.2497  0.1654 -0.0449
 4189TIP3    H134058   4.271   4.056   4.646 -3.3028 -1.7874 -0.3102
 4189TIP3    H234059   4.245   4.191   4.581  1.4467 -0.6285 -0.1204
 4190TIP3   OH234060   1.636   5.749   4.788  0.5232  0.4759 -0.1974
 4190TIP3    H134061   1.727   5.757   4.817  0.7552  2.6688 -1.2921
 4190TIP3    H234062   1.585   5.757   4.869  1.2659  0.6669  0.2644
 4191TIP3   OH234063   0.766   5.513  11.693 -0.9036  0.2038 -0.7291
 4191TIP3    H134064   0.841   5.506  11.752 -2.0603 -0.8397  0.6934
 4191TIP3    H234065   0.800   5.488  11.607  0.5647  0.6548 -0.3063
 4192TIP3   OH234066   0.090   4.906  10.898  0.2034 -0.4266 -0.5974
 4192TIP3    H134067   0.181   4.916  10.926  0.1627 -0.9407 -0.2820
 4192TIP3    H234068   0.085   4.816  10.865  0.4724  0.3644 -3.0524
 4193TIP3   OH234069   4.356   5.893   1.556  0.0582  0.2395  0.0319
 4193TIP3    H134070   4.353   5.989   1.554  0.3238  0.3335  1.9639
 4193TIP3    H234071   4.400   5.868   1.475  0.7730  1.7953 -0.0913
 4194TIP3   OH234072   5.369   0.688   4.064 -0.0985 -0.4649  0.2813
 4194TIP3    H134073   5.290   0.742   4.069 -0.4181 -0.9274  0.3148
 4194TIP3    H234074   5.357   0.637   3.984  0.9203  0.6185 -0.5856
 4195TIP3   OH234075   4.791   0.730   6.498  0.4003  0.3696 -0.1421
 4195TIP3    H134076   4.737   0.784   6.557  0.3344  0.7490 -0.5402
 4195TIP3    H234077   4.804   0.785   6.421 -0.8968 -0.7024 -1.1945
 4196TIP3   OH234078   2.039   2.448   5.182 -0.5907 -0.4687  0.8620
 4196TIP3    H134079   1.984   2.527   5.180 -0.5263 -0.3779  1.9707
 4196TIP3    H234080   2.128   2.480   5.164 -0.8952 -0.6567 -1.2464
 4197TIP3   OH234081   5.690   0.578   5.675  0.0403 -0.5114 -0.7341
 4197TIP3    H134082   5.760   0.575   5.610  0.9711 -0.9501  0.2633
 4197TIP3    H234083   5.726   0.533   5.752 -0.3875  1.4585  0.6898
 4198TIP3   OH234084   4.076   5.854   1.873 -0.0569  0.1087  0.5839
 4198TIP3    H134085   4.085   5.935   1.924  0.6474 -0.2826  1.1063
 4198TIP3    H234086   4.124   5.789   1.924  1.6210 -0.0695 -1.1127
 4199TIP3   OH234087   4.586   4.767  12.687  0.3313 -0.2421 -0.0327
 4199TIP3    H134088   4.658   4.704  12.695  0.2409 -0.3988 -0.4120
 4199TIP3    H234089   4.512   4.725  12.730  0.6000  0.1465  0.8328
 4200TIP3   OH234090   5.335   3.731   3.700 -0.0829  0.0360 -0.0735
 4200TIP3    H134091   5.358   3.638   3.704  2.3122  0.5299 -0.8269
 4200TIP3    H234092   5.383   3.771   3.772  0.6279  0.9809 -1.0479
 4201TIP3   OH234093   2.169   2.015  15.331  0.1268  0.0410 -0.0657
 4201TIP3    H134094   2.152   2.035  15.423  0.6315  0.3106 -0.0309
 4201TIP3    H234095   2.264   2.021  15.321  0.1152 -0.3964 -0.5095
 4202TIP3   OH234096   4.208   3.009   6.696 -0.2647 -0.4656 -0.8037
 4202TIP3    H134097   4.193   3.090   6.744  3.1193 -0.5372  0.6707
 4202TIP3    H234098   4.191   2.940   6.761 -0.4696 -0.8242 -1.2333
 4203TIP3   OH234099   5.639   6.521  17.674  0.0440 -0.0603  0.2756
 4203TIP3    H134100   5.646   6.443  17.728 -0.5419  0.4664  1.1365
 4203TIP3    H234101   5.626   6.592  17.736 -1.1073  0.4999 -0.5747
 4204TIP3   OH234102   1.175   3.162   2.082 -0.5610 -0.1436 -0.6112
 4204TIP3    H134103   1.115   3.089   2.100 -0.6932  0.3320  1.0695
 4204TIP3    H234104   1.259   3.121   2.066 -1.1435 -0.7830 -2.2411
 4205TIP3   OH234105   2.627   4.142  16.890 -0.6028 -0.5158 -0.2674
 4205TIP3    H134106   2.693   4.083  16.926  1.1868 -0.0268 -2.5110
 4205TIP3    H234107   2.611   4.206  16.960  0.9869 -0.9233  0.5154
 4206TIP3   OH234108   2.359   6.082  15.831 -0.4862 -0.2112  0.2928
 4206TIP3    H134109   2.288   6.132  15.872  0.3666  2.3941 -1.1164
 4206TIP3    H234110   2.433   6.095  15.889 -0.7198 -1.5138  0.9019
 4207TIP3   OH234111   6.272   1.674  14.472 -0.0652  0.0193  0.1957
 4207TIP3    H134112   6.219   1.664  14.552 -0.3704  0.5834  0.0729
 4207TIP3    H234113   6.238   1.608  14.412  0.6029 -0.8438  0.7590
 4208TIP3   OH234114   2.353   4.616  16.082  0.3656  0.3297 -0.4528
 4208TIP3    H134115   2.427   4.625  16.142  0.2627 -0.6354 -0.1619
 4208TIP3    H234116   2.286   4.673  16.118  0.7675  0.7810 -0.4049
 4209TIP3   OH234117   4.169   3.710  16.527 -0.4350 -0.4308 -0.2323
 4209TIP3    H134118   4.253   3.739  16.492  0.9963 -3.9919 -0.1537
 4209TIP3    H234119   4.161   3.756  16.611  0.4395  1.4123 -1.0973
 4210TIP3   OH234120   4.910   1.492   2.891  0.1636  0.2678  0.1051
 4210TIP3    H134121   5.004   1.499   2.908  0.0959  0.1248  0.5620
 4210TIP3    H234122   4.874   1.574   2.924  0.0641  0.1007  0.4183
 4211TIP3   OH234123   5.925   3.794   0.851 -0.7812 -0.3135  0.8892
 4211TIP3    H134124   5.973   3.873   0.877 -1.4950  0.4761 -0.0847
 4211TIP3    H234125   5.902   3.751   0.933 -1.1400  0.9700  1.4927
 4212TIP3   OH234126   6.037   1.981  16.066 -0.1986  0.1237  0.6202
 4212TIP3    H134127   6.025   2.032  15.986 -0.9843  0.5953  1.0291
 4212TIP3    H234128   6.124   2.007  16.098  0.1644 -0.1455 -0.1229
 4213TIP3   OH234129   4.479   2.057  14.940 -0.0686 -0.0974 -0.0914
 4213TIP3    H134130   4.457   2.147  14.917  0.5035  0.4190  1.2894
 4213TIP3    H234131   4.394   2.012  14.940 -0.2708  0.2232 -1.5669
 4214TIP3   OH234132   1.933   6.578  17.667 -0.8036 -0.6322 -0.4019
 4214TIP3    H134133   1.953   6.662  17.708  1.0431 -0.2282 -1.9545
 4214TIP3    H234134   1.974   6.513  17.724 -0.4742 -0.2954 -0.2495
 4215TIP3   OH234135   2.275   0.436  16.430 -0.4570 -0.3198 -0.8928
 4215TIP3    H134136   2.181   0.428  16.417 -0.6819 -1.3346  0.8966
 4215TIP3    H234137   2.303   0.348  16.458  0.2869  0.7693  2.2868
 4216TIP3   OH234138   1.325   4.085   3.915 -0.2822  0.4211  0.0981
 4216TIP3    H134139   1.262   4.124   3.976 -1.3373 -1.0958  0.0366
 4216TIP3    H234140   1.373   4.021   3.967 -0.6363 -0.3122 -0.4556
 4217TIP3   OH234141   4.513   6.586  13.171 -0.0864  0.4004 -0.6164
 4217TIP3    H134142   4.598   6.542  13.167  0.0352  0.6893 -1.3509
 4217TIP3    H234143   4.453   6.525  13.128 -0.1390  0.4493 -0.6125
 4218TIP3   OH234144   3.092   0.488   5.431  0.0352  0.9436 -0.1156
 4218TIP3    H134145   3.097   0.403   5.387  0.0991  0.5682  0.6021
 4218TIP3    H234146   3.162   0.540   5.391 -0.0869  0.7095 -0.6482
 4219TIP3   OH234147   0.025   0.537   3.464  0.6867  0.3613  0.1509
 4219TIP3    H134148   0.019   0.632   3.461  1.0671  0.3896  0.1534
 4219TIP3    H234149  -0.063   0.506   3.446  0.7815  0.6978 -0.9819
 4220TIP3   OH234150   2.186   0.596  13.783 -0.1986 -0.4895  0.2803
 4220TIP3    H134151   2.241   0.646  13.844  2.4530 -2.0733 -0.6345
 4220TIP3    H234152   2.161   0.659  13.716 -1.4654  0.7964  1.8850
 4221TIP3   OH234153   2.639   0.926   5.362 -0.4725 -0.0791 -0.0258
 4221TIP3    H134154   2.689   1.001   5.394  0.0788 -0.6771  0.5436
 4221TIP3    H234155   2.609   0.953   5.276  0.3489  0.5210 -0.1407
 4222TIP3   OH234156   3.057   1.039   5.542  0.1103  0.5568 -0.1285
 4222TIP3    H134157   3.054   0.985   5.463 -0.1063 -0.4305  0.5365
 4222TIP3    H234158   3.075   1.128   5.510 -0.2836  0.2279 -1.2998
 4223TIP3   OH234159   0.689   6.428   6.186  0.3695  0.4324 -0.5638
 4223TIP3    H134160   0.666   6.368   6.115  0.2275  1.1025 -1.1032
 4223TIP3    H234161   0.609   6.435   6.238  0.6275 -0.4624 -0.0226
 4224TIP3   OH234162   2.404   3.413  13.897 -0.6107 -0.1739 -0.4673
 4224TIP3    H134163   2.410   3.468  13.975 -1.9515  1.2553 -1.2964
 4224TIP3    H234164   2.494   3.386  13.880 -0.5122 -2.7204  2.9897
 4225TIP3   OH234165   0.020   0.950  11.589 -0.0187 -0.0315 -0.2858
 4225TIP3    H134166   0.086   0.927  11.524  0.2509 -0.6969  0.2088
 4225TIP3    H234167   0.058   1.024  11.636 -0.5903  1.0225 -1.4344
 4226TIP3   OH234168   1.989   5.537  16.732 -0.3079  0.0641 -0.1303
 4226TIP3    H134169   2.012   5.624  16.765  0.0204  0.9803 -2.5926
 4226TIP3    H234170   1.896   5.544  16.710 -0.7884 -0.8607  1.4466
 4227TIP3   OH234171   4.115   4.053   3.373 -0.1060 -0.2847 -0.3225
 4227TIP3    H134172   4.111   3.983   3.438  1.0812  0.2507  0.3502
 4227TIP3    H234173   4.064   4.019   3.299  1.1929 -2.2804 -0.3900
 4228TIP3   OH234174   0.960   0.747  13.832 -0.5556 -0.7295  0.2303
 4228TIP3    H134175   0.930   0.767  13.921  0.8898 -0.3492  0.6568
 4228TIP3    H234176   0.879   0.730  13.783 -1.5215  0.9448  1.1326
 4229TIP3   OH234177   2.287   1.916  11.754 -0.4709 -0.1510 -0.2162
 4229TIP3    H134178   2.214   1.968  11.786  0.1574  1.5903 -1.4471
 4229TIP3    H234179   2.364   1.970  11.772  0.2236 -0.7342 -1.3498
 4230TIP3   OH234180   1.759   5.138  13.131 -0.1732  0.0837  0.2129
 4230TIP3    H134181   1.786   5.068  13.072  0.4441  1.4019 -1.1365
 4230TIP3    H234182   1.669   5.158  13.103  0.6734  1.8176 -1.4734
 4231TIP3   OH234183   6.627   1.032   3.567 -0.7908  0.1522 -0.0954
 4231TIP3    H134184   6.721   1.038   3.548 -0.8554 -2.5769 -1.8313
 4231TIP3    H234185   6.621   0.968   3.637 -1.3556  0.5300  0.2069
 4232TIP3   OH234186   0.196   3.924   4.678  0.1235  0.6080 -0.0539
 4232TIP3    H134187   0.180   4.011   4.641 -0.5348 -0.1849 -1.7100
 4232TIP3    H234188   0.204   3.939   4.772 -2.7736  2.0919  0.0394
 4233TIP3   OH234189   4.541   3.333   3.067  0.3457  0.1561 -0.0211
 4233TIP3    H134190   4.469   3.349   3.128  0.0264  0.3701 -0.4455
 4233TIP3    H234191   4.513   3.255   3.018  0.0777  0.6434 -0.6591
 4234TIP3   OH234192   2.019   5.347  12.369  0.2212  0.4842 -0.5411
 4234TIP3    H134193   2.112   5.328  12.362 -0.1392 -1.6281 -0.3672
 4234TIP3    H234194   2.014   5.426  12.423  1.8831  0.2958 -0.0521
 4235TIP3   OH234195   3.019   3.741   2.163  0.2890 -0.3094  0.1611
 4235TIP3    H134196   3.082   3.775   2.227 -0.8900  1.9482  0.2331
 4235TIP3    H234197   2.941   3.796   2.176 -0.3536 -0.4676 -2.5066
 4236TIP3   OH234198   6.618   4.873  15.464  0.2473 -0.1002 -0.3922
 4236TIP3    H134199   6.688   4.934  15.486 -0.1070  0.4585 -0.7897
 4236TIP3    H234200   6.582   4.847  15.549 -0.1887  0.9531 -0.2417
 4237TIP3   OH234201   1.093   5.090  16.243 -0.1627  0.0319  0.7470
 4237TIP3    H134202   1.094   5.121  16.153 -0.0420 -0.1626  0.6805
 4237TIP3    H234203   1.147   5.153  16.291 -0.0463  0.0112  0.6423
 4238TIP3   OH234204   6.313   4.292  11.238 -0.2076 -0.3661 -0.2035
 4238TIP3    H134205   6.339   4.382  11.254  0.8598 -0.8861  1.2789
 4238TIP3    H234206   6.325   4.279  11.144  0.5830  0.7340 -0.2717
 4239TIP3   OH234207   5.328   0.193   1.357  0.0948 -0.2206  0.2930
 4239TIP3    H134208   5.324   0.119   1.297  0.6025  1.6287 -2.1840
 4239TIP3    H234209   5.364   0.265   1.305 -1.2480  2.0521  2.2551
 4240TIP3   OH234210   0.799   6.490   0.842  0.0911 -0.5382  0.0628
 4240TIP3    H134211   0.887   6.462   0.820  0.2387  0.4992 -0.7206
 4240TIP3    H234212   0.770   6.541   0.767 -1.2750 -1.0639  0.2038
 4241TIP3   OH234213   4.009   5.292   3.398 -0.6263  0.2070  0.4332
 4241TIP3    H134214   3.930   5.249   3.367 -0.4606 -0.9739  1.5815
 4241TIP3    H234215   3.978   5.358   3.461 -0.6512 -1.7785  2.6349
 4242TIP3   OH234216   3.431   1.953  17.389  0.0225  0.8505 -0.1452
 4242TIP3    H134217   3.492   1.938  17.317  0.4102 -0.4265  0.4202
 4242TIP3    H234218   3.378   2.027  17.361  0.1515  0.3597 -1.7631
 4243TIP3   OH234219   1.058   3.904  14.860  0.2511 -0.3545 -0.2610
 4243TIP3    H134220   1.110   3.974  14.819  0.7919 -0.1377  0.7506
 4243TIP3    H234221   1.076   3.913  14.954 -0.9023 -0.8730  0.0250
 4244TIP3   OH234222   6.119   5.121   3.711  0.3073  0.2163 -0.0994
 4244TIP3    H134223   6.189   5.130   3.646  0.8114 -0.7719  0.2719
 4244TIP3    H234224   6.089   5.210   3.728 -1.5561  0.3989 -3.4915
 4245TIP3   OH234225   3.390   4.594  12.049  0.8883 -0.0445 -0.4615
 4245TIP3    H134226   3.434   4.511  12.067  1.0403  0.2026  0.3896
 4245TIP3    H234227   3.298   4.571  12.037  0.9326 -0.3406 -0.2507
 4246TIP3   OH234228   3.045   4.162  12.993 -0.1199  0.5508 -0.1611
 4246TIP3    H134229   3.004   4.242  12.960 -1.2785 -0.7452 -2.0170
 4246TIP3    H234230   2.973   4.114  13.035  0.4170  0.1750  0.3358
 4247TIP3   OH234231   0.730   5.497  13.840  0.7416 -0.0241 -0.2307
 4247TIP3    H134232   0.764   5.407  13.842  0.8545 -0.0429 -1.8478
 4247TIP3    H234233   0.656   5.495  13.901  0.3187 -1.3989 -0.7480
 4248TIP3   OH234234   6.228   4.686   5.824 -0.3129 -0.2551  0.5963
 4248TIP3    H134235   6.236   4.669   5.918  0.4094 -0.9201  0.4212
 4248TIP3    H234236   6.149   4.639   5.797 -1.1729  0.8569  1.0649
 4249TIP3   OH234237   5.104   3.037  13.110  0.0731 -0.2551 -0.3261
 4249TIP3    H134238   5.104   3.132  13.119  0.5389 -0.2889  0.0923
 4249TIP3    H234239   5.186   3.009  13.151 -0.3335 -0.8799  0.0794
 4250TIP3   OH234240   5.926   0.609   0.686  0.3317 -0.3902 -0.1181
 4250TIP3    H134241   5.917   0.626   0.592 -0.3509  1.6768  0.2795
 4250TIP3    H234242   5.875   0.529   0.700  0.8672 -1.0360 -1.5644
 4251TIP3   OH234243   5.206   2.105   5.845 -0.0074 -0.2871 -0.2599
 4251TIP3    H134244   5.171   2.100   5.934  2.5968 -0.7410  0.8362
 4251TIP3    H234245   5.276   2.039   5.843 -0.1267 -0.4299 -2.7242
 4252TIP3   OH234246   4.422   5.292  17.230  0.0657  0.1795  0.1487
 4252TIP3    H134247   4.328   5.283  17.248  0.2314 -3.0402  0.0512
 4252TIP3    H234248   4.426   5.311  17.136 -0.4463  3.6227  0.6807
 4253TIP3   OH234249   0.429   2.728   4.653  0.1762 -0.5601 -0.4815
 4253TIP3    H134250   0.415   2.811   4.609 -0.6668 -0.9094 -0.9111
 4253TIP3    H234251   0.436   2.664   4.582  3.0417 -0.6099 -0.2722
 4254TIP3   OH234252   0.851   0.291  17.401 -0.2106  0.2660  0.0051
 4254TIP3    H134253   0.860   0.316  17.493  0.3715  1.7924 -0.4221
 4254TIP3    H234254   0.904   0.356  17.354 -0.2225 -0.6868 -1.3782
 4255TIP3   OH234255   6.057   1.038  16.571 -0.1990  0.4591 -0.3449
 4255TIP3    H134256   6.114   0.961  16.575  1.1968  1.4671  0.1371
 4255TIP3    H234257   6.018   1.034  16.484  1.1120  0.0635 -0.9369
 4256TIP3   OH234258   4.161   0.937  15.069  0.5584  0.1671  0.2238
 4256TIP3    H134259   4.253   0.911  15.067  0.3623 -0.7396  1.4339
 4256TIP3    H234260   4.163   1.028  15.097  1.0385 -0.6254  3.0980
 4257TIP3   OH234261   4.490   3.916   4.381  0.6909 -0.5254 -0.1342
 4257TIP3    H134262   4.418   3.979   4.377  1.2510  0.1535  0.3580
 4257TIP3    H234263   4.539   3.940   4.459  1.2858 -1.1687 -0.3017
 4258TIP3   OH234264   0.845   1.838   1.038  1.0108 -0.3168 -0.1639
 4258TIP3    H134265   0.915   1.790   1.081  0.2010 -0.3881  1.1089
 4258TIP3    H234266   0.877   1.927   1.031  0.9791 -0.2075  1.0103
 4259TIP3   OH234267   5.447   1.408  11.700 -0.2419 -0.0914  0.6429
 4259TIP3    H134268   5.419   1.325  11.662 -0.5334  1.0225 -1.7671
 4259TIP3    H234269   5.382   1.428  11.767 -1.5025 -0.7190 -0.3595
 4260TIP3   OH234270   3.683   1.131   0.225 -0.0152  0.2354 -0.3703
 4260TIP3    H134271   3.720   1.216   0.249 -0.7842  0.9752 -1.6587
 4260TIP3    H234272   3.760   1.075   0.210  0.5476  1.1172 -0.8979
 4261TIP3   OH234273   3.081   3.157  13.484 -0.0828 -0.1313  0.1803
 4261TIP3    H134274   3.040   3.243  13.491  0.7841  0.3464 -0.3873
 4261TIP3    H234275   3.050   3.122  13.400  1.4354  0.6882 -0.7799
 4262TIP3   OH234276   1.941   0.795  11.729 -0.7223  0.1077  0.4398
 4262TIP3    H134277   2.011   0.764  11.786  0.3409  2.0049  0.2390
 4262TIP3    H234278   1.880   0.840  11.787 -1.8585 -1.5566  0.6172
 4263TIP3   OH234279   0.862   4.170   2.962 -0.0553  0.2156  0.0654
 4263TIP3    H134280   0.895   4.173   3.052  0.8725  0.7627 -0.2785
 4263TIP3    H234281   0.777   4.213   2.966  0.4140  1.1336  0.5075
 4264TIP3   OH234282   2.286   1.661  16.091 -0.2191  0.2295 -0.5305
 4264TIP3    H134283   2.366   1.682  16.140 -0.8097  1.6550 -0.1172
 4264TIP3    H234284   2.216   1.705  16.140 -0.9876  0.6577 -1.9578
 4265TIP3   OH234285   5.448   6.491   1.046  0.3302 -0.2190  0.4805
 4265TIP3    H134286   5.447   6.544   0.967  0.0231 -0.6311  0.2078
 4265TIP3    H234287   5.459   6.554   1.117  1.0154  0.1138  0.0828
 4266TIP3   OH234288   6.522   5.290   3.234 -0.5017  0.1557  0.1247
 4266TIP3    H134289   6.472   5.260   3.158  2.0775 -0.5800 -1.4159
 4266TIP3    H234290   6.564   5.371   3.205  1.6672 -0.8829  0.1759
 4267TIP3   OH234291   0.138   5.982  13.914 -0.0603 -0.2685 -0.2849
 4267TIP3    H134292   0.098   6.026  13.989  1.8737  0.6693  0.2777
 4267TIP3    H234293   0.156   5.894  13.945  0.8359  0.1497  0.4332
 4268TIP3   OH234294   1.917   0.435   3.145  0.1019  0.1129 -0.2979
 4268TIP3    H134295   1.987   0.497   3.122  0.4320 -0.0301  0.3196
 4268TIP3    H234296   1.939   0.404   3.233 -0.1082 -0.8112 -0.5531
 4269TIP3   OH234297   2.841   5.006  15.022 -0.5628 -0.4601  0.3061
 4269TIP3    H134298   2.848   5.058  15.103 -2.2011 -0.0328  0.2018
 4269TIP3    H234299   2.846   4.915  15.052  0.6105 -0.2960  0.6744
 4270TIP3   OH234300   4.408   4.623  16.183  0.0794  0.5108 -0.6426
 4270TIP3    H134301   4.480   4.660  16.235 -1.4507  1.4226  0.9460
 4270TIP3    H234302   4.425   4.529  16.181  1.3024  0.7067 -0.2895
 4271TIP3   OH234303   3.823   0.102   5.396 -0.1470 -0.6206  0.3009
 4271TIP3    H134304   3.843   0.009   5.401  2.0297 -0.1667  1.4571
 4271TIP3    H234305   3.898   0.145   5.438 -1.6847  1.5939  0.9708
 4272TIP3   OH234306   2.200   6.335   1.093 -0.7982 -0.1085  0.3359
 4272TIP3    H134307   2.133   6.315   1.028  0.3230 -2.2013 -0.2691
 4272TIP3    H234308   2.170   6.290   1.173 -0.8290  0.1850  0.4920
 4273TIP3   OH234309   3.625   1.494   4.516  0.1418 -0.5558  0.0545
 4273TIP3    H134310   3.644   1.435   4.443  2.1925  1.0265 -0.7810
 4273TIP3    H234311   3.564   1.558   4.480  0.4066 -0.3264  0.0149
 4274TIP3   OH234312   1.231   5.958   6.071  0.2221  0.0478 -0.4560
 4274TIP3    H134313   1.141   5.937   6.098  0.2860 -1.7348 -1.4530
 4274TIP3    H234314   1.226   5.968   5.976  1.3133 -1.7601 -0.7561
 4275TIP3   OH234315   1.276   0.855  12.846 -0.4098  0.4452 -0.3412
 4275TIP3    H134316   1.324   0.780  12.880 -1.4074 -0.8721 -1.7415
 4275TIP3    H234317   1.195   0.857  12.897 -0.6502  0.1880 -0.7067
 4276TIP3   OH234318   5.884   5.833  16.410  0.4846 -0.1063  0.5267
 4276TIP3    H134319   5.877   5.738  16.418 -1.0605 -0.0938 -0.2323
 4276TIP3    H234320   5.795   5.862  16.390  1.0537  1.4364  0.0666
 4277TIP3   OH234321   4.985   2.751  14.112  0.1932  0.5682  0.0220
 4277TIP3    H134322   5.049   2.821  14.098  1.2112 -0.0598  1.2696
 4277TIP3    H234323   4.918   2.789  14.168  0.9355  0.4540  1.0000
 4278TIP3   OH234324   4.745   5.015  16.537  0.6100  0.2401 -0.2305
 4278TIP3    H134325   4.797   5.088  16.570  0.2607 -0.7141  2.7697
 4278TIP3    H234326   4.809   4.948  16.516  0.7838 -0.2748  1.7177
 4279TIP3   OH234327   4.330   4.242  16.039 -0.0734 -0.5569 -0.0016
 4279TIP3    H134328   4.248   4.210  16.001  0.0328  1.1070 -1.8019
 4279TIP3    H234329   4.302   4.303  16.108 -0.3974  0.1268 -0.7147
 4280TIP3   OH234330   3.035   4.293   2.947 -0.0101 -0.3980  0.3580
 4280TIP3    H134331   3.108   4.355   2.939  0.1312 -0.3516  1.7226
 4280TIP3    H234332   2.994   4.316   3.030  1.4945 -3.6050  2.1717
 4281TIP3   OH234333   1.038   0.690  16.469  0.1708  0.0303 -0.9165
 4281TIP3    H134334   0.997   0.628  16.409  1.1028  0.3344 -1.9075
 4281TIP3    H234335   1.084   0.636  16.532 -2.3763 -0.3461  0.7560
 4282TIP3   OH234336   0.850   2.372  10.883 -0.4091 -0.0546  0.6819
 4282TIP3    H134337   0.801   2.454  10.884 -0.3610 -0.0291  0.9239
 4282TIP3    H234338   0.791   2.309  10.840  0.2543  0.5446 -1.1684
 4283TIP3   OH234339   3.507   5.584   1.756 -0.0908  0.2373 -0.2107
 4283TIP3    H134340   3.511   5.524   1.830  0.0312  1.0842  0.4919
 4283TIP3    H234341   3.415   5.608   1.750 -0.0845  0.2459 -0.2701
 4284TIP3   OH234342   0.426   5.619   4.095  0.2939  0.0447  0.1325
 4284TIP3    H134343   0.347   5.627   4.149  1.5664 -0.9209  2.2799
 4284TIP3    H234344   0.446   5.708   4.068 -0.3516  0.5963  1.3852
 4285TIP3   OH234345   3.803   5.570   3.077 -0.0415  0.2295 -0.0708
 4285TIP3    H134346   3.716   5.557   3.040  0.2268  1.1519 -1.0808
 4285TIP3    H234347   3.859   5.508   3.030 -0.0465  0.0449  0.1653
 4286TIP3   OH234348   0.517   2.896  13.798 -0.6159 -0.3721  0.2432
 4286TIP3    H134349   0.559   2.970  13.842 -0.2090 -0.8685  0.7007
 4286TIP3    H234350   0.443   2.935  13.751  0.7007  0.6171 -1.1064
 4287TIP3   OH234351   5.039   2.072  11.990 -0.2307 -0.5365 -0.1969
 4287TIP3    H134352   5.024   2.153  11.940 -0.4029 -0.6175 -0.2753
 4287TIP3    H234353   5.027   2.002  11.926 -1.6668 -0.6997  0.2332
 4288TIP3   OH234354   1.627   6.265  12.673 -0.1561 -0.3419 -0.3219
 4288TIP3    H134355   1.647   6.306  12.757 -0.3055 -0.1412 -0.3837
 4288TIP3    H234356   1.708   6.222  12.647  0.4764  1.1888 -0.9965
 4289TIP3   OH234357   2.145   2.855  16.441 -0.0517 -0.4263  0.2443
 4289TIP3    H134358   2.121   2.851  16.349 -0.2017 -0.8693  0.3025
 4289TIP3    H234359   2.148   2.764  16.469 -1.7532 -0.2442  1.1304
 4290TIP3   OH234360   5.349   2.780   1.676  0.5734  0.7012 -0.1865
 4290TIP3    H134361   5.437   2.782   1.713  0.1822  0.6775  0.7772
 4290TIP3    H234362   5.356   2.826   1.593  1.5878  0.3079 -0.3252
 4291TIP3   OH234363   4.011   4.428  16.316 -0.3742  0.4491  0.0257
 4291TIP3    H134364   3.939   4.474  16.274 -0.2336  0.1312 -0.5734
 4291TIP3    H234365   3.969   4.361  16.370 -0.5273 -0.1851 -0.8504
 4292TIP3   OH234366   0.621   2.497  16.838 -0.5194  0.3405 -0.1170
 4292TIP3    H134367   0.707   2.493  16.881 -1.1290 -0.1217  1.0944
 4292TIP3    H234368   0.608   2.408  16.804 -0.0699  0.6864 -1.2278
 4293TIP3   OH234369   2.205   1.832   2.801 -0.4285  0.2572  0.0840
 4293TIP3    H134370   2.210   1.922   2.832  1.7022 -0.9056  3.6748
 4293TIP3    H234371   2.142   1.790   2.859  1.2099 -1.2992  0.8321
 4294TIP3   OH234372   4.014   4.543   1.505 -0.4349 -0.0370 -0.3643
 4294TIP3    H134373   4.038   4.503   1.589  0.8504 -0.9297 -1.1106
 4294TIP3    H234374   3.970   4.625   1.529 -0.2137 -0.3286  1.1711
 4295TIP3   OH234375   0.846   4.805  15.740  0.4695 -0.3310  0.1050
 4295TIP3    H134376   0.896   4.778  15.663 -0.9816 -1.1873 -0.5667
 4295TIP3    H234377   0.909   4.802  15.812  1.1550 -2.3645 -0.5372
 4296TIP3   OH234378   3.829   5.709   0.554  0.9420 -0.0156 -0.0143
 4296TIP3    H134379   3.799   5.633   0.504  0.8798 -0.4884  0.7256
 4296TIP3    H234380   3.871   5.672   0.631 -0.6491  0.6921  1.2638
 4297TIP3   OH234381   2.507   0.285  16.370 -0.5553  0.1239 -0.1522
 4297TIP3    H134382   2.502   0.191  16.352  0.7757  0.0231 -0.1292
 4297TIP3    H234383   2.468   0.327  16.294  1.3806 -0.3950 -1.5034
 4298TIP3   OH234384   6.532   6.570  12.499  0.6340  0.2607 -0.5310
 4298TIP3    H134385   6.480   6.647  12.523 -0.6221 -1.3257  2.2866
 4298TIP3    H234386   6.623   6.599  12.509  0.1816  1.2095  1.2563
 4299TIP3   OH234387   5.479   5.957   3.903  0.1123 -0.3196 -0.4697
 4299TIP3    H134388   5.528   5.890   3.950 -1.3564 -0.3580  1.1298
 4299TIP3    H234389   5.452   5.914   3.822  1.6617 -0.6686 -0.8252
 4300TIP3   OH234390   5.084   1.156  13.259  0.0692 -0.0446 -0.1854
 4300TIP3    H134391   5.055   1.137  13.170  1.3480 -0.4076 -0.5512
 4300TIP3    H234392   5.081   1.251  13.266 -0.2293 -0.0278 -0.5489
 4301TIP3   OH234393   5.141   6.178   2.909  0.5216 -0.6119  0.1871
 4301TIP3    H134394   5.221   6.157   2.958  1.8663 -0.5116 -1.8303
 4301TIP3    H234395   5.152   6.133   2.825 -0.8319  0.6919 -0.7334
 4302TIP3   OH234396   6.247   2.598  17.306 -0.0360  0.3886  0.1704
 4302TIP3    H134397   6.170   2.574  17.254  1.7261  1.3679 -3.1603
 4302TIP3    H234398   6.251   2.693  17.301  0.4790  0.4812  1.7723
 4303TIP3   OH234399   2.717   0.586  17.051  0.5897 -0.1732 -0.1131
 4303TIP3    H134400   2.784   0.654  17.046  0.3037  0.0649 -0.7779
 4303TIP3    H234401   2.766   0.504  17.048  0.8027 -0.0231 -1.9741
 4304TIP3   OH234402   1.194   1.001   2.257  0.7132 -0.2363  0.8694
 4304TIP3    H134403   1.216   0.916   2.296  2.2946  0.0262  0.6349
 4304TIP3    H234404   1.269   1.022   2.201  0.6525  1.5944  1.4028
 4305TIP3   OH234405   5.674   0.526  17.400  0.5260 -0.3695 -0.2038
 4305TIP3    H134406   5.632   0.492  17.320 -1.3614 -1.2354  1.0725
 4305TIP3    H234407   5.607   0.515  17.468  1.4677  1.8441  1.1939
 4306TIP3   OH234408   6.045   1.127  17.674 -0.1313 -0.4903  0.4258
 4306TIP3    H134409   6.046   1.099  17.582 -0.7714 -0.2975  0.3529
 4306TIP3    H234410   6.020   1.049  17.723  2.6784 -1.3004  0.7249
 4307TIP3   OH234411   1.995   2.808  15.304 -0.0551 -0.1592  0.3459
 4307TIP3    H134412   1.925   2.844  15.360  2.7667  1.4458  3.1795
 4307TIP3    H234413   2.028   2.884  15.256  0.5363 -0.6335 -0.0059
 4308TIP3   OH234414   4.684   6.461  17.023  0.2991  0.3994  0.0769
 4308TIP3    H134415   4.703   6.373  16.990  0.3242  0.2011  0.6218
 4308TIP3    H234416   4.648   6.447  17.111 -3.0639  0.6777 -1.0852
 4309TIP3   OH234417   0.353   3.222  13.934  0.4027 -0.2906  0.4043
 4309TIP3    H134418   0.384   3.185  13.851 -0.4118  0.9411 -0.4913
 4309TIP3    H234419   0.346   3.146  13.992  1.9134 -1.0545 -0.3368
 4310TIP3   OH234420   0.956   6.497   2.604 -0.3787 -0.1933 -0.4380
 4310TIP3    H134421   1.036   6.499   2.658  0.3191  0.2353 -1.4597
 4310TIP3    H234422   0.913   6.580   2.623  0.3941  0.4174 -1.3005
 4311TIP3   OH234423   4.220   6.552   2.037  0.2633 -0.4222 -0.0627
 4311TIP3    H134424   4.132   6.513   2.034 -0.0627  0.3179 -0.8666
 4311TIP3    H234425   4.223   6.597   2.121 -1.4096  2.2622 -1.2785
 4312TIP3   OH234426   3.380   6.319   1.348 -0.1624 -0.1587  0.0717
 4312TIP3    H134427   3.411   6.390   1.405  0.7680  0.5155 -1.2223
 4312TIP3    H234428   3.317   6.271   1.402  0.9263  0.2410  1.7817
 4313TIP3   OH234429   5.539   4.046  13.358  0.5975 -0.7453 -0.2418
 4313TIP3    H134430   5.545   3.958  13.394  0.4615 -0.5250  0.3200
 4313TIP3    H234431   5.458   4.046  13.308 -0.7853 -0.1884  1.8651
 4314TIP3   OH234432   1.864   5.156  15.698 -0.0316 -0.1494 -0.2605
 4314TIP3    H134433   1.931   5.214  15.736  1.3639 -1.1439 -1.1097
 4314TIP3    H234434   1.797   5.216  15.664 -0.8710  0.8031  2.8059
 4315TIP3   OH234435   3.625   3.585  12.662 -0.7064  0.1191  0.4745
 4315TIP3    H134436   3.661   3.496  12.661 -3.2634 -1.0152 -1.1055
 4315TIP3    H234437   3.621   3.607  12.755  0.4093 -1.2262  0.8815
 4316TIP3   OH234438   3.334   3.940   1.204 -0.0818 -0.3497  0.2387
 4316TIP3    H134439   3.377   3.895   1.131  0.6061  0.1055  0.3605
 4316TIP3    H234440   3.344   3.881   1.278  2.3406  0.7101  0.8319
 4317TIP3   OH234441   1.374   2.767  14.181  0.4924 -0.3357 -0.2669
 4317TIP3    H134442   1.295   2.719  14.203  0.7980 -0.4880  0.5360
 4317TIP3    H234443   1.346   2.830  14.114 -0.1851 -0.7489 -0.3804
 4318TIP3   OH234444   4.818   3.605   2.488 -0.9400  0.2927  0.1863
 4318TIP3    H134445   4.817   3.597   2.583 -1.3929  0.0889  0.1705
 4318TIP3    H234446   4.782   3.692   2.470 -0.4623  0.4986  0.2116
 4319TIP3   OH234447   3.372   4.616  14.246  0.0234  0.3386 -0.6494
 4319TIP3    H134448   3.293   4.636  14.296 -0.9657 -0.9525 -1.6322
 4319TIP3    H234449   3.421   4.556  14.302 -0.6334 -0.3674 -0.8138
 4320TIP3   OH234450   1.066   5.961   4.633 -0.0937  0.1297  0.0198
 4320TIP3    H134451   1.118   5.882   4.647 -1.0989 -0.9557 -1.9011
 4320TIP3    H234452   1.129   6.028   4.609  0.7118 -0.2239  1.0695
 4321TIP3   OH234453   4.568   1.242  11.825  0.1015  0.1148 -0.5801
 4321TIP3    H134454   4.555   1.290  11.907  1.5262  0.4073 -0.5012
 4321TIP3    H234455   4.555   1.308  11.757 -1.2922 -0.1737 -0.6348
 4322TIP3   OH234456   0.494   5.983   4.719  0.1433  0.0857 -0.3191
 4322TIP3    H134457   0.442   6.036   4.658  0.6153  0.8939 -0.0349
 4322TIP3    H234458   0.458   6.003   4.805  0.6777  0.3743 -0.1564
 4323TIP3   OH234459   3.075   6.644   0.019  0.3213 -0.5147  0.1437
 4323TIP3    H134460   3.111   6.648   0.108  1.0308  1.8584 -0.1823
 4323TIP3    H234461   3.152   6.652  -0.037 -0.1843 -1.4360 -0.7078
 4324TIP3   OH234462   2.466   1.407  14.792 -0.2618  0.5038  0.0766
 4324TIP3    H134463   2.499   1.347  14.724 -0.7308  0.7676 -0.3953
 4324TIP3    H234464   2.544   1.447  14.829  0.2520 -1.9362  1.8930
 4325TIP3   OH234465   5.897   1.273   3.600  0.2879  0.1600  0.2574
 4325TIP3    H134466   5.802   1.285   3.601  0.2390  0.4225 -2.0048
 4325TIP3    H234467   5.912   1.202   3.537  1.6114  0.4464  0.2151
 4326TIP3   OH234468   3.666   1.491  15.492 -0.3500  0.0628 -0.2326
 4326TIP3    H134469   3.602   1.431  15.453 -0.6253 -0.3381  0.8232
 4326TIP3    H234470   3.678   1.460  15.581  0.4788  0.8151 -0.0675
 4327TIP3   OH234471   2.281   5.877  13.132  0.1603 -0.1776  0.0816
 4327TIP3    H134472   2.320   5.931  13.063 -0.0259  0.1158  0.2042
 4327TIP3    H234473   2.316   5.913  13.214  0.5235 -0.6419  0.1345
 4328TIP3   OH234474   4.142   6.721  17.578  0.0447 -0.5459 -0.4576
 4328TIP3    H134475   4.090   6.650  17.616 -1.0755  0.9796  1.0463
 4328TIP3    H234476   4.183   6.764  17.653  2.0513 -0.5563 -1.4673
 4329TIP3   OH234477   5.843   2.870   0.255  0.0484 -0.8721  0.1025
 4329TIP3    H134478   5.829   2.900   0.345  0.1236 -1.0490  0.1728
 4329TIP3    H234479   5.938   2.871   0.244  0.0263 -0.5938 -0.0624
 4330TIP3   OH234480   5.653   1.243   3.718 -0.0376  0.2431 -0.5989
 4330TIP3    H134481   5.668   1.260   3.811 -1.9538 -0.0283 -0.1819
 4330TIP3    H234482   5.583   1.304   3.694 -0.1881 -0.3120 -1.6251
 4331TIP3   OH234483   0.568   3.108  14.389  0.3158 -0.1629 -0.1136
 4331TIP3    H134484   0.577   3.031  14.445  3.0592 -0.4442 -0.7923
 4331TIP3    H234485   0.494   3.087  14.331 -2.5365  0.0804  3.1102
 4332TIP3   OH234486   4.481   2.707   5.292 -0.8153 -0.2500 -0.3370
 4332TIP3    H134487   4.415   2.775   5.274 -0.4931 -0.1047 -0.9911
 4332TIP3    H234488   4.520   2.733   5.375 -0.2773  0.7156 -0.8696
 4333TIP3   OH234489   3.935   0.649  11.562  0.8295  0.0562 -0.2274
 4333TIP3    H134490   3.921   0.584  11.493 -1.5098  0.4207 -0.1908
 4333TIP3    H234491   3.943   0.732  11.516 -3.1471  0.6768 -0.1680
 4334TIP3   OH234492   4.616   3.541   3.778  0.2516 -0.3513 -0.1298
 4334TIP3    H134493   4.617   3.497   3.693  1.2397 -0.4538 -0.0811
 4334TIP3    H234494   4.544   3.603   3.772  0.5130 -0.1294 -1.1697
 4335TIP3   OH234495   0.379   3.296  13.323  0.1434 -0.3111 -0.5126
 4335TIP3    H134496   0.294   3.261  13.295  0.4784 -0.5855 -1.2155
 4335TIP3    H234497   0.443   3.236  13.285  0.6772  0.2434 -0.5039
 4336TIP3   OH234498   1.942   5.854  16.632 -0.4613 -0.3652 -0.0448
 4336TIP3    H134499   2.008   5.920  16.611 -0.4026  0.3472  2.1181
 4336TIP3    H234500   1.955   5.785  16.567  0.5149  1.0178 -1.4032
 4337TIP3   OH234501   6.695   6.306  16.949  0.2832 -0.1713 -0.1514
 4337TIP3    H134502   6.612   6.324  16.993  0.1985 -2.5584  0.8110
 4337TIP3    H234503   6.758   6.296  17.020  0.9375 -0.4787 -0.7619
 4338TIP3   OH234504   4.679   5.061  14.156  0.4291  0.2505 -0.1162
 4338TIP3    H134505   4.666   5.121  14.229 -0.3046  0.8836 -0.7598
 4338TIP3    H234506   4.756   5.009  14.182 -0.8163 -0.7347  1.8778
 4339TIP3   OH234507   1.232   1.501   1.654  0.2667 -0.1512 -0.6711
 4339TIP3    H134508   1.140   1.478   1.638  0.6438 -1.1712 -1.4930
 4339TIP3    H234509   1.265   1.528   1.568  0.6949  0.3824 -0.3460
 4340TIP3   OH234510   4.165   4.428   3.104 -0.0662  0.2057 -0.9401
 4340TIP3    H134511   4.251   4.435   3.147 -0.1903  0.1715 -0.6872
 4340TIP3    H234512   4.133   4.518   3.101  0.1433  0.2660 -1.3729
 4341TIP3   OH234513   6.171   0.912   4.938 -0.6365  0.4596  0.0176
 4341TIP3    H134514   6.231   0.858   4.888 -1.3430 -1.0644  0.7433
 4341TIP3    H234515   6.211   0.920   5.025 -1.3419 -0.4171  0.4501
 4342TIP3   OH234516   4.634   4.586   2.535  0.0406 -0.5143  0.2647
 4342TIP3    H134517   4.688   4.561   2.610 -0.3662 -1.3554  0.2849
 4342TIP3    H234518   4.698   4.614   2.469  0.3437  1.7026  1.4176
 4343TIP3   OH234519   1.060   3.062  15.990 -0.2179 -0.2941  1.2488
 4343TIP3    H134520   1.106   2.979  15.990  1.7859  0.7477  2.1560
 4343TIP3    H234521   1.097   3.110  15.915  1.3083  1.0883  2.7988
 4344TIP3   OH234522   3.589   5.790   0.799  0.6261 -0.2125  0.0193
 4344TIP3    H134523   3.618   5.699   0.803 -0.9342 -0.7648 -0.4586
 4344TIP3    H234524   3.523   5.797   0.867  1.2045  0.7623  0.4957
 4345TIP3   OH234525   3.497   2.227   0.261 -0.7184 -0.4380  0.0738
 4345TIP3    H134526   3.490   2.193   0.350 -0.3977 -1.0841 -0.1431
 4345TIP3    H234527   3.569   2.289   0.264 -1.9124  0.9727  0.6960
 4346TIP3   OH234528   0.841   0.226  16.712 -0.0868 -0.2661  0.4861
 4346TIP3    H134529   0.846   0.143  16.664 -0.7602  0.3586 -0.7119
 4346TIP3    H234530   0.830   0.201  16.803  0.3284 -1.4961  0.2139
 4347TIP3   OH234531   5.637   4.290  13.446  0.1019  0.2664 -0.3114
 4347TIP3    H134532   5.571   4.358  13.460 -0.4549 -0.9509  4.8731
 4347TIP3    H234533   5.588   4.216  13.410 -0.5680  0.6300 -0.1636
 4348TIP3   OH234534   5.542   1.183  11.866  0.0014 -0.2349 -0.1326
 4348TIP3    H134535   5.609   1.249  11.853 -0.0530 -0.1740 -0.1002
 4348TIP3    H234536   5.536   1.172  11.961 -0.8449  0.5916 -0.0752
 4349TIP3   OH234537   0.003   5.788   0.353  0.8222 -0.3601  0.0624
 4349TIP3    H134538  -0.090   5.791   0.375  0.5820 -0.5482 -0.8898
 4349TIP3    H234539   0.007   5.739   0.272  1.9782 -2.3394  1.2293
 4350TIP3   OH234540   2.111   0.382  14.081  0.1631 -0.1208  0.5815
 4350TIP3    H134541   2.069   0.417  14.160 -2.0263 -2.0105  0.3544
 4350TIP3    H234542   2.083   0.440  14.011  0.3437  0.3121  0.8619
 4351TIP3   OH234543   6.328   0.974  12.798  0.0452 -0.4211  0.5998
 4351TIP3    H134544   6.240   0.991  12.765  0.2557  0.3580  0.4167
 4351TIP3    H234545   6.386   1.008  12.730  0.4877 -0.4592  0.9535
 4352TIP3   OH234546   2.260   5.240  12.288 -0.1701  0.3476  0.1662
 4352TIP3    H134547   2.275   5.229  12.194 -0.8399  1.2266 -0.0626
 4352TIP3    H234548   2.290   5.158  12.327  0.3049  0.0484 -0.7917
 4353TIP3   OH234549   6.654   4.273  13.487 -0.0664 -0.2075  0.1573
 4353TIP3    H134550   6.636   4.188  13.529  0.4561 -0.6352 -0.4565
 4353TIP3    H234551   6.568   4.308  13.465 -0.3186 -0.2617  1.0282
 4354TIP3   OH234552   4.135   1.651   4.496 -0.0748 -0.9393 -0.3473
 4354TIP3    H134553   4.044   1.655   4.524 -0.3892 -1.0645 -1.2990
 4354TIP3    H234554   4.135   1.586   4.425  0.1257  1.3091 -2.5612
 4355TIP3   OH234555   3.415   1.568   5.165  0.2497 -0.0519 -0.3844
 4355TIP3    H134556   3.358   1.491   5.160 -0.8000  0.4477  2.0648
 4355TIP3    H234557   3.354   1.642   5.158  1.2389  0.6215 -2.6958
 4356TIP3   OH234558   6.077   5.470   3.375 -0.0026 -0.3120  0.1956
 4356TIP3    H134559   6.007   5.504   3.430  0.5824  0.2171  0.6222
 4356TIP3    H234560   6.041   5.390   3.338 -1.6555  1.0822 -1.3719
 4357TIP3   OH234561   4.671   5.162   3.193 -0.4287  0.2428 -0.3455
 4357TIP3    H134562   4.750   5.110   3.176  1.4052  2.9278 -0.7457
 4357TIP3    H234563   4.704   5.250   3.213 -3.2922  1.1531  0.9872
 4358TIP3   OH234564   0.452   3.693   3.564 -0.4573 -0.2066 -0.5805
 4358TIP3    H134565   0.505   3.682   3.486 -0.2554 -0.5236 -0.4003
 4358TIP3    H234566   0.516   3.700   3.635 -0.6128  0.7370 -0.5150
 4359TIP3   OH234567   2.327   2.854  16.652 -0.2601 -0.2469 -0.3368
 4359TIP3    H134568   2.376   2.801  16.589  0.4340  0.0201 -0.0335
 4359TIP3    H234569   2.235   2.828  16.640 -0.2843  0.5944 -2.2320
 4360TIP3   OH234570   1.455   2.892   0.855  0.1773  0.0989 -0.3924
 4360TIP3    H134571   1.509   2.957   0.900 -0.7991  0.4386  0.3388
 4360TIP3    H234572   1.413   2.942   0.785 -0.2353  0.1699 -0.1011
 4361TIP3   OH234573   0.864   2.936  12.551 -0.1832 -0.0940 -0.0382
 4361TIP3    H134574   0.905   2.859  12.590  0.7596  0.2596 -0.2882
 4361TIP3    H234575   0.858   2.915  12.458  1.1007  0.5471 -0.2882
 4362TIP3   OH234576   1.084   0.065  17.523  0.4650  0.2313 -0.9272
 4362TIP3    H134577   1.102  -0.022  17.487 -0.4823 -0.7419  0.8286
 4362TIP3    H234578   0.996   0.059  17.558  0.0014  2.2385 -1.6207
 4363TIP3   OH234579   2.026   0.919  11.020 -0.0688 -0.1011 -0.0727
 4363TIP3    H134580   1.988   0.952  10.938  2.1780  0.3460 -1.0366
 4363TIP3    H234581   1.975   0.962  11.089  0.1075  2.2428 -1.2778
 4364TIP3   OH234582   1.829   5.449  11.629 -0.8351 -0.3513  0.2168
 4364TIP3    H134583   1.834   5.502  11.549  2.0381 -1.3805 -0.4006
 4364TIP3    H234584   1.886   5.494  11.691 -0.7523 -1.1126  0.7025
 4365TIP3   OH234585   0.393   0.492   4.539 -0.4040  0.3583 -0.3527
 4365TIP3    H134586   0.419   0.512   4.449  2.2862 -0.5210  0.1205
 4365TIP3    H234587   0.367   0.400   4.537  2.2008 -0.4842  0.1173
 4366TIP3   OH234588   5.633   3.190  15.685 -0.0298  0.0178 -0.0589
 4366TIP3    H134589   5.604   3.235  15.606  0.1363 -1.4996 -1.0263
 4366TIP3    H234590   5.577   3.224  15.754 -1.3088  0.1678 -1.1315
 4367TIP3   OH234591   5.274   1.541   4.151  0.3688 -0.4693 -0.2586
 4367TIP3    H134592   5.318   1.493   4.081  0.0568 -2.8158  1.0346
 4367TIP3    H234593   5.191   1.570   4.113  1.3742  0.7403 -1.6194
 4368TIP3   OH234594   5.411   4.936   4.295 -0.7513  0.6688  0.5300
 4368TIP3    H134595   5.333   4.919   4.242 -0.8943 -0.3211  1.0204
 4368TIP3    H234596   5.377   4.954   4.383 -0.4085 -0.9584  1.0294
 4369TIP3   OH234597   4.513   4.233   5.576 -0.3036  0.4936  0.6929
 4369TIP3    H134598   4.527   4.276   5.492  0.6869  0.8569  1.0305
 4369TIP3    H234599   4.580   4.269   5.634  0.8245 -1.7360  0.9075
 4370TIP3   OH234600   2.449   1.446   1.867 -0.1149 -0.4976 -0.1338
 4370TIP3    H134601   2.480   1.474   1.953 -0.3847 -1.8670  0.4311
 4370TIP3    H234602   2.486   1.358   1.855 -2.3949 -1.5231 -0.1511
 4371TIP3   OH234603   0.279   3.640   1.279 -0.1962 -0.3302  0.2111
 4371TIP3    H134604   0.337   3.631   1.204 -2.1598 -1.4927 -1.2766
 4371TIP3    H234605   0.233   3.722   1.265  1.5799  1.0405  1.8421
 4372TIP3   OH234606   2.304   1.771   0.777  0.5230 -0.4622 -0.0193
 4372TIP3    H134607   2.238   1.714   0.737 -0.4397  0.4973  0.1646
 4372TIP3    H234608   2.387   1.737   0.743 -0.0021 -1.9985  0.1260
 4373TIP3   OH234609   3.752   2.375  17.573  0.5793 -0.1234  0.9349
 4373TIP3    H134610   3.664   2.394  17.540  1.0026  1.1487  0.4430
 4373TIP3    H234611   3.746   2.288  17.611 -0.7308 -0.3198  0.3258
 4374TIP3   OH234612   0.052   4.751   4.837 -0.2034 -0.4562 -0.0913
 4374TIP3    H134613   0.000   4.672   4.850 -0.9884  0.1771  0.6841
 4374TIP3    H234614  -0.010   4.815   4.803  0.6824 -0.5114 -1.9358
 4375TIP3   OH234615   2.660   1.767  14.187 -0.0918  0.1492  0.2807
 4375TIP3    H134616   2.679   1.860  14.172 -0.4212  0.2908  0.7562
 4375TIP3    H234617   2.596   1.766  14.257  0.8976 -0.4911  1.2025
 4376TIP3   OH234618   2.186   3.450  15.510 -0.0105 -0.2995  0.3396
 4376TIP3    H134619   2.280   3.469  15.503  0.0033  0.1165  1.4552
 4376TIP3    H234620   2.159   3.491  15.592 -1.4787  0.7633 -0.6371
 4377TIP3   OH234621   5.552   5.567  13.809 -0.0768  0.2554 -0.2716
 4377TIP3    H134622   5.513   5.647  13.842 -0.6789 -0.7564  1.6263
 4377TIP3    H234623   5.482   5.502  13.812  1.1241 -1.0599  1.1394
 4378TIP3   OH234624   2.898   6.389   4.124 -0.0677  0.1759  0.2710
 4378TIP3    H134625   2.875   6.428   4.208 -1.9945  1.3588 -0.7411
 4378TIP3    H234626   2.842   6.312   4.116  0.3376 -0.1168  0.2019
 4379TIP3   OH234627   3.412   3.214  16.169  0.9333 -0.2512 -0.3970
 4379TIP3    H134628   3.422   3.188  16.261 -0.4706 -1.4905 -0.5555
 4379TIP3    H234629   3.321   3.192  16.148  0.8054  1.3619 -1.6863
 4380TIP3   OH234630   1.176   0.691  16.149 -0.1069  0.2314 -0.5917
 4380TIP3    H134631   1.218   0.694  16.063 -1.7811  0.3650 -1.4449
 4380TIP3    H234632   1.121   0.769  16.151 -1.0196 -0.4127  0.0981
 4381TIP3   OH234633   6.244   3.674  13.726  0.0563 -0.0288 -0.1766
 4381TIP3    H134634   6.310   3.708  13.786  0.5174  1.2424 -1.3466
 4381TIP3    H234635   6.161   3.709  13.760  0.2644  0.3612 -0.0588
 4382TIP3   OH234636   6.250   3.514   5.324  0.1099 -0.0767 -0.3917
 4382TIP3    H134637   6.295   3.587   5.367  0.2318 -0.3348 -0.0757
 4382TIP3    H234638   6.308   3.438   5.338 -1.2896 -0.8483  1.7211
 4383TIP3   OH234639   5.250   1.090   5.819 -0.3042  0.0083 -0.0703
 4383TIP3    H134640   5.264   1.091   5.914 -1.6458  1.0100  0.1487
 4383TIP3    H234641   5.300   1.165   5.786 -0.7070  0.3094 -0.0040
 4384TIP3   OH234642   3.046   2.780  17.000 -0.1989 -0.2618  0.3116
 4384TIP3    H134643   2.991   2.754  16.926 -0.4421 -0.7830  0.6678
 4384TIP3    H234644   2.990   2.766  17.077  0.5631 -1.2261  0.7154
 4385TIP3   OH234645   3.349   4.755  15.835 -0.0783 -0.6589 -0.0372
 4385TIP3    H134646   3.271   4.756  15.780 -1.8498 -1.7507  2.2321
 4385TIP3    H234647   3.386   4.668  15.824  0.4784 -0.3546 -0.6353
 4386TIP3   OH234648   5.962   1.013   2.750 -0.0870  0.1600  0.0438
 4386TIP3    H134649   5.985   0.939   2.806 -0.5418  0.9900  1.3529
 4386TIP3    H234650   5.970   1.089   2.806  1.8550  1.3262 -1.6440
 4387TIP3   OH234651   0.670   3.404   2.015  0.1075 -0.1701 -0.5679
 4387TIP3    H134652   0.619   3.472   2.060 -1.4827 -3.5627  3.4305
 4387TIP3    H234653   0.756   3.408   2.055  1.0985  1.3558 -2.6552
 4388TIP3   OH234654   1.402   4.099  15.613 -0.2233 -0.1083  0.8498
 4388TIP3    H134655   1.383   4.191  15.595  0.0772  0.0585  1.3576
 4388TIP3    H234656   1.402   4.093  15.708  3.3501  0.1976  1.0286
 4389TIP3   OH234657   3.847   4.420   7.107  0.1112 -0.1190  0.1770
 4389TIP3    H134658   3.842   4.343   7.050 -0.8175  0.3307 -0.3655
 4389TIP3    H234659   3.757   4.436   7.134  0.1880  1.2353 -0.3286
 4390TIP3   OH234660   0.031   0.088   3.835 -0.5866 -0.3992 -0.5500
 4390TIP3    H134661  -0.001   0.134   3.912 -1.4246 -0.8886 -0.5869
 4390TIP3    H234662   0.126   0.099   3.837 -0.5632 -0.7085  0.7476
 4391TIP3   OH234663   3.593   6.599   6.188  0.0918  0.0743 -0.4094
 4391TIP3    H134664   3.623   6.542   6.259  0.0759 -0.7428 -1.0478
 4391TIP3    H234665   3.501   6.615   6.209 -0.2687 -1.2283 -0.9177
 4392TIP3   OH234666   3.642   1.481   3.602 -0.0747  0.0567 -0.0009
 4392TIP3    H134667   3.689   1.429   3.667 -1.0242  0.2474  0.8636
 4392TIP3    H234668   3.657   1.572   3.628  3.1339  0.4615 -2.5547
 4393TIP3   OH234669   2.028   3.886   0.107 -0.0523 -0.6657 -0.5050
 4393TIP3    H134670   1.951   3.832   0.089 -1.5006  0.5421  1.5912
 4393TIP3    H234671   2.082   3.831   0.164 -1.3947 -0.1167  1.4069
 4394TIP3   OH234672   2.316   4.484  16.466  0.5795 -0.2144  0.4875
 4394TIP3    H134673   2.248   4.420  16.491  0.9097 -0.4879  0.6884
 4394TIP3    H234674   2.285   4.567  16.502 -0.1139 -0.1514 -0.2171
 4395TIP3   OH234675   0.267   0.501   5.625  0.2320  0.4452  0.0040
 4395TIP3    H134676   0.202   0.433   5.643 -0.6730  1.3034  0.0900
 4395TIP3    H234677   0.265   0.512   5.530 -0.6640  1.3176  0.1049
 4396TIP3   OH234678   5.506   5.954  13.167 -0.4088  0.3388 -0.4085
 4396TIP3    H134679   5.552   5.896  13.106  1.3024  0.8992  0.2982
 4396TIP3    H234680   5.426   5.906  13.190  0.5083 -1.3347 -0.5580
 4397TIP3   OH234681   1.647   4.486  11.763 -0.0158  0.0722 -0.1789
 4397TIP3    H134682   1.606   4.428  11.699  0.7773  0.5569 -1.1525
 4397TIP3    H234683   1.600   4.568  11.755 -0.5284 -0.1467  0.5379
 4398TIP3   OH234684   4.551   2.112   6.587 -0.2928  0.2994  0.4647
 4398TIP3    H134685   4.500   2.045   6.632  1.5581 -0.6393  1.3258
 4398TIP3    H234686   4.632   2.067   6.562 -0.2570  1.4481 -1.6820
 4399TIP3   OH234687   0.878   4.914  11.127 -0.1681 -0.3666  0.1613
 4399TIP3    H134688   0.970   4.941  11.127  0.0535 -1.0930  0.3461
 4399TIP3    H234689   0.829   4.994  11.112  0.4293  0.2630  1.4312
 4400TIP3   OH234690   3.750   5.203  14.741  0.1303  0.3066  0.1311
 4400TIP3    H134691   3.801   5.199  14.661  0.9437 -0.4438  0.6690
 4400TIP3    H234692   3.796   5.267  14.796  1.0936 -1.0783  0.9959
 4401TIP3   OH234693   3.521   4.161  15.407  0.8091 -0.3860 -0.2181
 4401TIP3    H134694   3.529   4.070  15.379  0.7564 -0.4399 -0.0580
 4401TIP3    H234695   3.571   4.166  15.488  0.1901 -0.4518  0.1783
 4402TIP3   OH234696   5.971   2.886  16.314 -0.2868 -0.0797  0.4151
 4402TIP3    H134697   6.052   2.908  16.359  0.7007 -1.2318 -0.7402
 4402TIP3    H234698   5.997   2.866  16.224 -2.0346  0.8244 -0.3464
 4403TIP3   OH234699   3.444   4.799   2.906 -0.7546  0.3792 -0.5009
 4403TIP3    H134700   3.385   4.870   2.933 -0.0010  0.6300  0.5372
 4403TIP3    H234701   3.463   4.818   2.814 -2.1376  0.3863 -0.8182
 4404TIP3   OH234702   3.097   1.424  15.271  0.2762  0.0187 -0.2026
 4404TIP3    H134703   3.076   1.508  15.311  3.1683  0.0440  1.5219
 4404TIP3    H234704   3.189   1.408  15.294  0.3760 -2.7785 -2.0024
 4405TIP3   OH234705   5.800   2.163   4.139 -0.1847 -0.0721  0.1548
 4405TIP3    H134706   5.855   2.124   4.071 -1.7454  0.8899 -1.7404
 4405TIP3    H234707   5.860   2.215   4.192  1.2755 -1.8573  0.3642
 4406TIP3   OH234708   2.494   3.291   6.509  0.0929 -0.2923 -0.1493
 4406TIP3    H134709   2.515   3.234   6.583  0.6601 -2.0936 -1.6085
 4406TIP3    H234710   2.518   3.239   6.432  0.5178  1.9050 -1.5791
 4407TIP3   OH234711   3.311   6.561  11.709 -0.5375 -0.0176 -0.2642
 4407TIP3    H134712   3.272   6.555  11.621 -0.9933 -1.4001  0.0043
 4407TIP3    H234713   3.359   6.479  11.719  1.2696  1.0217 -0.0071
 4408TIP3   OH234714   3.299   3.785   1.547  0.4942  0.3381  0.6039
 4408TIP3    H134715   3.223   3.775   1.490  1.7376  0.6040 -1.1771
 4408TIP3    H234716   3.299   3.877   1.572  0.5521  0.4590  0.1549
 4409TIP3   OH234717   0.209   1.600  15.701  0.4529 -0.2601  0.1573
 4409TIP3    H134718   0.221   1.680  15.649  0.9523 -0.4859 -0.0773
 4409TIP3    H234719   0.150   1.546  15.649 -0.7508  0.3891  0.8026
 4410TIP3   OH234720   5.735   4.904  16.897  0.6250  0.1809  0.5564
 4410TIP3    H134721   5.763   4.993  16.878  1.1679 -0.0332  0.3398
 4410TIP3    H234722   5.815   4.853  16.899  0.2259 -0.5207 -0.4841
 4411TIP3   OH234723   6.325   0.790   1.889  0.2647  0.0708 -0.2270
 4411TIP3    H134724   6.358   0.798   1.978 -0.6243  0.3314  0.0883
 4411TIP3    H234725   6.339   0.877   1.851 -3.0341  1.2918  0.9837
 4412TIP3   OH234726   5.233   2.062   3.795 -0.1392  0.2440 -0.4803
 4412TIP3    H134727   5.142   2.041   3.816 -0.6095  1.2234 -1.4288
 4412TIP3    H234728   5.247   2.150   3.831  0.7297 -0.2530  0.4564
 4413TIP3   OH234729   5.639   3.220   6.247  1.3088 -0.6532 -0.3409
 4413TIP3    H134730   5.562   3.219   6.303  0.0431 -0.0743 -1.9806
 4413TIP3    H234731   5.712   3.241   6.306  0.1859 -0.9333  1.2014
 4414TIP3   OH234732   3.170   0.220   0.106 -0.4905 -0.1203 -0.1463
 4414TIP3    H134733   3.102   0.177   0.053 -1.6840 -0.6711  1.7156
 4414TIP3    H234734   3.121   0.265   0.175  0.9170  1.8638 -0.3718
 4415TIP3   OH234735   4.001   2.373  15.359 -0.5941 -0.6567 -0.1632
 4415TIP3    H134736   3.947   2.450  15.378  0.9807  0.0088  2.0309
 4415TIP3    H234737   3.978   2.311  15.428  0.1198 -1.0678 -0.2871
 4416TIP3   OH234738   3.287   1.531  12.100  0.3907  0.0654 -0.6603
 4416TIP3    H134739   3.239   1.512  12.180  1.9183  2.6278  1.0007
 4416TIP3    H234740   3.279   1.451  12.048 -4.9021  0.0100 -0.2529
 4417TIP3   OH234741   4.587   5.366  14.668 -0.3489 -0.0738 -0.0799
 4417TIP3    H134742   4.549   5.279  14.679  1.2749 -0.7462  0.5880
 4417TIP3    H234743   4.667   5.363  14.721  0.5508  1.2967 -1.3164
 4418TIP3   OH234744   4.838   0.936   1.917  0.2163  0.3256 -0.1360
 4418TIP3    H134745   4.790   0.902   1.993 -1.1381  1.7011 -0.3316
 4418TIP3    H234746   4.816   0.876   1.846 -2.5888  1.7734 -0.6189
 4419TIP3   OH234747   6.586   5.549   0.896  0.0335  0.0604 -0.2230
 4419TIP3    H134748   6.502   5.594   0.905  0.5035  0.6645  1.7266
 4419TIP3    H234749   6.613   5.532   0.987  2.3291  0.4967 -0.7714
 4420TIP3   OH234750   6.465   2.559   6.431  0.0575 -1.1136 -0.0544
 4420TIP3    H134751   6.440   2.468   6.449  0.5741 -1.3775 -0.6364
 4420TIP3    H234752   6.512   2.587   6.510 -2.4370 -0.4288  1.3010
 4421TIP3   OH234753   4.237   2.712  17.361 -0.0919 -0.2681 -0.0567
 4421TIP3    H134754   4.260   2.802  17.335 -1.2934 -0.0283 -0.3521
 4421TIP3    H234755   4.321   2.666  17.365  0.6930  1.1899  1.3960
 4422TIP3   OH234756   3.895   2.597  17.650 -0.3384 -0.4798  1.1689
 4422TIP3    H134757   3.842   2.519  17.633 -0.4271 -0.0932 -0.4886
 4422TIP3    H234758   3.850   2.667  17.603  1.2899 -0.0214  0.2197
 4423TIP3   OH234759   0.597   4.523   5.049 -0.0880 -0.2090  0.7907
 4423TIP3    H134760   0.684   4.485   5.038  1.0608  2.1530  1.0282
 4423TIP3    H234761   0.576   4.510   5.141  0.8695  0.8204  1.1719
 4424TIP3   OH234762   0.247   3.722   3.339 -0.4089  0.0828  0.1712
 4424TIP3    H134763   0.182   3.782   3.374 -1.5977 -1.0754  0.0387
 4424TIP3    H234764   0.294   3.689   3.415 -1.0298 -0.2287  0.4287
 4425TIP3   OH234765   6.352   6.128   1.489  0.5845 -0.3048 -0.3897
 4425TIP3    H134766   6.319   6.123   1.399 -0.0992 -1.1425 -0.1114
 4425TIP3    H234767   6.442   6.097   1.483 -0.2681 -3.1398 -0.4206
 4426TIP3   OH234768   1.565   4.931  14.654  0.3673  0.0345 -0.3197
 4426TIP3    H134769   1.475   4.900  14.645  1.8789 -4.9222 -1.4721
 4426TIP3    H234770   1.608   4.906  14.572  4.0786 -3.6954  2.3383
 4427TIP3   OH234771   2.588   1.674  15.897  0.2215 -0.0748  0.0134
 4427TIP3    H134772   2.517   1.732  15.866  0.8905  0.1287 -1.1880
 4427TIP3    H234773   2.561   1.650  15.985 -0.3749  1.6167  0.3437
 4428TIP3   OH234774   6.002   6.046   4.601 -0.1969  0.2834  0.3018
 4428TIP3    H134775   6.012   6.141   4.610  1.0389  0.1253  0.8210
 4428TIP3    H234776   5.943   6.021   4.672  0.1544  0.5703  0.7055
 4429TIP3   OH234777   2.333   5.144  12.035  0.5400  0.2794 -0.3593
 4429TIP3    H134778   2.396   5.191  11.981  0.3354  0.2763 -0.5979
 4429TIP3    H234779   2.313   5.064  11.985 -2.0463  1.7004 -1.8127
 4430TIP3   OH234780   1.471   3.156  11.066  0.3257  0.6077 -0.7913
 4430TIP3    H134781   1.377   3.172  11.059  0.0048 -1.1316 -0.8060
 4430TIP3    H234782   1.511   3.222  11.010 -0.9721  0.4801 -1.9026
 4431TIP3   OH234783   1.947   2.589   4.685  0.4055 -0.1751 -0.5364
 4431TIP3    H134784   1.954   2.650   4.758 -0.2909  1.8368 -2.0670
 4431TIP3    H234785   2.036   2.584   4.649  0.1531  1.3051 -1.4236
 4432TIP3   OH234786   4.293   3.411  12.660 -0.1216 -0.9204 -0.1229
 4432TIP3    H134787   4.389   3.411  12.661 -0.1055 -1.1780 -0.8697
 4432TIP3    H234788   4.269   3.338  12.717  0.1125 -0.5028  0.5181
 4433TIP3   OH234789   3.498   6.133   3.355 -0.0869 -0.1499  0.4144
 4433TIP3    H134790   3.590   6.139   3.380  0.0925  1.6695 -0.4866
 4433TIP3    H234791   3.495   6.168   3.266 -1.6605 -0.1304  0.4436
 4434TIP3   OH234792   1.987   0.827   3.234  0.8416  0.0990  0.1480
 4434TIP3    H134793   2.051   0.847   3.302  1.6568 -0.0083 -0.5745
 4434TIP3    H234794   2.037   0.785   3.164  0.5587  2.5990 -1.7080
 4435TIP3   OH234795   6.377   2.097   6.156  0.1367  0.0145  0.2692
 4435TIP3    H134796   6.341   2.093   6.068  0.9677 -0.4955 -0.0614
 4435TIP3    H234797   6.352   2.014   6.197 -2.9511  1.4641  1.6491
 4436TIP3   OH234798   0.055   0.031   1.533 -0.1580  0.1310 -0.2007
 4436TIP3    H134799   0.043   0.123   1.509 -1.1261 -0.1193 -0.7391
 4436TIP3    H234800  -0.022  -0.013   1.497 -0.1212 -0.7568  0.7812
 4437TIP3   OH234801   2.528   5.301  16.145  0.0646  0.7554 -0.2635
 4437TIP3    H134802   2.506   5.281  16.054  0.1341  1.2165 -0.3854
 4437TIP3    H234803   2.525   5.217  16.190  0.5431  0.4432 -0.8029
 4438TIP3   OH234804   3.088   1.304   2.871 -0.0528  0.2398  0.2458
 4438TIP3    H134805   3.119   1.266   2.953 -0.5923  0.4518  0.5560
 4438TIP3    H234806   3.083   1.398   2.889  0.4115  0.3557 -0.2263
 4439TIP3   OH234807   1.280   1.284  12.561  0.5886 -0.1090 -0.0063
 4439TIP3    H134808   1.264   1.201  12.607 -0.2800 -0.1875 -0.4198
 4439TIP3    H234809   1.197   1.331  12.568  0.0898 -0.5232 -2.2829
 4440TIP3   OH234810   3.054   4.806  11.829  0.3900  0.1070 -0.2011
 4440TIP3    H134811   2.962   4.793  11.806  0.8217 -1.7814 -1.0504
 4440TIP3    H234812   3.086   4.871  11.766 -0.6222  1.6909  0.8655
 4441TIP3   OH234813   6.382   6.087  15.014  0.2586  0.8219  0.5608
 4441TIP3    H134814   6.468   6.058  15.044 -0.0393 -0.6041  0.0990
 4441TIP3    H234815   6.392   6.181  15.000  1.9824  0.5548 -0.2481
 4442TIP3   OH234816   3.663   5.582  17.477 -0.4147  0.5544  0.4339
 4442TIP3    H134817   3.611   5.508  17.511 -1.6469  1.6928  1.1412
 4442TIP3    H234818   3.721   5.605  17.550  2.9272 -2.1613 -1.0770
 4443TIP3   OH234819   1.050   2.542   0.625  0.0678 -0.2019 -0.4998
 4443TIP3    H134820   1.047   2.495   0.709  1.9924  0.6045  0.0694
 4443TIP3    H234821   1.141   2.534   0.597 -0.3391  0.3712 -2.0571
 4444TIP3   OH234822   0.210   3.606   2.187 -0.2637  0.2307 -0.1502
 4444TIP3    H134823   0.153   3.655   2.245 -0.1396  0.7253 -0.4395
 4444TIP3    H234824   0.200   3.515   2.214 -1.2528  0.3013 -0.2551
 4445TIP3   OH234825   4.851   1.275   1.206  0.6962  0.1288  0.6659
 4445TIP3    H134826   4.856   1.369   1.227  0.4808 -0.2870  2.7349
 4445TIP3    H234827   4.886   1.231   1.283 -1.9756 -1.6132  0.9924
 4446TIP3   OH234828   6.404   3.251   1.383  0.3062  0.4374  0.3753
 4446TIP3    H134829   6.484   3.271   1.431  0.0075  0.6388  0.7879
 4446TIP3    H234830   6.380   3.163   1.411  0.7393  0.1142 -0.2412
 4447TIP3   OH234831   5.505   6.090   2.176 -0.0421 -0.0203 -0.2229
 4447TIP3    H134832   5.517   6.167   2.120 -0.9110 -0.3149 -0.8391
 4447TIP3    H234833   5.422   6.051   2.146  0.1412 -0.9231  0.3968
 4448TIP3   OH234834   0.462   3.900  17.192 -0.3275 -0.2799  0.0425
 4448TIP3    H134835   0.471   3.868  17.102  2.8789 -0.5263  0.3504
 4448TIP3    H234836   0.419   3.829  17.239 -0.2056 -0.9789 -0.8750
 4449TIP3   OH234837   1.496   4.205   0.151  0.3226 -0.2015  0.0780
 4449TIP3    H134838   1.507   4.137   0.219 -0.2241 -0.8137 -0.4290
 4449TIP3    H234839   1.409   4.189   0.115 -0.0451  1.1355  0.3242
 4450TIP3   OH234840   0.968   4.596   3.078  0.1284 -0.1098 -0.1394
 4450TIP3    H134841   0.877   4.582   3.103 -0.1812  1.4895 -0.2541
 4450TIP3    H234842   0.980   4.540   3.001 -0.7614 -0.3240 -0.1407
 4451TIP3   OH234843   4.755   5.167   5.523 -0.0947  0.1212 -0.3603
 4451TIP3    H134844   4.849   5.172   5.504 -0.0362 -0.7970 -0.3800
 4451TIP3    H234845   4.748   5.106   5.597 -0.7327 -0.5854 -0.9741
 4452TIP3   OH234846   3.583   2.140  13.962  0.3637 -1.0331  0.1725
 4452TIP3    H134847   3.645   2.155  14.034  1.4986 -0.1430 -0.9497
 4452TIP3    H234848   3.636   2.097  13.894  0.4678  1.9364 -1.7834
 4453TIP3   OH234849   4.511   3.892   0.774 -0.2892  0.0685 -0.1891
 4453TIP3    H134850   4.467   3.848   0.701 -2.1799  1.0238  0.3138
 4453TIP3    H234851   4.453   3.877   0.849  1.6641 -0.9872  1.1824
 4454TIP3   OH234852   6.136   4.670   4.903 -0.0398  1.0510 -0.5384
 4454TIP3    H134853   6.218   4.647   4.860 -0.6730  1.4952 -2.0707
 4454TIP3    H234854   6.143   4.633   4.990  1.3860  0.2345 -0.9700
 4455TIP3   OH234855   4.905   2.304  14.445  0.1146 -0.4411 -0.7539
 4455TIP3    H134856   4.895   2.399  14.439 -1.1813 -0.4042  1.2613
 4455TIP3    H234857   4.996   2.291  14.473  0.3118  0.1939 -1.0958
 4456TIP3   OH234858   2.811   4.187  17.397  0.3346 -0.6974 -0.2236
 4456TIP3    H134859   2.902   4.202  17.370  0.1266  0.1478 -0.4879
 4456TIP3    H234860   2.764   4.264  17.366 -0.4117 -0.9669  0.2123
 4457TIP3   OH234861   4.113   2.783   6.120 -0.6343  0.4051 -0.3625
 4457TIP3    H134862   4.073   2.735   6.048 -1.5291  2.3561 -1.2294
 4457TIP3    H234863   4.100   2.726   6.196 -1.8195 -0.6323 -1.2927
 4458TIP3   OH234864   3.330   1.329  15.149 -0.0921 -0.4934  0.3211
 4458TIP3    H134865   3.297   1.244  15.119  1.6005 -1.0777 -0.0360
 4458TIP3    H234866   3.286   1.393  15.094  0.6159 -1.3518 -1.3418
 4459TIP3   OH234867   6.347   1.923  13.585 -0.2277 -0.1521 -0.3394
 4459TIP3    H134868   6.355   2.009  13.545 -1.5461  0.9692  1.6511
 4459TIP3    H234869   6.259   1.893  13.562 -0.0376 -0.6684 -0.4285
 4460TIP3   OH234870   0.019   0.069  16.783 -0.0510  0.5520 -0.2008
 4460TIP3    H134871   0.074   0.018  16.843 -0.8005  0.0772  0.0986
 4460TIP3    H234872  -0.026   0.003  16.730  1.4592  0.9600 -2.1200
 4461TIP3   OH234873   3.052   2.695   0.123 -0.7010 -0.5721 -1.0744
 4461TIP3    H134874   3.112   2.714   0.050 -0.9114  1.3394 -0.8096
 4461TIP3    H234875   3.047   2.778   0.171 -0.8662 -1.6939  0.9168
 4462TIP3   OH234876   0.232   6.586  14.625  0.1607  0.3338  0.3816
 4462TIP3    H134877   0.321   6.586  14.590  0.4649  2.0678  1.0659
 4462TIP3    H234878   0.237   6.528  14.701  0.4960 -0.1922 -0.0274
 4463TIP3   OH234879   4.557   0.856  16.181  0.0320  0.2860  0.1976
 4463TIP3    H134880   4.638   0.851  16.231  1.1379 -0.4490 -1.5506
 4463TIP3    H234881   4.584   0.843  16.090 -1.9650  0.7741 -0.5299
 4464TIP3   OH234882   2.695   2.021   3.006 -0.1252  0.3635 -0.0946
 4464TIP3    H134883   2.773   2.076   2.995  0.7693 -0.6217  0.9911
 4464TIP3    H234884   2.678   2.023   3.100  1.1620 -2.7073  0.3411
 4465TIP3   OH234885   5.366   2.434  13.454  0.2185 -0.2518 -0.4024
 4465TIP3    H134886   5.343   2.441  13.547  0.0084  0.9604 -0.5281
 4465TIP3    H234887   5.352   2.522  13.419  0.6451 -0.6036 -1.5087
 4466TIP3   OH234888   3.112   4.604   1.266  0.1082  0.0310  0.3825
 4466TIP3    H134889   3.122   4.642   1.179  1.3054 -0.7624  0.1334
 4466TIP3    H234890   3.050   4.661   1.311  0.2661  1.0516 -0.6465
 4467TIP3   OH234891   6.144   3.319   4.030  0.0510 -0.4033  0.9801
 4467TIP3    H134892   6.071   3.310   4.091 -1.2337 -0.3244 -0.4775
 4467TIP3    H234893   6.109   3.288   3.947  1.2878  0.8092 -0.0382
 4468TIP3   OH234894   2.978   1.935  16.951  0.0666 -0.8454  0.7852
 4468TIP3    H134895   2.983   2.018  16.903 -2.0675 -0.1124  1.7207
 4468TIP3    H234896   3.060   1.931  17.000  2.3262 -1.6022 -2.7024
 4469TIP3   OH234897   6.732   6.045  12.378 -0.2680 -0.0711  0.4833
 4469TIP3    H134898   6.712   6.077  12.290 -1.3740 -0.6453  0.5131
 4469TIP3    H234899   6.747   6.124  12.430  0.1081  0.2772 -0.1562
 4470TIP3   OH234900   4.892   1.673   2.482  0.0077 -0.0107  0.0901
 4470TIP3    H134901   4.940   1.726   2.419  0.4695 -1.3061 -0.6784
 4470TIP3    H234902   4.809   1.720   2.494 -0.2067  0.1339 -1.6933
 4471TIP3   OH234903   1.821   3.074  14.751 -0.0101 -0.8002  0.2297
 4471TIP3    H134904   1.823   2.993  14.802  1.8238 -1.6999 -1.1392
 4471TIP3    H234905   1.793   3.046  14.664 -0.1822  0.1860 -0.0327
 4472TIP3   OH234906   1.246   2.704   2.250  0.2174 -0.1079 -0.3252
 4472TIP3    H134907   1.194   2.629   2.281  2.2960 -1.2052  0.7449
 4472TIP3    H234908   1.260   2.687   2.157  1.2163 -1.4718  0.0360
 4473TIP3   OH234909   5.194   3.172  17.315  0.4478 -0.0244 -0.0228
 4473TIP3    H134910   5.207   3.104  17.248  2.8409 -1.4725  1.7402
 4473TIP3    H234911   5.108   3.209  17.295 -1.4960 -4.2356 -0.5076
 4474TIP3   OH234912   5.276   1.951   2.458  0.2582  0.3561 -0.5091
 4474TIP3    H134913   5.215   2.024   2.470  0.9774  1.2800 -2.1052
 4474TIP3    H234914   5.315   1.938   2.545 -0.9038  0.9287  0.1179
 4475TIP3   OH234915   5.681   1.891   4.817  0.6127  0.7656  0.0760
 4475TIP3    H134916   5.627   1.947   4.873 -2.3395 -0.0479 -1.7192
 4475TIP3    H234917   5.690   1.941   4.736  1.2982  0.2483 -0.1679
 4476TIP3   OH234918   2.368   1.332  15.549 -0.1727 -0.3876  0.2664
 4476TIP3    H134919   2.456   1.366  15.561  0.1369 -1.2653  0.5756
 4476TIP3    H234920   2.358   1.267  15.619 -1.8572  1.1988  1.5919
 4477TIP3   OH234921   2.574   1.661  13.949  0.1062 -0.2101  0.4955
 4477TIP3    H134922   2.592   1.725  14.018 -0.3362 -0.2434  0.6473
 4477TIP3    H234923   2.513   1.599  13.990 -1.8991  0.9627 -0.5509
 4478TIP3   OH234924   0.240   5.021   2.704 -0.3748  0.5975 -0.1393
 4478TIP3    H134925   0.283   4.960   2.644  1.4991  1.3469  0.3681
 4478TIP3    H234926   0.201   4.965   2.771  2.2778 -0.1038  0.9490
 4479TIP3   OH234927   4.631   3.401  15.715 -0.9746  0.6084 -0.1323
 4479TIP3    H134928   4.552   3.391  15.768 -1.5174  1.1186 -0.8219
 4479TIP3    H234929   4.640   3.496  15.702 -1.4818  0.4703 -1.8348
 4480TIP3   OH234930   3.649   5.769   6.282 -0.1129 -0.3282  0.3781
 4480TIP3    H134931   3.695   5.707   6.339  0.5393 -0.7739 -0.6116
 4480TIP3    H234932   3.622   5.840   6.341  1.2437 -0.3792  1.1080
 4481TIP3   OH234933   1.438   3.522   4.160  0.2369  0.3299 -0.3690
 4481TIP3    H134934   1.352   3.482   4.149 -0.4128  1.0632  1.5054
 4481TIP3    H234935   1.485   3.502   4.080 -0.4645 -3.0479 -0.0711
 4482TIP3   OH234936   1.075   4.387  17.271  0.2447  0.5378 -0.1863
 4482TIP3    H134937   1.144   4.336  17.228 -0.3778 -1.4221  1.0214
 4482TIP3    H234938   0.997   4.372  17.217  0.1418  0.4976 -0.0282
 4483TIP3   OH234939   4.891   0.840  13.541  0.3103  0.1761  0.1465
 4483TIP3    H134940   4.936   0.919  13.512 -1.3367  0.7482 -0.9878
 4483TIP3    H234941   4.951   0.799  13.603  1.8422  1.5192 -0.3953
 4484TIP3   OH234942   6.002   3.155   2.739 -0.2606 -0.0426 -0.5494
 4484TIP3    H134943   5.978   3.246   2.758 -0.3600  0.0749 -1.2142
 4484TIP3    H234944   6.095   3.150   2.763  0.1632  0.6660 -1.9662
 4485TIP3   OH234945   0.040   6.646   2.087  0.0372 -0.8797 -0.4981
 4485TIP3    H134946   0.071   6.607   2.169  0.0732 -0.3005 -0.2318
 4485TIP3    H234947  -0.053   6.661   2.102  0.0090 -0.9326 -0.6262
 4486TIP3   OH234948   4.274   1.831  15.758 -0.1382  0.7861  0.9379
 4486TIP3    H134949   4.259   1.877  15.841  1.4595  0.0620  1.6627
 4486TIP3    H234950   4.291   1.740  15.783  0.8687  0.6540 -0.1198
 4487TIP3   OH234951   1.202   2.394  13.001 -0.2687  0.2455  0.0145
 4487TIP3    H134952   1.294   2.368  13.004 -0.1101  0.7997  0.0139
 4487TIP3    H234953   1.159   2.324  12.953  0.3514  0.5560 -1.0189
 4488TIP3   OH234954   5.766   1.143  15.734  0.0901  1.0510 -0.0424
 4488TIP3    H134955   5.775   1.202  15.659 -0.0330  0.5480 -0.4601
 4488TIP3    H234956   5.856   1.130  15.765  0.2846  0.2893 -0.8730
 4489TIP3   OH234957   0.490   5.975   1.022  0.2345 -0.0236 -0.0879
 4489TIP3    H134958   0.540   5.900   1.053  2.7424  1.6004  0.1097
 4489TIP3    H234959   0.429   5.994   1.093 -1.2685 -2.4592 -0.6098
 4490TIP3   OH234960   1.809   3.786   0.006  0.1457 -0.0749  0.0651
 4490TIP3    H134961   1.800   3.782  -0.089  0.0653 -0.7602  0.0982
 4490TIP3    H234962   1.774   3.703   0.037  1.1532 -0.3032  0.6188
 4491TIP3   OH234963   5.994   0.760   3.664  0.3795  0.0074 -0.1212
 4491TIP3    H134964   5.950   0.733   3.583 -1.4704 -0.5841  1.0223
 4491TIP3    H234965   5.929   0.812   3.711  1.9287  1.6233  0.3637
 4492TIP3   OH234966   1.905   0.620  14.058 -0.1051  0.5768 -0.8861
 4492TIP3    H134967   1.872   0.608  13.969  0.8342 -0.6674 -1.0873
 4492TIP3    H234968   1.862   0.553  14.110  0.1270  0.6355 -0.6120
 4493TIP3   OH234969   1.779   5.650  12.632 -0.3448 -0.3280  0.5797
 4493TIP3    H134970   1.870   5.679  12.626 -0.2525 -0.6601  0.3916
 4493TIP3    H234971   1.760   5.649  12.726 -0.6245  1.2033  0.5797
 4494TIP3   OH234972   2.237   4.500  15.097 -0.3938  0.2502  0.3507
 4494TIP3    H134973   2.247   4.476  15.189 -0.5422 -0.4635  0.1830
 4494TIP3    H234974   2.316   4.466  15.055  0.0628  1.2844  0.3497
 4495TIP3   OH234975   3.465   3.316  14.102 -0.4621 -0.6071 -0.2973
 4495TIP3    H134976   3.438   3.304  14.193  0.7564  0.9422  0.3134
 4495TIP3    H234977   3.386   3.345  14.057 -0.7062  0.2691  0.6505
 4496TIP3   OH234978   0.029   2.047  11.370  0.4014  1.0368  0.3634
 4496TIP3    H134979   0.116   2.081  11.350  1.7832 -1.3228  1.9019
 4496TIP3    H234980   0.002   2.001  11.291 -0.1437  2.9032 -0.6165
 4497TIP3   OH234981   1.771   1.076  13.128  0.4040 -0.0134 -0.4304
 4497TIP3    H134982   1.866   1.069  13.130  0.3660 -0.7144 -0.7350
 4497TIP3    H234983   1.750   1.133  13.202  1.1149  0.8854 -0.9135
 4498TIP3   OH234984   1.370   3.871   0.922 -0.5913  0.3801 -0.7051
 4498TIP3    H134985   1.452   3.879   0.873  0.8534  0.5947  1.5938
 4498TIP3    H234986   1.353   3.959   0.955 -1.0448  0.0629 -0.0772
 4499TIP3   OH234987   1.372   5.930   6.312 -0.1442 -0.2597 -0.3833
 4499TIP3    H134988   1.435   5.876   6.265 -0.2163 -1.3334  0.7238
 4499TIP3    H234989   1.321   5.972   6.242  1.7295  0.6031 -1.2921
 4500TIP3   OH234990   2.589   2.519   0.635  0.2892  0.2584 -0.4855
 4500TIP3    H134991   2.557   2.601   0.670 -0.2209 -0.7165  1.4900
 4500TIP3    H234992   2.548   2.511   0.549  1.2155  2.5339 -1.2159
 4501TIP3   OH234993   4.963   6.533   1.553  0.5757 -0.4895  0.1118
 4501TIP3    H134994   4.943   6.611   1.501 -0.8681 -1.1625 -0.3883
 4501TIP3    H234995   4.978   6.567   1.641  1.8091  0.5359 -0.4633
 4502TIP3   OH234996   1.259   3.994  16.921  0.0881 -0.3539  0.2464
 4502TIP3    H134997   1.233   4.056  16.990  0.3921 -0.2114  0.2369
 4502TIP3    H234998   1.178   3.976  16.873 -0.5282 -1.9181  1.7843
 4503TIP3   OH234999   0.968   4.162  11.753 -0.2051  0.1539 -0.3546
 4503TIP3    H135000   0.915   4.101  11.702  1.8715 -0.7342 -1.6038
 4503TIP3    H235001   0.940   4.148  11.844 -2.4424  0.1723 -0.9815
 4504TIP3   OH235002   3.156   3.922  13.630  0.1613  0.1250  0.1173
 4504TIP3    H135003   3.203   3.851  13.675 -1.1131 -1.5593 -1.0732
 4504TIP3    H235004   3.213   3.945  13.556 -0.4104 -1.2714 -0.7965
 4505TIP3   OH235005   2.683   3.390  16.435  0.3493 -0.2634  0.8271
 4505TIP3    H135006   2.718   3.475  16.463 -0.2337 -0.2497  1.5458
 4505TIP3    H235007   2.745   3.359  16.370 -0.0694  1.3024 -0.3908
 4506TIP3   OH235008   1.333   5.702  12.734 -0.5063 -0.3479 -0.2454
 4506TIP3    H135009   1.376   5.616  12.730 -1.6284 -0.8935 -1.0596
 4506TIP3    H235010   1.359   5.745  12.652  1.2095  0.6916  0.7926
 4507TIP3   OH235011   1.482   4.323   5.669  0.5915  0.2645  0.2722
 4507TIP3    H135012   1.569   4.348   5.700  0.9415 -0.6797  0.1047
 4507TIP3    H235013   1.431   4.404   5.670  1.3861  0.7686  0.6649
 4508TIP3   OH235014   2.908   2.554  12.978  0.2817 -0.0189 -0.1767
 4508TIP3    H135015   2.951   2.596  13.052  0.1445  2.5647 -1.4460
 4508TIP3    H235016   2.815   2.555  13.000  0.2860  0.3226 -0.1633
 4509TIP3   OH235017   5.050   4.398   0.128  0.3032 -0.0503 -0.2201
 4509TIP3    H135018   4.986   4.437   0.187  1.4434  0.9961  0.3636
 4509TIP3    H235019   5.086   4.472   0.078  1.0606 -0.6108 -0.5319
 4510TIP3   OH235020   1.993   0.710   0.163  0.1526 -0.3425 -0.2842
 4510TIP3    H135021   2.072   0.752   0.199 -1.2408  1.3950  0.9307
 4510TIP3    H235022   2.002   0.719   0.068 -0.0173  2.8258 -0.1101
 4511TIP3   OH235023   4.210   2.874   2.435  0.0062  0.2941 -0.5373
 4511TIP3    H135024   4.206   2.863   2.530  0.0891  1.4503 -0.3834
 4511TIP3    H235025   4.303   2.876   2.415  0.0012 -1.5626 -0.8691
 4512TIP3   OH235026   1.705   0.769  12.970  0.2601 -0.1945  0.0980
 4512TIP3    H135027   1.784   0.774  13.024  0.8751  0.2639 -0.8080
 4512TIP3    H235028   1.736   0.736  12.886 -0.7668 -1.4312  0.1779
 4513TIP3   OH235029   3.539   6.263  12.959  0.2859  0.6464  0.2536
 4513TIP3    H135030   3.626   6.300  12.944  1.1363 -1.3924 -0.3471
 4513TIP3    H235031   3.529   6.261  13.054  0.6392  1.4598  0.3078
 4514TIP3   OH235032   3.001   1.685   1.929  0.3246 -0.2379 -0.9508
 4514TIP3    H135033   3.019   1.746   2.000 -0.7146  0.0268 -0.9030
 4514TIP3    H235034   2.944   1.618   1.967  0.2155 -0.4057 -1.3899
 4515TIP3   OH235035   0.787   2.084   2.416 -0.7754  0.2931 -0.0778
 4515TIP3    H135036   0.855   2.147   2.391  0.1982 -0.8594 -0.4613
 4515TIP3    H235037   0.789   2.085   2.512  1.1945 -1.0953 -0.0311
 4516TIP3   OH235038   5.550   1.963   1.872  0.4398 -0.1182 -0.1060
 4516TIP3    H135039   5.609   1.892   1.898  0.7966 -0.3405 -1.4556
 4516TIP3    H235040   5.606   2.025   1.825 -0.1430  0.3544 -0.1931
 4517TIP3   OH235041   6.296   2.895  15.817 -0.0432  0.3355  0.1688
 4517TIP3    H135042   6.217   2.853  15.850 -0.6457  2.1832  1.2337
 4517TIP3    H235043   6.367   2.838  15.846 -0.9039 -0.8545  0.0337
 4518TIP3   OH235044   4.573   3.881   5.219  0.4299  0.0983 -0.4102
 4518TIP3    H135045   4.515   3.810   5.246  0.2634 -1.3209 -3.9358
 4518TIP3    H235046   4.660   3.852   5.244  0.1185 -0.1956  0.3430
 4519TIP3   OH235047   0.488   6.517  13.308  0.3814  0.2420  0.5378
 4519TIP3    H135048   0.429   6.583  13.344  0.1627  0.1393  0.3701
 4519TIP3    H235049   0.570   6.564  13.291  1.4617 -0.2313  3.6965
 4520TIP3   OH235050   0.852   5.153  15.700  0.1906  0.3416  0.0731
 4520TIP3    H135051   0.882   5.244  15.710 -0.0071  0.7434 -2.2678
 4520TIP3    H235052   0.892   5.106  15.773  0.0564  2.3506  1.5239
 4521TIP3   OH235053   2.469   1.208   2.106 -0.0619  0.1287 -0.0366
 4521TIP3    H135054   2.454   1.287   2.156  0.7164  1.2317 -1.4603
 4521TIP3    H235055   2.535   1.160   2.156  1.0686  1.4359 -0.2161
 4522TIP3   OH235056   5.838   5.070   5.993 -0.8755 -0.1069  0.2299
 4522TIP3    H135057   5.904   5.098   6.055 -0.4296 -0.2201 -0.1834
 4522TIP3    H235058   5.764   5.042   6.047 -1.0896  1.2475  0.6527
 4523TIP3   OH235059   0.178   0.386   4.081 -0.4106  0.2635 -0.1031
 4523TIP3    H135060   0.134   0.426   4.156  0.3806  0.3795  0.3074
 4523TIP3    H235061   0.132   0.421   4.005 -0.2127  1.3928  0.2717
 4524TIP3   OH235062   3.510   3.018   3.723  0.1082  0.3640  0.4602
 4524TIP3    H135063   3.534   3.060   3.805 -0.8934 -1.6646  1.8599
 4524TIP3    H235064   3.586   2.963   3.701  0.6328  1.3735 -0.3500
 4525TIP3   OH235065   3.286   2.618   6.926  0.2108 -0.4853  0.0057
 4525TIP3    H135066   3.191   2.620   6.940  0.0327 -0.2346 -1.2083
 4525TIP3    H235067   3.298   2.647   6.836  1.6325  2.2248  0.9577
 4526TIP3   OH235068   3.254   2.555   1.299  0.0847 -0.3339  0.6296
 4526TIP3    H135069   3.300   2.479   1.334 -1.0068 -1.3479 -0.0789
 4526TIP3    H235070   3.252   2.541   1.204 -1.1663 -0.0382  0.5921
 4527TIP3   OH235071   6.646   2.147   3.346  0.2629  0.6712  0.4900
 4527TIP3    H135072   6.633   2.241   3.338  3.6090  1.2086 -0.4438
 4527TIP3    H235073   6.707   2.138   3.419  0.6160 -0.6758  0.0612
 4528TIP3   OH235074   4.075   2.107   3.377  0.0635 -0.3308 -0.2220
 4528TIP3    H135075   4.160   2.145   3.401 -0.4842  0.0137  1.2892
 4528TIP3    H235076   4.058   2.042   3.445 -2.2957  1.7737  1.3504
 4529TIP3   OH235077   6.661   2.490   0.475 -0.0313 -0.0425  0.6974
 4529TIP3    H135078   6.689   2.412   0.523 -0.6076  0.5643  2.0715
 4529TIP3    H235079   6.740   2.523   0.434  0.4630 -0.6471  1.1462
 4530TIP3   OH235080   6.608   2.307  15.421 -0.3400  0.1442  0.6526
 4530TIP3    H135081   6.526   2.292  15.375 -0.4695  1.1143  0.5598
 4530TIP3    H235082   6.649   2.221  15.424 -1.5274 -0.4361  1.0328
 4531TIP3   OH235083   4.303   5.593   1.432  0.5848  0.0251 -0.1002
 4531TIP3    H135084   4.275   5.635   1.351  0.4626 -1.2065 -0.7257
 4531TIP3    H235085   4.248   5.632   1.500  2.0502  2.5439 -0.2577
 4532TIP3   OH235086   4.236   6.460  11.523  0.5505  0.4013  0.2938
 4532TIP3    H135087   4.320   6.506  11.526  0.8913  0.1058 -2.1758
 4532TIP3    H235088   4.223   6.440  11.430 -0.5533 -2.7112  0.9875
 4533TIP3   OH235089   2.340   5.159  12.869  0.5505 -0.4600 -0.5299
 4533TIP3    H135090   2.366   5.193  12.955 -0.0052  0.5919 -0.7539
 4533TIP3    H235091   2.247   5.140  12.878  0.7920 -1.6912 -0.5006
 4534TIP3   OH235092   0.284   1.935  12.644 -0.2610  0.3222 -0.6035
 4534TIP3    H135093   0.375   1.937  12.673 -0.7071  0.1739  0.9052
 4534TIP3    H235094   0.254   2.025  12.651 -0.4131  0.2611 -0.4587
 4535TIP3   OH235095   5.121   1.490   2.239  0.0864  0.1691  0.4746
 4535TIP3    H135096   5.083   1.447   2.315 -2.6816  0.4995 -0.6198
 4535TIP3    H235097   5.144   1.419   2.179 -2.6404  0.0050 -0.5027
 4536TIP3   OH235098   0.482   6.720   1.631  0.6742 -0.1391  0.2021
 4536TIP3    H135099   0.516   6.714   1.542  1.4907  1.7457  0.3489
 4536TIP3    H235100   0.500   6.810   1.658 -0.8881 -0.2299  1.7430
 4537TIP3   OH235101   4.354   3.937  11.662  0.3664  0.8898  0.6494
 4537TIP3    H135102   4.447   3.961  11.659  0.3837  0.7357 -0.9088
 4537TIP3    H235103   4.310   4.003  11.608  0.3155 -1.8430 -3.0198
 4538TIP3   OH235104   2.650   2.453  16.515  0.0616 -0.4490 -0.3085
 4538TIP3    H135105   2.738   2.463  16.477 -0.2889 -0.8525 -1.2490
 4538TIP3    H235106   2.619   2.368  16.483 -0.7706 -0.2086 -0.1659
 4539TIP3   OH235107   1.706   0.093  15.260 -0.4429  0.2543  0.2577
 4539TIP3    H135108   1.793   0.132  15.270 -1.0294  1.9597 -0.9028
 4539TIP3    H235109   1.646   0.155  15.301 -1.4047  0.6626 -1.6663
 4540TIP3   OH235110   3.465   5.065  12.931 -0.6030 -0.1553  0.1645
 4540TIP3    H135111   3.374   5.058  12.903 -0.8260  0.8312  0.6030
 4540TIP3    H235112   3.462   5.045  13.025 -0.2202 -1.0516 -0.0042
 4541TIP3   OH235113   2.573   2.792  15.080 -0.2641  0.4362 -0.2020
 4541TIP3    H135114   2.486   2.798  15.042 -0.4833 -0.7553  0.0852
 4541TIP3    H235115   2.632   2.805  15.005 -0.6896 -1.1678 -0.8529
 4542TIP3   OH235116   6.081   6.642  16.077  0.0530  0.0192 -0.3265
 4542TIP3    H135117   6.168   6.608  16.053  0.1661  0.7823 -1.0661
 4542TIP3    H235118   6.069   6.717  16.019 -1.9308 -1.2087 -1.6069
 4543TIP3   OH235119   1.508   2.034   0.839 -0.0919  0.4649 -0.8031
 4543TIP3    H135120   1.534   1.952   0.883  0.2898  0.2565 -1.4019
 4543TIP3    H235121   1.483   2.092   0.911 -0.2978 -0.1505 -0.3604
 4544TIP3   OH235122   4.832   4.347  13.558 -0.1311  0.6730  0.2562
 4544TIP3    H135123   4.744   4.344  13.597 -0.5032 -0.3498 -0.6272
 4544TIP3    H235124   4.819   4.321  13.467  1.2972 -0.9885  0.4723
 4545TIP3   OH235125   3.722   2.833  13.661 -0.3902  0.7941  0.3028
 4545TIP3    H135126   3.689   2.745  13.644 -1.9654  0.9469  2.2577
 4545TIP3    H235127   3.808   2.818  13.701  1.6148  0.3704 -3.6741
 4546TIP3   OH235128   5.012   1.122  15.035  0.1688 -0.1782  0.3057
 4546TIP3    H135129   5.038   1.201  14.989  2.6434 -1.3356 -0.4286
 4546TIP3    H235130   5.042   1.135  15.125 -0.2532  0.0798  0.4111
 4547TIP3   OH235131   5.799   5.345  14.373 -0.2203  0.2125 -0.0713
 4547TIP3    H135132   5.866   5.413  14.362 -2.0577  2.6269  2.2611
 4547TIP3    H235133   5.770   5.355  14.463 -1.9672 -2.4671 -0.2409
 4548TIP3   OH235134   5.914   1.023   0.581 -0.4258  0.0067  0.2501
 4548TIP3    H135135   5.945   1.010   0.670  1.8605 -0.4298 -0.5250
 4548TIP3    H235136   5.981   0.981   0.526 -2.0243 -0.2367 -1.6597
 4549TIP3   OH235137   3.830   1.852  14.082 -0.1539 -0.4362  0.1702
 4549TIP3    H135138   3.876   1.936  14.077  0.6978 -0.9469 -2.7270
 4549TIP3    H235139   3.804   1.834  13.992 -1.5872 -2.6275  0.9429
 4550TIP3   OH235140   6.609   1.634  13.931  0.0489  0.0875 -0.3059
 4550TIP3    H135141   6.566   1.690  13.996  0.8898 -0.0834  0.4267
 4550TIP3    H235142   6.572   1.660  13.847  2.5533  3.8960 -0.4347
 4551TIP3   OH235143   1.261   4.952   3.898  0.5554  0.3825 -0.3304
 4551TIP3    H135144   1.190   4.889   3.910  0.8159  0.4168  1.7378
 4551TIP3    H235145   1.223   5.021   3.844 -0.0086 -1.0649 -1.8720
 4552TIP3   OH235146   5.274   5.048   3.303  0.1176  0.5298 -0.3441
 4552TIP3    H135147   5.313   5.048   3.216  2.3040  1.5498  0.5569
 4552TIP3    H235148   5.316   4.974   3.347 -0.9615  0.0296 -0.1398
 4553TIP3   OH235149   6.496   1.226   3.290  0.0295  0.1059  0.1477
 4553TIP3    H135150   6.440   1.173   3.346 -1.6141  0.5032 -1.0545
 4553TIP3    H235151   6.453   1.311   3.287  2.0184  1.2178  1.1278
 4554TIP3   OH235152   4.916   3.258   2.717 -0.2029 -0.0414  0.2783
 4554TIP3    H135153   4.964   3.340   2.705 -0.7946  0.3513  0.5545
 4554TIP3    H235154   4.982   3.196   2.747  0.5648 -0.0729 -1.3547
 4555TIP3   OH235155   3.775   2.534  15.740  0.2880  0.4980  0.3477
 4555TIP3    H135156   3.726   2.490  15.810 -2.8493  1.4511 -1.0859
 4555TIP3    H235157   3.821   2.605  15.785  0.6747 -0.6148  1.8046
 4556TIP3   OH235158   3.671   0.988  16.992 -0.0189 -0.2359  0.2051
 4556TIP3    H135159   3.760   1.021  17.006 -0.0179 -0.0289 -0.2591
 4556TIP3    H235160   3.655   0.929  17.066  0.4867 -0.2381  0.3157
 4557TIP3   OH235161   4.426   6.673   1.018  0.3148 -0.3984  0.1661
 4557TIP3    H135162   4.354   6.715   0.970 -0.3900 -1.8525 -0.1142
 4557TIP3    H235163   4.483   6.746   1.045 -0.4364  0.6482 -0.9604
 4558TIP3   OH235164   5.125   2.168   0.998  0.0770  0.3189  0.8374
 4558TIP3    H135165   5.139   2.145   0.906  1.3760 -0.5719  1.2443
 4558TIP3    H235166   5.064   2.102   1.030 -0.2629  0.5449  0.6694
 4559TIP3   OH235167   1.103   1.972   3.284 -0.0197 -0.5930  0.3788
 4559TIP3    H135168   1.192   2.002   3.261  0.3019  0.2268  2.4612
 4559TIP3    H235169   1.077   1.917   3.211  2.2416 -0.9194 -0.2656
 4560TIP3   OH235170   2.268   5.572   1.561  0.2130 -0.1424  0.0492
 4560TIP3    H135171   2.283   5.652   1.512 -0.8342 -0.1122 -0.2592
 4560TIP3    H235172   2.173   5.563   1.564  0.2607 -0.5046  1.5028
 4561TIP3   OH235173   5.570   5.935  11.616  0.0191  0.0178 -0.1921
 4561TIP3    H135174   5.573   5.871  11.546  0.6725  0.7025 -0.8151
 4561TIP3    H235175   5.568   6.020  11.571 -0.6692  0.4430  0.6107
 4562TIP3   OH235176   3.745   1.317   4.301  0.3899  0.4186  0.4544
 4562TIP3    H135177   3.829   1.270   4.303  0.1559 -0.0021  0.3446
 4562TIP3    H235178   3.747   1.367   4.220  0.1559 -0.2849  0.0115
 4563TIP3   OH235179   3.114   1.730  17.371 -0.7285  0.2860  0.1486
 4563TIP3    H135180   3.199   1.697  17.344 -0.9746  0.1576 -0.4938
 4563TIP3    H235181   3.132   1.817  17.409 -0.2738  0.0925  0.3808
 4564TIP3   OH235182   6.166   4.039  16.212 -0.6125 -0.0439  0.6905
 4564TIP3    H135183   6.083   3.992  16.217 -0.4404 -0.3396  0.7597
 4564TIP3    H235184   6.232   3.975  16.235 -0.4678  0.5094  1.8702
 4565TIP3   OH235185   2.974   2.214  13.730 -0.2115 -0.0522 -0.7716
 4565TIP3    H135186   2.969   2.195  13.636  1.2245  0.3443 -0.9586
 4565TIP3    H235187   3.037   2.286  13.736  0.4880 -0.7356  0.5662
 4566TIP3   OH235188   6.369   4.737  14.856 -0.0264  0.1066 -0.4851
 4566TIP3    H135189   6.461   4.709  14.861  0.2180  1.0738  1.0650
 4566TIP3    H235190   6.345   4.722  14.765  1.6335 -0.2828 -0.9007
 4567TIP3   OH235191   3.625   4.339   3.376  0.2375  0.3627 -0.1689
 4567TIP3    H135192   3.616   4.246   3.395 -1.1811  0.5759  0.2846
 4567TIP3    H235193   3.628   4.381   3.462 -0.6974  0.8608 -0.3706
 4568TIP3   OH235194   3.664   2.074  13.682 -0.4655  0.2296  0.2283
 4568TIP3    H135195   3.585   2.110  13.640 -0.1420  0.4933 -0.1604
 4568TIP3    H235196   3.657   1.980  13.668 -2.1159 -0.0997  2.5954
 4569TIP3   OH235197   1.309   5.529  17.502 -0.1601 -0.1593  0.4586
 4569TIP3    H135198   1.245   5.523  17.573  0.5984  0.2140  1.1957
 4569TIP3    H235199   1.310   5.622  17.479  0.0417 -0.1781  0.3851
 4570TIP3   OH235200   3.669   1.037   4.672  0.1508  0.1102 -0.3325
 4570TIP3    H135201   3.603   1.084   4.724 -3.7178 -3.4827 -1.4745
 4570TIP3    H235202   3.723   0.993   4.737 -2.5031 -1.6221  0.9053
 4571TIP3   OH235203   5.981   2.543  15.508  0.3578  0.3060 -0.5341
 4571TIP3    H135204   5.894   2.565  15.476 -0.0624 -1.4490 -0.6814
 4571TIP3    H235205   6.037   2.546  15.430  0.1340 -0.0275 -0.7077
 4572TIP3   OH235206   3.064   2.953   0.775 -0.3901 -0.2278  1.0259
 4572TIP3    H135207   3.097   2.865   0.756  0.0400  0.0339  0.5225
 4572TIP3    H235208   3.043   2.952   0.868  1.2554 -0.3333  1.4156
 4573TIP3   OH235209   5.300   1.074  12.988 -0.1023  0.1200 -0.3832
 4573TIP3    H135210   5.352   1.042  12.915  0.1008 -2.7968  0.8856
 4573TIP3    H235211   5.210   1.072  12.956  0.0006 -0.9846 -0.6442
 4574TIP3   OH235212   2.520   1.094   4.330 -0.7331  0.3209 -0.4562
 4574TIP3    H135213   2.564   1.121   4.249 -0.1707  4.6122  1.0115
 4574TIP3    H235214   2.450   1.159   4.342 -2.4858 -1.7260  1.2632
 4575TIP3   OH235215   2.565   4.355  17.568 -0.6015 -0.2620  0.2391
 4575TIP3    H135216   2.539   4.354  17.476  0.9230  2.8094 -0.3469
 4575TIP3    H235217   2.549   4.265  17.598  1.1774 -2.1568 -3.6834
 4576TIP3   OH235218   6.241   3.443   6.028  0.5050  0.0963  0.7042
 4576TIP3    H135219   6.240   3.490   5.945  0.4785 -0.6509  0.2706
 4576TIP3    H235220   6.227   3.352   6.004  1.6032 -0.2863  1.4400
 4577TIP3   OH235221   2.956   6.709  17.173 -0.1702 -0.1512  0.0573
 4577TIP3    H135222   2.988   6.706  17.083 -2.0009 -2.4479 -0.6259
 4577TIP3    H235223   2.874   6.758  17.167  1.0863  2.2293  1.0729
 4578TIP3   OH235224   3.453   5.456  14.855 -0.4694 -0.0800 -0.3592
 4578TIP3    H135225   3.424   5.544  14.833  2.2162  1.5092  1.8699
 4578TIP3    H235226   3.539   5.447  14.814  0.3567 -0.6755  1.3880
 4579TIP3   OH235227   5.975   1.941  15.109 -0.5950 -0.3910 -0.3492
 4579TIP3    H135228   5.952   1.849  15.123  1.4143 -1.0012 -0.7403
 4579TIP3    H235229   6.017   1.943  15.023 -0.8219  0.9438 -0.4525
 4580TIP3   OH235230   1.263   4.629   4.730 -0.4448  0.2134  0.1577
 4580TIP3    H135231   1.274   4.534   4.734  1.3408  0.2968 -1.2515
 4580TIP3    H235232   1.189   4.642   4.671  1.3893 -0.3729 -2.5005
 4581TIP3   OH235233   2.981   5.734  16.843  0.0615  0.0179  0.0835
 4581TIP3    H135234   2.980   5.697  16.755 -0.8846 -0.4092  0.2599
 4581TIP3    H235235   3.036   5.674  16.893 -0.5313 -0.5227  0.0998
 4582TIP3   OH235236   4.699   0.867   2.161  0.0827 -0.1972 -0.6353
 4582TIP3    H135237   4.777   0.879   2.215 -0.1834  2.4266 -0.6939
 4582TIP3    H235238   4.626   0.878   2.221 -0.2098  1.6603 -1.2800
 4583TIP3   OH235239   0.277   2.922  14.024 -0.0590  0.4370 -0.0324
 4583TIP3    H135240   0.296   2.828  14.017  1.3757  0.6766  0.3935
 4583TIP3    H235241   0.188   2.931  13.990 -0.5838 -1.2150  0.7903
 4584TIP3   OH235242   5.955   1.288  13.014  0.1991  0.3171  0.2473
 4584TIP3    H135243   5.991   1.375  12.994  1.5861 -0.1996  0.3386
 4584TIP3    H235244   5.925   1.294  13.104  0.1912  0.7368  0.2183
 4585TIP3   OH235245   1.192   5.201  15.369 -0.5984  0.2880 -0.0581
 4585TIP3    H135246   1.257   5.144  15.410 -0.3113  0.7454  0.1368
 4585TIP3    H235247   1.186   5.277  15.427 -2.2662 -0.3023  0.6049
 4586TIP3   OH235248   4.531   5.024  12.186 -0.2629  0.1292 -0.0277
 4586TIP3    H135249   4.554   4.946  12.136  2.3496  0.5551  0.3885
 4586TIP3    H235250   4.557   5.003  12.276  0.2125  1.3426  0.1425
 4587TIP3   OH235251   5.100   0.220   1.033  0.0683  0.2232  0.1663
 4587TIP3    H135252   5.014   0.243   0.998  0.7767  1.5569 -0.7775
 4587TIP3    H235253   5.136   0.303   1.065  1.0578 -0.2900  0.4242
 4588TIP3   OH235254   3.898   2.951   3.888 -0.5039  0.1059 -0.1513
 4588TIP3    H135255   3.960   2.989   3.951 -1.3738  0.7122  0.3656
 4588TIP3    H235256   3.878   3.023   3.828  3.4635 -1.4488 -3.8241
 4589TIP3   OH235257   2.495   2.314  14.684 -0.5469  0.3201 -0.1163
 4589TIP3    H135258   2.415   2.366  14.676  0.0871  1.7178  1.9274
 4589TIP3    H235259   2.482   2.262  14.763  1.0306  1.5462  1.0058
 4590TIP3   OH235260   6.338   6.297   0.646  0.2509 -0.8519 -0.8744
 4590TIP3    H135261   6.417   6.346   0.669 -0.6854 -0.1673  1.1210
 4590TIP3    H235262   6.266   6.356   0.668 -0.8634 -2.0760 -1.1082
 4591TIP3   OH235263   5.583   4.620   3.372 -0.2821  0.2671  0.4822
 4591TIP3    H135264   5.569   4.542   3.318  0.0501  1.0510 -0.7832
 4591TIP3    H235265   5.587   4.587   3.461 -0.7721 -1.0902  0.0284
 4592TIP3   OH235266   3.674   0.627   0.202  0.8988 -0.2323  0.3738
 4592TIP3    H135267   3.629   0.593   0.280  0.3234 -1.2452 -0.3664
 4592TIP3    H235268   3.603   0.655   0.144  1.1794 -1.7950 -0.7841
 4593TIP3   OH235269   0.247   6.620  10.811 -0.4331  0.5029 -0.0366
 4593TIP3    H135270   0.339   6.612  10.783 -0.3085  0.2638  0.4315
 4593TIP3    H235271   0.198   6.568  10.747 -0.0684 -0.6629  0.6010
 4594TIP3   OH235272   2.981   0.886  14.063 -0.0877  0.5651 -0.3760
 4594TIP3    H135273   3.068   0.873  14.026  0.2327  1.5877 -0.0142
 4594TIP3    H235274   2.954   0.798  14.091  0.8464  0.2457 -0.4244
 4595TIP3   OH235275   4.043   1.236  13.709 -0.6199 -0.4136  0.1108
 4595TIP3    H135276   3.951   1.233  13.681 -0.8312  1.0539  0.5393
 4595TIP3    H235277   4.086   1.292  13.644 -0.7861  1.7424  1.7631
 4596TIP3   OH235278   6.553   0.087   5.875 -0.1951  0.3549 -0.5591
 4596TIP3    H135279   6.627   0.049   5.923 -1.0209 -2.4200 -1.2935
 4596TIP3    H235280   6.488   0.017   5.873 -1.1087  1.1476 -3.7000
 4597TIP3   OH235281   0.777   2.256  14.755 -0.2491 -0.3170 -0.1816
 4597TIP3    H135282   0.836   2.181  14.745  0.3578  0.0301  0.6768
 4597TIP3    H235283   0.723   2.233  14.831 -0.2475 -0.0050 -0.0863
 4598TIP3   OH235284   6.418   1.450   4.988  0.6545 -0.2564  0.0631
 4598TIP3    H135285   6.487   1.426   4.926 -0.3108 -0.7974 -0.8419
 4598TIP3    H235286   6.337   1.423   4.945 -0.2742  1.8813  0.3370
 4599TIP3   OH235287   4.844   3.952  14.679 -0.5285 -0.2250  0.1042
 4599TIP3    H135288   4.862   3.911  14.594  0.1825 -1.0373  0.6360
 4599TIP3    H235289   4.761   3.913  14.707 -1.3373  0.8375 -0.6768
 4600TIP3   OH235290   2.451   1.954  15.217 -0.3766 -0.4746  0.4755
 4600TIP3    H135291   2.441   2.038  15.261 -1.0723 -0.4056  0.1897
 4600TIP3    H235292   2.465   1.891  15.287  0.2263 -0.1140  0.6881
 4601TIP3   OH235293   3.776   2.988  14.535  0.7700 -0.5181 -0.6830
 4601TIP3    H135294   3.834   3.064  14.540  1.4297 -1.0772  1.6100
 4601TIP3    H235295   3.810   2.928  14.602 -2.1363 -1.0953  0.4240
 4602TIP3   OH235296   1.130   1.155  17.220  0.4311  0.0457  0.2853
 4602TIP3    H135297   1.191   1.082  17.234  0.7924  0.4800  1.0238
 4602TIP3    H235298   1.076   1.127  17.146  1.3172 -0.4870 -0.1808
 4603TIP3   OH235299   2.883   3.400   3.155 -0.1486 -0.3831  0.0141
 4603TIP3    H135300   2.942   3.465   3.195  0.0500  0.5356 -1.6955
 4603TIP3    H235301   2.890   3.324   3.213  0.6982  0.6132  1.2977
 4604TIP3   OH235302   5.972   2.667   1.317 -0.4859 -1.0936  0.5946
 4604TIP3    H135303   5.924   2.605   1.372 -0.5077 -0.2219  1.5719
 4604TIP3    H235304   5.905   2.711   1.266 -0.8367  0.4033  2.2381
 4605TIP3   OH235305   3.403   2.232   5.006  0.2003  0.0178 -0.2385
 4605TIP3    H135306   3.310   2.238   4.986  0.0163 -0.1637  0.5409
 4605TIP3    H235307   3.423   2.310   5.057  0.2448 -0.4315  0.4492
 4606TIP3   OH235308   2.550   6.716  11.555 -0.1402  0.7735 -0.1907
 4606TIP3    H135309   2.546   6.658  11.479 -1.6609  0.8241 -0.1797
 4606TIP3    H235310   2.480   6.685  11.613 -0.4602  2.1074  0.1743
 4607TIP3   OH235311   4.249   2.059   5.963 -0.3269 -0.4243 -0.1334
 4607TIP3    H135312   4.222   2.079   5.874  0.1996  0.9523 -0.0045
 4607TIP3    H235313   4.177   2.092   6.017 -0.3264 -0.6345 -0.0015
 4608TIP3   OH235314   5.713   0.885   3.064 -0.3324  0.3992  0.3433
 4608TIP3    H135315   5.797   0.861   3.103 -1.2188 -0.4646  1.7968
 4608TIP3    H235316   5.648   0.838   3.116 -1.6202 -0.5823 -2.0123
 4609TIP3   OH235317   1.770   0.399  16.352 -0.0872  0.0422 -0.0234
 4609TIP3    H135318   1.833   0.341  16.310 -0.4153 -0.8504  0.6977
 4609TIP3    H235319   1.685   0.361  16.331 -0.3098  0.3136  0.3899
 4610TIP3   OH235320   0.882   5.563  13.613 -0.1345  0.0855 -0.0509
 4610TIP3    H135321   0.816   5.611  13.564  0.7870  1.5165  0.0553
 4610TIP3    H235322   0.842   5.545  13.697 -0.7064  0.1386 -0.3097
 4611TIP3   OH235323   4.831   1.850   0.803 -0.5838 -0.4571 -0.3734
 4611TIP3    H135324   4.872   1.788   0.863  1.9276  1.4783  0.1013
 4611TIP3    H235325   4.856   1.820   0.716  1.2717  0.2137 -0.1192
 4612TIP3   OH235326   6.030   5.546  12.855  0.5061  0.1675  0.6768
 4612TIP3    H135327   6.026   5.603  12.779 -3.7894 -0.7697 -0.0881
 4612TIP3    H235328   6.044   5.606  12.929 -0.8153  1.8740 -0.3686
 4613TIP3   OH235329   5.360   4.272  16.631  0.0377 -0.0322 -0.1671
 4613TIP3    H135330   5.382   4.365  16.628 -1.0604  0.2539  0.3428
 4613TIP3    H235331   5.390   4.242  16.717  2.5859 -0.7529 -1.2172
 4614TIP3   OH235332   5.801   2.498  11.937 -0.2770  0.2704 -0.0596
 4614TIP3    H135333   5.724   2.465  11.890 -0.1747  1.1015 -0.8626
 4614TIP3    H235334   5.807   2.444  12.015 -1.3112 -0.2189 -0.2975
 4615TIP3   OH235335   2.701   1.578  12.454 -0.6717 -0.3053  0.2256
 4615TIP3    H135336   2.610   1.553  12.472 -0.8982  0.4516  0.1639
 4615TIP3    H235337   2.719   1.542  12.368 -0.9657 -0.3307  0.1736
 4616TIP3   OH235338   6.474   6.128   3.931 -0.0676 -0.6918  0.3922
 4616TIP3    H135339   6.522   6.086   3.860  0.8159  0.1402  0.4860
 4616TIP3    H235340   6.509   6.217   3.936 -0.5382 -0.5408  1.4771
 4617TIP3   OH235341   4.773   5.740   1.737 -0.1388  0.5525 -0.2390
 4617TIP3    H135342   4.776   5.660   1.685 -0.3225 -0.9074  1.8677
 4617TIP3    H235343   4.683   5.771   1.730 -0.1649  0.3739 -0.7417
 4618TIP3   OH235344   3.763   4.317   5.065  0.5923 -0.1297 -0.3210
 4618TIP3    H135345   3.733   4.237   5.109  1.1539 -0.5161 -0.6349
 4618TIP3    H235346   3.734   4.387   5.123 -2.3058 -0.3470 -1.3473
 4619TIP3   OH235347   0.717   3.404  15.197 -0.3800  0.0886 -0.4698
 4619TIP3    H135348   0.627   3.436  15.203 -0.7928 -1.0844 -0.0812
 4619TIP3    H235349   0.732   3.393  15.103 -0.0504  1.8424 -0.6502
 4620TIP3   OH235350   0.207   4.916  17.405  0.2283  0.0358 -0.1972
 4620TIP3    H135351   0.199   4.979  17.476 -1.4924 -0.8113  0.4260
 4620TIP3    H235352   0.301   4.900  17.396  0.4833  0.1621  1.8882
 4621TIP3   OH235353   6.599   5.490   2.619 -0.5980  0.7360  0.3669
 4621TIP3    H135354   6.565   5.403   2.639 -0.1763  0.4626 -0.0888
 4621TIP3    H235355   6.573   5.506   2.528  0.0869  0.7085  0.1608
 4622TIP3   OH235356   6.130   2.705   1.913 -0.4428  0.1389 -0.5816
 4622TIP3    H135357   6.043   2.677   1.884 -1.2270  2.4989 -0.7440
 4622TIP3    H235358   6.129   2.692   2.008 -0.3898 -1.2485 -0.7521
 4623TIP3   OH235359   4.282   2.365  12.066 -0.2345  0.2434 -0.0952
 4623TIP3    H135360   4.262   2.345  12.158 -2.3451  1.4519 -0.2193
 4623TIP3    H235361   4.370   2.402  12.069  0.1138 -0.5949  1.3042
 4624TIP3   OH235362   3.274   0.520  12.087 -0.3522  0.4828  0.5333
 4624TIP3    H135363   3.226   0.511  12.005  0.3453  1.7857 -0.0613
 4624TIP3    H235364   3.231   0.460  12.147 -1.2251 -0.1027 -0.6315
 4625TIP3   OH235365   4.979   4.941  12.688 -0.1825 -0.5711 -0.2080
 4625TIP3    H135366   4.981   5.036  12.700 -1.9661 -0.5688  0.2510
 4625TIP3    H235367   4.990   4.906  12.777 -0.8902 -0.7576 -0.1875
 4626TIP3   OH235368   1.526   0.114   1.855 -0.1468 -0.1267  0.2935
 4626TIP3    H135369   1.484   0.132   1.771  0.7597  1.1604  0.0811
 4626TIP3    H235370   1.597   0.054   1.834  1.0858  1.4354 -0.1626
 4627TIP3   OH235371   5.427   2.570  16.905 -0.5447 -0.1822  0.7827
 4627TIP3    H135372   5.394   2.605  16.822 -1.5523 -0.6377  0.9787
 4627TIP3    H235373   5.520   2.551  16.888 -0.2078  1.6260  0.3657
 4628TIP3   OH235374   1.106   2.184  11.337 -0.5796  0.4411  0.4278
 4628TIP3    H135375   1.150   2.265  11.364  0.1222 -0.2543  1.4318
 4628TIP3    H235376   1.149   2.115  11.387  0.1369 -0.8199 -1.7866
 4629TIP3   OH235377   5.720   6.568   0.766  0.2825  0.3683 -0.0672
 4629TIP3    H135378   5.712   6.587   0.859  1.7101 -0.2866  0.2091
 4629TIP3    H235379   5.743   6.651   0.726  0.3799  0.5037  0.2672
 4630TIP3   OH235380   1.214   0.858   1.291  0.5710 -0.3346  1.4069
 4630TIP3    H135381   1.163   0.833   1.369 -1.4894 -1.1827 -0.1330
 4630TIP3    H235382   1.170   0.936   1.257 -0.4126 -1.6417 -0.5022
 4631TIP3   OH235383   1.861   0.962  15.343 -0.1962  0.0709  0.2360
 4631TIP3    H135384   1.858   1.028  15.412  1.1171  1.3012 -0.8213
 4631TIP3    H235385   1.892   1.010  15.266  2.5748 -2.0886 -0.1438
 4632TIP3   OH235386   5.508   5.593  13.440 -0.1258 -0.4685  0.0145
 4632TIP3    H135387   5.460   5.611  13.359 -1.8263 -1.2192  0.8111
 4632TIP3    H235388   5.463   5.644  13.507  0.1012 -1.3113  0.8261
 4633TIP3   OH235389   4.677   6.394  14.968  0.8578 -0.1762 -0.0991
 4633TIP3    H135390   4.662   6.307  15.006 -0.0588  0.2565  0.5574
 4633TIP3    H235391   4.746   6.432  15.021  0.0444  0.1628  0.7569
 4634TIP3   OH235392   1.103   1.645   0.009 -0.4929 -0.7399  0.2430
 4634TIP3    H135393   1.020   1.599   0.021 -0.7704 -0.6410 -1.1596
 4634TIP3    H235394   1.105   1.666  -0.084  0.9895 -0.5016  0.3167
 4635TIP3   OH235395   6.447   1.105  17.389  0.2433  0.2686  0.1012
 4635TIP3    H135396   6.398   1.150  17.320  1.0485  1.3398  0.2040
 4635TIP3    H235397   6.379   1.063  17.443 -0.3900 -0.5573 -1.3041
 4636TIP3   OH235398   4.205   2.802   1.450  0.0976 -0.8026 -0.7957
 4636TIP3    H135399   4.298   2.817   1.466  0.3314 -2.4639 -0.4401
 4636TIP3    H235400   4.186   2.852   1.370  1.3938 -0.7959 -1.1226
 4637TIP3   OH235401   0.836   0.784  10.997 -0.8226 -0.1637 -0.2869
 4637TIP3    H135402   0.873   0.798  10.910  1.5900  1.1618  0.8507
 4637TIP3    H235403   0.774   0.857  11.008  1.8543  2.1897  0.5104
 4638TIP3   OH235404   0.516   5.371  12.678 -0.4504  0.2485 -0.2282
 4638TIP3    H135405   0.577   5.359  12.750  1.6749 -1.8577 -2.1931
 4638TIP3    H235406   0.525   5.463  12.654  0.4786  0.4396  0.7762
 4639TIP3   OH235407   6.221   2.852   2.688 -0.6604 -0.2718  0.1362
 4639TIP3    H135408   6.311   2.833   2.714 -0.7148 -2.0818 -0.8053
 4639TIP3    H235409   6.201   2.935   2.730  0.7943 -0.7703  1.9668
 4640TIP3   OH235410   6.133   5.949   2.010 -0.4055 -0.4599  0.0811
 4640TIP3    H135411   6.197   5.974   1.944  0.2619  0.2223  0.9703
 4640TIP3    H235412   6.086   5.876   1.971  0.1944 -0.2740 -1.0164
 4641TIP3   OH235413   2.275   4.834   1.931  0.3907  0.0978  0.1310
 4641TIP3    H135414   2.201   4.806   1.877 -0.0702  0.7119  0.4261
 4641TIP3    H235415   2.297   4.921   1.898 -2.2177  2.1305  3.1258
 4642TIP3   OH235416   6.709   0.912   2.952 -0.2969  0.0361  0.1776
 4642TIP3    H135417   6.749   0.969   3.018  0.7306 -0.1894 -0.2286
 4642TIP3    H235418   6.665   0.844   3.003  2.0879 -1.2459  0.6975
 4643TIP3   OH235419   4.356   1.392  16.040 -0.7411 -0.8578 -0.5075
 4643TIP3    H135420   4.435   1.338  16.034 -0.0630  0.1201 -0.6452
 4643TIP3    H235421   4.342   1.405  16.134  0.6970  0.9616 -0.4938
 4644TIP3   OH235422   3.436   4.367  17.381 -0.0959  0.4029  0.3847
 4644TIP3    H135423   3.446   4.352  17.475  0.8391 -2.0534 -0.0383
 4644TIP3    H235424   3.468   4.286  17.340 -0.8912  1.2274 -2.0346
 4645TIP3   OH235425   6.702   4.270  14.582 -0.0276 -0.1952  0.3456
 4645TIP3    H135426   6.665   4.275  14.493 -1.6070  0.3119  1.0016
 4645TIP3    H235427   6.677   4.182  14.613  0.3772 -0.3074  0.3605
 4646TIP3   OH235428   6.014   0.988   0.246  0.2265 -0.1967 -0.5000
 4646TIP3    H135429   6.042   0.977   0.336 -2.4382 -2.5160  0.1891
 4646TIP3    H235430   6.062   0.920   0.197  2.5589  1.7884 -1.2137
 4647TIP3   OH235431   6.480   0.007   2.781 -0.0749  0.6780  0.4675
 4647TIP3    H135432   6.516  -0.081   2.788 -2.0569 -0.3404 -0.9593
 4647TIP3    H235433   6.491   0.030   2.688 -2.1511  0.6713  0.1655
 4648TIP3   OH235434   3.124   0.032   1.221 -0.4263  0.5824  0.3283
 4648TIP3    H135435   3.203   0.085   1.231 -0.6803  0.7146  1.9046
 4648TIP3    H235436   3.053   0.091   1.245 -1.3309  1.1915 -3.2881
 4649TIP3   OH235437   2.205   0.138  13.816 -0.1006  0.2570  0.1725
 4649TIP3    H135438   2.220   0.119  13.909  0.9356 -0.2125 -0.0796
 4649TIP3    H235439   2.274   0.200  13.792  0.5758 -0.7833 -0.6439
 4650TIP3   OH235440   3.815   5.601  17.237 -0.1466 -0.3327 -0.1235
 4650TIP3    H135441   3.742   5.614  17.297 -0.7627 -3.2083 -0.1077
 4650TIP3    H235442   3.877   5.547  17.285  2.9498  3.2674  0.4568
 4651TIP3   OH235443   3.784   2.301   2.477 -0.1090  0.2365  0.2737
 4651TIP3    H135444   3.844   2.285   2.404  1.9244 -0.9947  2.0785
 4651TIP3    H235445   3.697   2.283   2.441  0.9099 -1.5851 -1.5455
 4652TIP3   OH235446   6.219   3.693  13.347 -0.6841 -0.0152  0.0918
 4652TIP3    H135447   6.159   3.742  13.291 -0.4270  1.2202  0.8668
 4652TIP3    H235448   6.288   3.756  13.370  0.2124 -1.0348  0.2756
 4653TIP3   OH235449   6.342   0.948   1.358 -0.1549 -0.1241  0.0211
 4653TIP3    H135450   6.265   0.989   1.397  0.5797  0.7581  0.5797
 4653TIP3    H235451   6.380   1.016   1.303  0.3990 -0.4471  0.0018
 4654TIP3   OH235452   4.640   6.393  16.371  0.4437 -0.2207  0.2908
 4654TIP3    H135453   4.565   6.334  16.375  0.5070 -0.3088  0.1673
 4654TIP3    H235454   4.602   6.481  16.363  0.3044 -0.1043  1.8332
 4655TIP3   OH235455   2.380   1.694   4.656 -0.2599  0.2234  0.0563
 4655TIP3    H135456   2.309   1.735   4.608 -0.1651 -0.1317 -0.3951
 4655TIP3    H235457   2.353   1.603   4.666 -0.1168  0.2126  0.3634
 4656TIP3   OH235458   4.222   1.743  15.374  0.1897 -0.5076  0.4730
 4656TIP3    H135459   4.254   1.653  15.371 -1.3791 -1.0773 -0.1132
 4656TIP3    H235460   4.296   1.796  15.345  1.6063 -1.4455  2.1396
 4657TIP3   OH235461   2.551   5.829  10.666 -0.2902 -0.3374  0.3918
 4657TIP3    H135462   2.613   5.902  10.670  0.8468 -1.3248  2.1502
 4657TIP3    H235463   2.465   5.871  10.670  0.3346  0.9277  1.4718
 4658TIP3   OH235464   3.662   5.823  12.098  0.1842  0.9482 -0.0468
 4658TIP3    H135465   3.617   5.899  12.059  0.9609  1.8927  0.8399
 4658TIP3    H235466   3.663   5.842  12.192  2.1992  0.8497 -0.0078
 4659TIP3   OH235467   0.391   2.374   2.985  0.4796  0.8503 -0.2012
 4659TIP3    H135468   0.467   2.387   2.928  0.8437  0.0486  0.0811
 4659TIP3    H235469   0.405   2.287   3.023 -0.2427  0.9795  0.3724
 4660TIP3   OH235470   0.184   1.210   2.077 -0.7282  0.0143 -0.2987
 4660TIP3    H135471   0.149   1.289   2.036  0.7728  1.1898  0.5685
 4660TIP3    H235472   0.241   1.243   2.147 -1.0745 -1.8730  0.9484
 4661TIP3   OH235473   6.057   2.488   0.305  0.5344 -0.2507 -0.2072
 4661TIP3    H135474   6.123   2.421   0.325 -0.2812 -0.6297  1.4186
 4661TIP3    H235475   6.101   2.571   0.322  0.9065 -0.4569 -0.1522
 4662TIP3   OH235476   6.269   2.208   0.405 -0.0554 -0.2123 -0.1216
 4662TIP3    H135477   6.175   2.202   0.392 -0.0751  1.0094 -0.6122
 4662TIP3    H235478   6.288   2.302   0.409  1.0064 -0.4409  1.0048
 4663TIP3   OH235479   2.436   0.011  14.979  0.0618  0.0276 -0.1616
 4663TIP3    H135480   2.372   0.045  14.917 -0.4728  0.9264  0.8377
 4663TIP3    H235481   2.419   0.060  15.060  0.3570 -1.4852  0.8645
 4664TIP3   OH235482   2.015   2.521  16.981 -0.5534 -0.0419  0.0615
 4664TIP3    H135483   2.013   2.454  17.049  0.9305 -1.0534 -0.8399
 4664TIP3    H235484   2.106   2.523  16.951 -1.0569  0.7377 -1.5360
 4665TIP3   OH235485   6.022   0.303  12.043 -0.5231  0.3676 -0.5673
 4665TIP3    H135486   6.088   0.233  12.034 -3.7376 -3.0968  0.1103
 4665TIP3    H235487   5.973   0.300  11.961 -1.5375  0.9099  0.0015
 4666TIP3   OH235488   5.863   6.253  16.630 -0.3995  0.5493 -0.1005
 4666TIP3    H135489   5.802   6.266  16.557  0.5219  0.6638 -0.8701
 4666TIP3    H235490   5.808   6.222  16.701 -1.6650  2.3336 -0.2097
 4667TIP3   OH235491   4.453   3.614  15.044  0.0291  0.0592  0.3247
 4667TIP3    H135492   4.486   3.600  14.956  0.9282  2.1171  0.2964
 4667TIP3    H235493   4.361   3.586  15.040  0.4237 -1.1498 -0.8687
 4668TIP3   OH235494   1.225   1.151   1.550 -0.5296  0.3339 -0.4876
 4668TIP3    H135495   1.293   1.196   1.500 -1.0410 -0.5174 -1.9894
 4668TIP3    H235496   1.183   1.093   1.487 -1.4080 -0.5449  0.8664
 4669TIP3   OH235497   3.162   5.715   1.401 -0.0073 -0.4068 -0.4266
 4669TIP3    H135498   3.119   5.633   1.374  1.9188 -1.3139 -0.8652
 4669TIP3    H235499   3.208   5.745   1.322  0.6948  0.1794  0.1979
 4670TIP3   OH235500   6.486   4.078   4.735 -0.3722 -0.0112 -0.1915
 4670TIP3    H135501   6.522   4.001   4.779 -1.6547  0.1758  1.2694
 4670TIP3    H235502   6.561   4.136   4.725  0.3579 -0.9086 -0.1291
 4671TIP3   OH235503   6.240   2.897  13.859 -0.4330 -0.1124  0.0151
 4671TIP3    H135504   6.161   2.918  13.909 -1.3086  0.8257 -1.6734
 4671TIP3    H235505   6.258   2.976  13.808  1.0878 -0.6289 -0.2998
 4672TIP3   OH235506   0.007   2.958  16.963 -0.1696  0.1863 -0.7522
 4672TIP3    H135507  -0.022   2.932  16.876 -1.0511  2.0892 -1.0639
 4672TIP3    H235508   0.100   2.935  16.965 -0.3040 -0.5209 -1.9160
 4673TIP3   OH235509   6.284   5.145  13.439 -0.0022 -0.5544 -0.2960
 4673TIP3    H135510   6.376   5.144  13.465 -0.0069 -1.2671 -0.2997
 4673TIP3    H235511   6.279   5.085  13.364  0.1925  2.1279 -2.6351
 4674TIP3   OH235512   6.458   0.511  14.336 -0.3671  0.0968 -0.5462
 4674TIP3    H135513   6.478   0.466  14.418  2.0193  2.0376  0.0171
 4674TIP3    H235514   6.510   0.465  14.270  0.8806  1.0361 -0.2364
 4675TIP3   OH235515   4.154   4.231  17.663  0.2004  0.5189  0.0174
 4675TIP3    H135516   4.192   4.166  17.603  2.3228  1.9382 -0.2557
 4675TIP3    H235517   4.228   4.268  17.710 -1.3499 -0.2124  3.3216
 4676TIP3   OH235518   2.420   4.372  11.605  0.2970  0.6634  0.0961
 4676TIP3    H135519   2.416   4.357  11.511  1.1949 -0.4712  0.2172
 4676TIP3    H235520   2.424   4.284  11.644 -0.3836  1.1017  1.2155
 4677TIP3   OH235521   1.368   6.337  14.009 -0.2474 -0.2073  0.4149
 4677TIP3    H135522   1.317   6.263  13.975  1.9840 -1.1877 -1.0451
 4677TIP3    H235523   1.444   6.343  13.950  1.1176  1.4369  2.2018
 4678TIP3   OH235524   0.030   5.307  11.621  0.0362 -0.3178  0.2049
 4678TIP3    H135525  -0.064   5.293  11.611 -0.0818  0.6471 -0.1393
 4678TIP3    H235526   0.051   5.269  11.706 -1.3060  2.3100  1.8434
 4679TIP3   OH235527   4.952   5.977  13.407 -0.2997  0.0941 -0.0750
 4679TIP3    H135528   4.958   6.065  13.370 -0.4713 -0.2634 -0.9822
 4679TIP3    H235529   4.977   5.919  13.335  0.4228 -0.5768  0.6838
 4680TIP3   OH235530   2.909   1.634   0.033 -0.2384 -0.3167 -0.2091
 4680TIP3    H135531   2.840   1.569   0.043 -0.8719  0.0389 -1.9426
 4680TIP3    H235532   2.962   1.626   0.113 -0.2131 -3.0209 -0.4178
 4681TIP3   OH235533   5.287   2.684  14.071 -0.0859 -0.0504  0.3803
 4681TIP3    H135534   5.229   2.726  14.007  0.4456  2.0237  1.1720
 4681TIP3    H235535   5.359   2.649  14.018 -1.0281 -0.8455 -0.4039
 4682TIP3   OH235536   4.771   4.540   3.901 -0.5262  0.0357  0.0657
 4682TIP3    H135537   4.864   4.533   3.921 -0.1468  1.8913 -0.7874
 4682TIP3    H235538   4.758   4.487   3.823  0.0176  0.5320 -0.3602
 4683TIP3   OH235539   4.049   6.678   3.205  0.0886 -0.2794 -0.4148
 4683TIP3    H135540   4.067   6.760   3.250  0.7202  0.0704 -1.2779
 4683TIP3    H235541   3.997   6.627   3.267  1.2651  0.0155  0.8586
 4684TIP3   OH235542   4.724   1.892   3.867  0.2630  0.3256  0.4742
 4684TIP3    H135543   4.649   1.940   3.831 -0.1654 -1.0256 -0.5378
 4684TIP3    H235544   4.688   1.844   3.942  0.5364  1.0488  1.0758
 4685TIP3   OH235545   1.761   5.792   0.680 -0.2926  0.2182  0.8318
 4685TIP3    H135546   1.761   5.747   0.596 -1.7398  2.1383 -0.2837
 4685TIP3    H235547   1.669   5.793   0.707  0.0548  0.2646  2.1064
 4686TIP3   OH235548   4.559   3.142   5.670  0.6299 -0.2309  0.1053
 4686TIP3    H135549   4.575   3.163   5.577 -0.8277  0.2803 -0.0528
 4686TIP3    H235550   4.547   3.227   5.711 -2.1542 -0.5372  0.0831
 4687TIP3   OH235551   1.731   4.997   1.424  0.4543  0.4174 -0.0208
 4687TIP3    H135552   1.637   5.011   1.410 -0.5739 -4.3342  0.6706
 4687TIP3    H235553   1.737   4.961   1.512  2.5811 -1.4915 -0.8600
 4688TIP3   OH235554   3.748   3.007   3.464 -0.2730 -0.2780 -0.4993
 4688TIP3    H135555   3.784   3.028   3.550 -0.6408  1.6410 -0.7604
 4688TIP3    H235556   3.807   3.052   3.402 -0.3035 -1.2125 -1.2375
 4689TIP3   OH235557   4.013   5.543  12.825  0.8094  0.1010 -0.4256
 4689TIP3    H135558   4.090   5.583  12.784 -0.7310  2.9548 -0.7690
 4689TIP3    H235559   4.036   5.535  12.917  1.1743  2.0244 -0.3032
 4690TIP3   OH235560   0.280   3.454  16.740 -0.2532 -0.1160  0.3014
 4690TIP3    H135561   0.347   3.522  16.729 -0.7263  0.4312  0.7420
 4690TIP3    H235562   0.238   3.475  16.823  0.2134 -1.5013  0.9181
 4691TIP3   OH235563   4.489   5.890  11.659 -0.2668 -0.4476  0.3528
 4691TIP3    H135564   4.412   5.834  11.676 -1.0745 -0.1922 -2.0795
 4691TIP3    H235565   4.516   5.866  11.570  0.5253  1.6867 -0.0349
 4692TIP3   OH235566   3.078   1.867  11.760 -0.0694  0.4985  0.5505
 4692TIP3    H135567   3.005   1.843  11.816  0.3395  0.4560  1.0703
 4692TIP3    H235568   3.113   1.783  11.730  0.3293  0.4847  1.0379
 4693TIP3   OH235569   6.091   0.962  11.729  0.3569  0.0649 -0.0856
 4693TIP3    H135570   6.133   1.018  11.793  1.9239  0.8486 -1.7070
 4693TIP3    H235571   6.133   0.877  11.740 -0.5810 -0.2741  1.0172
 4694TIP3   OH235572   3.178   1.021  11.575 -0.3739  0.0310 -0.1336
 4694TIP3    H135573   3.263   0.995  11.610 -0.8304 -0.0584  0.9325
 4694TIP3    H235574   3.145   0.942  11.531  0.8243  0.5505 -2.0699
 4695TIP3   OH235575   6.384   1.141   6.268  0.9562 -0.1445 -0.0674
 4695TIP3    H135576   6.371   1.168   6.359  1.6886  0.6681 -0.1886
 4695TIP3    H235577   6.298   1.111   6.239  0.9060 -1.2616  1.1518
 4696TIP3   OH235578   2.438   6.143   4.725 -0.4730 -0.0426  0.5284
 4696TIP3    H135579   2.516   6.167   4.775 -0.1612  0.7331 -0.3173
 4696TIP3    H235580   2.366   6.184   4.773 -0.1686  0.7531  0.3205
 4697TIP3   OH235581   4.819   1.783  17.224  0.3352 -0.0266 -0.2171
 4697TIP3    H135582   4.832   1.744  17.310  0.5749  0.3011 -0.1046
 4697TIP3    H235583   4.829   1.710  17.163 -2.5147 -0.8296  0.1589
 4698TIP3   OH235584   1.463   1.111  14.192 -0.3284  0.3764  0.4731
 4698TIP3    H135585   1.418   1.084  14.112 -2.7529 -2.5699  2.5513
 4698TIP3    H235586   1.531   1.046  14.205  0.3445  1.0913  0.5937
 4699TIP3   OH235587   2.648   1.524  16.728  0.0537  0.4899 -0.2024
 4699TIP3    H135588   2.718   1.581  16.758  0.8520 -0.4190 -0.2990
 4699TIP3    H235589   2.596   1.579  16.669 -0.1259  1.5680  0.9140
 4700TIP3   OH235590   3.366   2.508  15.326 -0.5141 -0.8177 -1.2025
 4700TIP3    H135591   3.327   2.581  15.374  0.9833  0.4106 -1.7470
 4700TIP3    H235592   3.293   2.465  15.283 -1.3768  0.8825 -1.5328
 4701TIP3   OH235593   6.698   0.423   5.589  0.7431  0.1688  0.1532
 4701TIP3    H135594   6.652   0.481   5.528  0.4361  0.8850  1.0345
 4701TIP3    H235595   6.644   0.424   5.667  0.4679 -1.7412  0.0158
 4702TIP3   OH235596   2.784   2.936   2.173  0.0350  0.3756 -0.7327
 4702TIP3    H135597   2.691   2.920   2.190 -0.5343 -0.4254 -4.0216
 4702TIP3    H235598   2.829   2.901   2.250 -2.2078 -1.8342 -0.3217
 4703TIP3   OH235599   1.618   3.427  13.938  0.2925  0.3622  0.6263
 4703TIP3    H135600   1.708   3.457  13.929  0.5495 -0.5117  0.0998
 4703TIP3    H235601   1.574   3.495  13.989  0.9578  1.3532 -0.0954
 4704TIP3   OH235602   3.409   3.175  11.696 -0.0653 -0.1375 -0.5813
 4704TIP3    H135603   3.374   3.112  11.759  0.1536  1.6973  1.4913
 4704TIP3    H235604   3.466   3.123  11.639 -0.8712 -1.9984  0.2374
 4705TIP3   OH235605   0.955   6.406   2.972 -0.0982  0.1894  0.2794
 4705TIP3    H135606   0.913   6.492   2.979 -1.3432 -0.5299  3.1153
 4705TIP3    H235607   0.888   6.344   2.998  1.7238 -1.3169  1.6795
 4706TIP3   OH235608   0.616   0.486  14.656 -0.9151  0.4990  0.0980
 4706TIP3    H135609   0.668   0.410  14.681 -0.6892  0.1324 -1.3652
 4706TIP3    H235610   0.656   0.559  14.704  0.3271  0.0619 -0.2176
 4707TIP3   OH235611   4.164   2.135  11.969 -0.1164  0.3565 -0.4130
 4707TIP3    H135612   4.197   2.224  11.980 -0.4520  0.3345  0.8811
 4707TIP3    H235613   4.074   2.147  11.936 -0.8603  0.5895  1.5423
 4708TIP3   OH235614   0.197   3.344   5.325 -0.1211  0.0433  0.1037
 4708TIP3    H135615   0.163   3.407   5.388 -1.2780 -0.9050  0.4605
 4708TIP3    H235616   0.288   3.370   5.313  0.6968 -0.7015  3.4678
 4709TIP3   OH235617   5.343   0.094   6.059 -0.5117 -0.1387 -0.2300
 4709TIP3    H135618   5.271   0.100   5.996  0.7090 -1.0693 -1.8106
 4709TIP3    H235619   5.391   0.176   6.050 -0.4083 -0.2211 -0.4458
 4710TIP3   OH235620   4.444   1.026  13.439 -0.1899 -0.0360 -0.2278
 4710TIP3    H135621   4.498   0.956  13.475 -0.1093  0.1914  0.0915
 4710TIP3    H235622   4.481   1.043  13.352  0.1274 -0.0106 -0.0852
 4711TIP3   OH235623   1.287   6.722  11.808 -0.7210  0.0986 -0.8300
 4711TIP3    H135624   1.256   6.659  11.873  0.1826 -0.6318 -1.0817
 4711TIP3    H235625   1.238   6.802  11.826 -1.9157 -0.6828 -0.5275
 4712TIP3   OH235626   0.292   5.377  10.743  0.4921 -0.2910 -0.0347
 4712TIP3    H135627   0.367   5.329  10.779  1.3439  1.7331  1.0924
 4712TIP3    H235628   0.260   5.323  10.671  2.2849 -1.7874  0.2315
 4713TIP3   OH235629   4.725   1.102  11.541  0.7145 -0.4243 -0.1566
 4713TIP3    H135630   4.817   1.086  11.563  0.5941 -0.7978  0.0911
 4713TIP3    H235631   4.680   1.103  11.626  0.5571  0.2156 -0.2447
 4714TIP3   OH235632   0.953   2.471  14.815  0.2583  0.3494  0.4528
 4714TIP3    H135633   0.894   2.411  14.769  0.8628  1.2451 -1.5989
 4714TIP3    H235634   0.987   2.419  14.888  0.5206 -1.7237 -1.0522
 4715TIP3   OH235635   6.047   4.456   1.814 -0.0920 -0.6200 -0.2521
 4715TIP3    H135636   5.961   4.447   1.856 -0.3151  0.8762 -0.3294
 4715TIP3    H235637   6.046   4.544   1.776  1.5566 -0.4920 -0.0738
 4716TIP3   OH235638   1.245   4.189   0.040 -0.0039 -0.0375  0.0335
 4716TIP3    H135639   1.188   4.206  -0.035 -0.1764 -0.7130  0.0007
 4716TIP3    H235640   1.187   4.194   0.116  0.1003  0.2944  0.0925
 4717TIP3   OH235641   4.856   1.764   4.966 -0.3070  0.1326  0.1723
 4717TIP3    H135642   4.948   1.775   4.988  0.3639  0.9210 -2.5859
 4717TIP3    H235643   4.812   1.838   5.007  0.1530 -0.4767  1.8613
 4718TIP3   OH235644   1.690   4.421  16.815 -0.2661  0.2773  0.7368
 4718TIP3    H135645   1.668   4.386  16.902  0.8725  0.9894  1.3385
 4718TIP3    H235646   1.605   4.434  16.773 -0.8435 -0.1097  1.7397
 4719TIP3   OH235647   0.310   0.969  13.089  0.0238  0.3062 -0.0613
 4719TIP3    H135648   0.401   0.954  13.110  0.3289  3.1084  1.0392
 4719TIP3    H235649   0.312   1.039  13.023 -1.3154  0.3467 -0.0890
 4720TIP3   OH235650   0.402   3.343   0.038  0.2991 -0.1043 -0.2249
 4720TIP3    H135651   0.455   3.337   0.117  0.9764  0.4317 -0.6276
 4720TIP3    H235652   0.442   3.280  -0.023 -0.7239 -1.1334  0.1222
 4721TIP3   OH235653   2.709   5.485   1.889  0.2484 -0.3626 -0.4277
 4721TIP3    H135654   2.731   5.565   1.936 -0.6239 -0.4519  0.1618
 4721TIP3    H235655   2.614   5.489   1.880  0.3468 -0.5931 -1.7529
 4722TIP3   OH235656   0.931   2.259   2.241  0.1214 -0.5141  0.3777
 4722TIP3    H135657   0.961   2.181   2.194  0.3048 -0.6928  0.7931
 4722TIP3    H235658   0.846   2.279   2.201 -0.6126 -1.7726  1.2272
 4723TIP3   OH235659   0.074   1.965   3.805  0.1040 -0.2231 -0.0096
 4723TIP3    H135660  -0.009   1.929   3.773  0.5219 -0.1681 -1.1878
 4723TIP3    H235661   0.061   1.973   3.899 -0.3727 -2.5039  0.1679
 4724TIP3   OH235662   2.605   4.860   3.990 -0.0793 -0.4049 -0.1309
 4724TIP3    H135663   2.650   4.775   3.998 -0.8679 -0.6905  2.0196
 4724TIP3    H235664   2.520   4.839   3.953 -0.5139 -0.6875  0.9768
 4725TIP3   OH235665   1.406   4.787   2.028  0.0780  0.5572 -0.1553
 4725TIP3    H135666   1.499   4.809   2.014  0.6983 -0.9797  1.2199
 4725TIP3    H235667   1.380   4.742   1.947  0.6565  0.6415 -0.3961
 4726TIP3   OH235668   1.513   5.259  13.716 -0.3977  0.1874  0.0356
 4726TIP3    H135669   1.516   5.203  13.639  0.7934 -2.2988  1.7671
 4726TIP3    H235670   1.430   5.238  13.758  0.1792 -0.5394  0.8414
 4727TIP3   OH235671   0.489   0.891  16.698  0.2713 -0.4761  0.1929
 4727TIP3    H135672   0.443   0.831  16.640  0.5357 -0.5709  0.0773
 4727TIP3    H235673   0.544   0.834  16.752  2.0252 -0.2514 -1.2332
 4728TIP3   OH235674   5.668   6.709   2.072 -0.2318  0.3306  0.8921
 4728TIP3    H135675   5.696   6.712   2.163 -0.1047  2.3290  0.8397
 4728TIP3    H235676   5.724   6.773   2.028 -0.4246 -0.4654 -0.5582
 4729TIP3   OH235677   5.644   0.960  15.188  0.0964 -0.1965  0.0266
 4729TIP3    H135678   5.710   0.890  15.187  0.0708 -0.2465  0.9355
 4729TIP3    H235679   5.592   0.945  15.110  1.1098 -0.2110 -0.6712
 4730TIP3   OH235680   1.122   2.527   1.186  0.2587  0.1373 -0.5138
 4730TIP3    H135681   1.117   2.432   1.201 -0.2029 -0.0283 -1.5901
 4730TIP3    H235682   1.031   2.555   1.182  0.3776  0.4625 -1.1042
 4731TIP3   OH235683   1.403   5.710  14.632 -0.2041 -0.0139  0.1685
 4731TIP3    H135684   1.364   5.653  14.697 -2.3907  0.8798 -0.2846
 4731TIP3    H235685   1.349   5.699  14.554 -0.1150  1.9128 -0.2264
 4732TIP3   OH235686   0.827   1.301  14.629  0.5615 -0.3945  0.7411
 4732TIP3    H135687   0.761   1.327  14.693 -0.2478 -2.4507  0.8286
 4732TIP3    H235688   0.778   1.291  14.547  1.3018  0.6685  0.1295
 4733TIP3   OH235689   1.373   0.832  11.399 -0.4793 -0.0382 -0.6108
 4733TIP3    H135690   1.375   0.749  11.448  0.6616 -0.3435 -1.1275
 4733TIP3    H235691   1.400   0.808  11.311 -0.1808  0.8814 -0.7754
 4734TIP3   OH235692   0.164   0.583  13.592  0.4085 -0.6564  0.6302
 4734TIP3    H135693   0.070   0.584  13.612 -0.0913  0.1428 -1.5663
 4734TIP3    H235694   0.189   0.491  13.600 -0.2485 -0.7178  2.4273
 4735TIP3   OH235695   6.660   2.495   6.228 -0.0827 -0.3841  0.2261
 4735TIP3    H135696   6.592   2.522   6.289 -0.2673  0.3679 -0.2899
 4735TIP3    H235697   6.621   2.423   6.179  0.0903 -1.0327  1.0278
 4736TIP3   OH235698   0.357   5.910  16.712 -0.3359  0.1228  0.2448
 4736TIP3    H135699   0.319   5.822  16.712  1.1851 -0.6011 -1.3326
 4736TIP3    H235700   0.432   5.903  16.770  0.6561 -0.0688 -1.0257
 4737TIP3   OH235701   5.920   2.481  15.097  0.3907  0.4196 -0.1074
 4737TIP3    H135702   5.911   2.391  15.065  0.6961 -0.6351  2.5817
 4737TIP3    H235703   5.964   2.527  15.025 -0.2077 -1.4086 -1.7461
 4738TIP3   OH235704   3.080   2.058   0.912  0.1324  0.0577  0.4324
 4738TIP3    H135705   3.149   1.992   0.909  0.2472  0.1847  0.2536
 4738TIP3    H235706   3.009   2.017   0.961  0.7069  0.2742  1.4789
 4739TIP3   OH235707   6.335   2.167  16.002  0.2025 -0.8117 -0.1063
 4739TIP3    H135708   6.401   2.237  16.003 -0.0329 -0.5820 -0.6294
 4739TIP3    H235709   6.252   2.212  16.021 -0.1386 -0.7477 -1.6566
 4740TIP3   OH235710   3.408   3.578   3.052 -0.2568  0.2798  0.3566
 4740TIP3    H135711   3.430   3.485   3.057 -0.6026  0.2568  1.7502
 4740TIP3    H235712   3.346   3.584   2.978 -0.4262 -0.6285  0.4173
 4741TIP3   OH235713   4.278   1.296  12.058 -0.4005  0.0842 -0.4364
 4741TIP3    H135714   4.232   1.217  12.030 -0.5126  0.2400 -0.6985
 4741TIP3    H235715   4.271   1.355  11.983 -2.1322  1.1340  0.4843
 4742TIP3   OH235716   3.087   6.545  13.992  0.2384  0.1646 -0.3677
 4742TIP3    H135717   3.053   6.599  14.063  1.9521 -0.3325  0.9255
 4742TIP3    H235718   3.010   6.506  13.951 -0.8455  1.1931  0.6445
 4743TIP3   OH235719   1.224   3.204   5.524  0.1888  0.1221  0.6115
 4743TIP3    H135720   1.299   3.255   5.494  0.5101  0.3418  1.7467
 4743TIP3    H235721   1.157   3.269   5.545 -0.5601 -0.0920 -0.9104
 4744TIP3   OH235722   4.704   3.524  15.230 -0.1413 -0.1540  0.3756
 4744TIP3    H135723   4.669   3.594  15.175  0.0803 -0.4104 -0.0961
 4744TIP3    H235724   4.628   3.484  15.271 -0.3997 -0.6458 -0.5673
 4745TIP3   OH235725   1.747   2.565   6.082  0.5859  0.1192  0.0789
 4745TIP3    H135726   1.765   2.523   5.998  2.9225  1.1048  0.0232
 4745TIP3    H235727   1.715   2.652   6.060  1.1140  0.3469  0.1953
 4746TIP3   OH235728   1.755   6.329  12.892  0.6334 -1.1777 -0.2798
 4746TIP3    H135729   1.771   6.377  12.974  0.6305 -1.7778  0.0797
 4746TIP3    H235730   1.842   6.301  12.863  0.8941  0.7697 -1.5956
 4747TIP3   OH235731   5.597   4.487   0.377  0.1315 -0.2086 -0.0807
 4747TIP3    H135732   5.581   4.558   0.439 -0.4679 -0.6830  0.3200
 4747TIP3    H235733   5.509   4.459   0.350  0.2635 -1.9367  1.0838
 4748TIP3   OH235734   3.555   2.725  12.802 -0.1565  0.0820 -0.0366
 4748TIP3    H135735   3.602   2.734  12.885  1.4455  0.7925 -0.9586
 4748TIP3    H235736   3.592   2.794  12.746 -1.8669  0.2365 -1.0542
 4749TIP3   OH235737   1.717   5.808   1.946 -0.5723 -0.1229 -0.1775
 4749TIP3    H135738   1.797   5.813   1.997 -1.5057  1.4842  1.2464
 4749TIP3    H235739   1.667   5.737   1.987 -0.1643 -0.6887 -0.6499
 4750TIP3   OH235740   4.530   6.188  17.208 -0.0090  0.0806  0.0510
 4750TIP3    H135741   4.523   6.239  17.127 -0.3513  1.6265  1.0212
 4750TIP3    H235742   4.442   6.187  17.243  0.3860  0.5661  1.0776
 4751TIP3   OH235743   1.025   1.384  12.556  0.1685  0.1610 -0.1927
 4751TIP3    H135744   1.004   1.472  12.585 -0.5782 -0.6349  1.8489
 4751TIP3    H235745   0.948   1.332  12.580 -0.4086 -0.6911 -3.4289
 4752TIP3   OH235746   1.167   2.019  16.086 -0.0700  0.9855  0.0262
 4752TIP3    H135747   1.150   1.985  15.998  0.7291  1.6762 -0.4012
 4752TIP3    H235748   1.192   1.942  16.136 -1.4652  0.4263 -0.0913
 4753TIP3   OH235749   5.879   4.176   5.652  0.6162 -0.1700  0.2549
 4753TIP3    H135750   5.897   4.213   5.738 -0.4118  0.1558  0.3493
 4753TIP3    H235751   5.918   4.088   5.656  1.6631  0.2920  0.5964
 4754TIP3   OH235752   5.454   5.856   6.250 -0.0532  0.0076 -0.0109
 4754TIP3    H135753   5.374   5.907   6.266 -0.3129 -0.9059  1.8970
 4754TIP3    H235754   5.508   5.871   6.327  0.4470 -1.4907 -0.0335
 4755TIP3   OH235755   5.813   6.234  17.064  0.3082  0.1960  0.2497
 4755TIP3    H135756   5.825   6.144  17.095 -0.2531  0.3396  0.9169
 4755TIP3    H235757   5.896   6.278  17.086  0.7967 -0.2871 -0.5884
 4756TIP3   OH235758   6.455   0.324  15.497 -0.3139 -0.2421  0.1462
 4756TIP3    H135759   6.498   0.363  15.573  1.2648 -0.4953 -0.5810
 4756TIP3    H235760   6.460   0.230  15.512  0.2939 -0.3042 -0.4015
 4757TIP3   OH235761   1.065   1.128   3.940 -0.2902  0.1044 -0.1624
 4757TIP3    H135762   1.067   1.169   4.027 -1.0414  0.1275 -0.1500
 4757TIP3    H235763   1.015   1.189   3.886  0.2022  0.1048 -0.6306
 4758TIP3   OH235764   2.516   4.325   4.471 -0.1639  0.5785  0.0318
 4758TIP3    H135765   2.448   4.393   4.474  0.2531  0.9745  0.8241
 4758TIP3    H235766   2.595   4.372   4.445  0.1768  0.4464  0.8020
 4759TIP3   OH235767   3.628   2.565   6.798  0.0301 -0.3767  0.2829
 4759TIP3    H135768   3.638   2.488   6.742 -1.0533  0.7899 -1.6227
 4759TIP3    H235769   3.703   2.620   6.777 -1.0378  0.6345 -1.0512
 4760TIP3   OH235770   2.867   2.108   3.355 -0.5645  0.1102  0.3292
 4760TIP3    H135771   2.915   2.144   3.280 -1.1619  2.3852  0.9458
 4760TIP3    H235772   2.935   2.079   3.416 -0.0436 -0.0235 -0.3079
 4761TIP3   OH235773   6.725   1.661   1.424  0.0181 -0.1038 -0.2642
 4761TIP3    H135774   6.814   1.663   1.388 -0.2576 -0.8544 -1.0446
 4761TIP3    H235775   6.736   1.625   1.512  0.4290 -0.7815 -0.5827
 4762TIP3   OH235776   5.755   5.528   2.809  0.3434 -0.7928  0.3110
 4762TIP3    H135777   5.706   5.507   2.729 -0.6154 -0.4193  0.7882
 4762TIP3    H235778   5.784   5.443   2.842 -0.7366 -1.0947  0.4929
 4763TIP3   OH235779   2.134   0.064   4.347  0.7248  0.1761 -0.0075
 4763TIP3    H135780   2.148   0.047   4.440  1.8372  1.1434  0.0240
 4763TIP3    H235781   2.131  -0.023   4.307  1.2006 -0.2303  0.8134
 4764TIP3   OH235782   4.098   3.615  14.979 -0.1105 -0.0803 -0.1822
 4764TIP3    H135783   4.147   3.611  14.897 -1.0399  0.6675 -0.8035
 4764TIP3    H235784   4.119   3.701  15.015  1.0657 -0.7831  0.8932
 4765TIP3   OH235785   2.798   4.702   5.796 -0.3187  0.1813 -0.0539
 4765TIP3    H135786   2.853   4.626   5.816 -0.6901  0.0620  0.5663
 4765TIP3    H235787   2.803   4.757   5.874 -1.5954 -0.1602  0.3067
 4766TIP3   OH235788   1.128   5.007  16.711 -0.4123 -0.1865  0.0804
 4766TIP3    H135789   1.137   4.943  16.640  0.1818  0.0100 -0.0271
 4766TIP3    H235790   1.157   4.960  16.789  0.8536  0.2022 -0.1366
 4767TIP3   OH235791   4.345   5.365   6.041 -0.5004 -0.0632  0.2338
 4767TIP3    H135792   4.333   5.439   5.981 -0.0585  1.0958  1.5341
 4767TIP3    H235793   4.428   5.326   6.014 -0.2616  0.4992  0.1424
 4768TIP3   OH235794   0.029   5.762   1.987  0.1333  0.3725  0.6472
 4768TIP3    H135795  -0.057   5.803   1.982 -0.0486 -0.1395 -2.4775
 4768TIP3    H235796   0.022   5.684   1.932  2.3106 -0.2983  1.2039
 4769TIP3   OH235797   2.727   3.950  15.400  0.5835 -0.5440  0.2204
 4769TIP3    H135798   2.772   3.916  15.477 -0.5438 -1.4040  0.5390
 4769TIP3    H235799   2.667   3.879  15.375 -0.2692  0.3813 -0.4210
 4770TIP3   OH235800   3.945   2.865   4.572  0.3104 -0.2967 -0.9042
 4770TIP3    H135801   3.990   2.847   4.490  2.3868 -0.4784  0.2262
 4770TIP3    H235802   4.014   2.870   4.638 -1.1134  1.5364  0.5805
 4771TIP3   OH235803   4.030   2.021  14.497  0.1566  0.2266  0.9209
 4771TIP3    H135804   4.080   2.101  14.511  0.8502 -0.4967  2.7560
 4771TIP3    H235805   4.056   1.963  14.568  0.4501 -2.0474 -0.9423
 4772TIP3   OH235806   6.021   2.719   3.297  0.6465  0.0475  0.3474
 4772TIP3    H135807   6.044   2.718   3.204 -0.1165  1.4645  0.1081
 4772TIP3    H235808   6.103   2.740   3.342  1.0695 -0.8778  0.0207
 4773TIP3   OH235809   1.979   3.041  16.545 -0.7385 -0.2987  0.3996
 4773TIP3    H135810   2.040   2.969  16.534  1.0770  1.1474  0.4592
 4773TIP3    H235811   2.015   3.092  16.618 -1.5954  0.9933 -0.0419
 4774TIP3   OH235812   4.934   3.082  14.952 -0.2386  0.5430  0.1760
 4774TIP3    H135813   4.889   3.155  14.994 -1.1130  0.1557 -0.0540
 4774TIP3    H235814   5.007   3.122  14.905 -1.3334  1.4139 -0.8359
 4775TIP3   OH235815   5.469   4.882   3.397 -0.5832 -0.2170  0.3689
 4775TIP3    H135816   5.497   4.900   3.487 -1.5193 -0.1815  0.6693
 4775TIP3    H235817   5.486   4.788   3.385 -1.7291 -0.5363  1.0796
 4776TIP3   OH235818   0.563   1.124  11.309 -0.4178 -0.1179 -0.2202
 4776TIP3    H135819   0.608   1.101  11.391 -0.1857  0.2823 -0.2348
 4776TIP3    H235820   0.487   1.176  11.337 -1.0315 -1.0046 -0.1771
 4777TIP3   OH235821   4.774   3.264   4.008  0.0649 -0.1940 -0.0764
 4777TIP3    H135822   4.799   3.262   3.916  1.0065  1.2945  0.1169
 4777TIP3    H235823   4.691   3.312   4.010 -1.2379 -2.3082 -0.3636
 4778TIP3   OH235824   2.475   4.562   5.697  0.2727  0.2231  0.4763
 4778TIP3    H135825   2.411   4.536   5.630  1.5079 -1.3410 -0.1708
 4778TIP3    H235826   2.481   4.657   5.689  1.5214  0.0018 -2.8041
 4779TIP3   OH235827   1.775   3.548  16.063 -0.0945  0.3484 -0.0764
 4779TIP3    H135828   1.847   3.507  16.110  0.2659  0.5064 -0.4889
 4779TIP3    H235829   1.697   3.502  16.094  0.3470 -0.9609 -0.8755
 4780TIP3   OH235830   6.146   4.071   4.314 -0.7376 -0.2216  0.3286
 4780TIP3    H135831   6.148   4.151   4.261  1.5206 -1.8923 -2.3766
 4780TIP3    H235832   6.232   4.066   4.355 -1.0729 -0.9490  0.9724
 4781TIP3   OH235833   1.201   0.355  17.320 -0.2006 -0.0559  0.3630
 4781TIP3    H135834   1.279   0.409  17.323  1.4319 -2.1847 -0.7471
 4781TIP3    H235835   1.167   0.355  17.410 -0.4089  2.8625  0.3551
 4782TIP3   OH235836   4.680   6.361   4.787 -0.1474 -0.3185  0.1046
 4782TIP3    H135837   4.653   6.425   4.722 -1.6134 -1.2653 -0.2682
 4782TIP3    H235838   4.716   6.289   4.736 -1.0198 -0.9342  0.3255
 4783TIP3   OH235839   1.299   3.288  12.514  0.3088  0.0235 -0.1363
 4783TIP3    H135840   1.235   3.352  12.546  0.1141  1.1724 -2.5791
 4783TIP3    H235841   1.247   3.225  12.465  0.8339 -0.1901 -0.4205
 4784TIP3   OH235842   0.966   3.296   1.708 -0.0069  0.1348 -0.0572
 4784TIP3    H135843   1.023   3.323   1.779 -0.3162 -0.3695  0.3884
 4784TIP3    H235844   1.024   3.257   1.643  0.1375 -0.5007  0.4536
 4785TIP3   OH235845   0.515   4.440  17.078  0.1977  1.0552 -0.6591
 4785TIP3    H135846   0.564   4.522  17.084 -0.6199  1.5263 -0.3800
 4785TIP3    H235847   0.489   4.420  17.168  0.2116  0.5990 -0.7526
 4786TIP3   OH235848   2.522   6.677   1.764 -0.2636  0.0246 -0.2125
 4786TIP3    H135849   2.552   6.692   1.675 -2.1920  0.1447 -0.8887
 4786TIP3    H235850   2.464   6.751   1.783  0.3856  0.1848  1.2786
 4787TIP3   OH235851   1.055   6.687   0.743  0.7617 -0.2839 -0.0260
 4787TIP3    H135852   1.150   6.692   0.752  0.7670 -0.2158 -0.1156
 4787TIP3    H235853   1.034   6.594   0.754  0.5522  0.0239  2.8476
 4788TIP3   OH235854   5.197   3.848   5.603  0.5777  0.2062 -0.0202
 4788TIP3    H135855   5.155   3.816   5.682 -0.6526  0.9611 -0.3398
 4788TIP3    H235856   5.183   3.943   5.604 -2.0631 -0.0078 -2.5222
 4789TIP3   OH235857   5.340   3.178  11.164  0.3641 -0.2984 -0.3625
 4789TIP3    H135858   5.285   3.242  11.119 -1.1220 -1.0172  0.3734
 4789TIP3    H235859   5.339   3.205  11.256  0.3881 -0.9232 -0.1759
 4790TIP3   OH235860   4.383   6.328   1.109  0.1855  0.3510 -0.5386
 4790TIP3    H135861   4.310   6.281   1.068  2.0746 -1.1017 -2.4471
 4790TIP3    H235862   4.460   6.299   1.060  1.9346  2.6092  0.7310
 4791TIP3   OH235863   1.580   4.358  12.380 -0.9178  0.2786  0.2756
 4791TIP3    H135864   1.585   4.309  12.298  3.7219 -0.8138  0.9002
 4791TIP3    H235865   1.584   4.450  12.353 -1.2555  0.0189 -0.7206
 4792TIP3   OH235866   5.181   1.506   1.470 -0.1054  0.1576 -0.3018
 4792TIP3    H135867   5.188   1.600   1.486 -1.3367  0.0922  0.7187
 4792TIP3    H235868   5.206   1.496   1.378  3.5184  1.0205  0.4229
 4793TIP3   OH235869   3.084   4.237   0.394  0.4534 -0.0774  0.1158
 4793TIP3    H135870   3.090   4.178   0.319  1.4998 -0.0555  0.1605
 4793TIP3    H235871   3.146   4.201   0.458  0.5754  0.6637  0.4282
 4794TIP3   OH235872   4.124   3.816   3.898 -0.3943 -0.3354 -0.6702
 4794TIP3    H135873   4.048   3.867   3.867  0.5652  1.1553 -0.7039
 4794TIP3    H235874   4.186   3.819   3.824  0.2743 -0.2637 -0.1187
 4795TIP3   OH235875   5.382   3.613  15.050  0.2306  0.4065  0.1897
 4795TIP3    H135876   5.398   3.519  15.058  2.3240  0.7069  0.2162
 4795TIP3    H235877   5.336   3.636  15.130  0.5914 -0.4362  0.6565
 4796TIP3   OH235878   4.672   0.221   1.715  0.6631  0.6671 -0.2764
 4796TIP3    H135879   4.764   0.196   1.706 -0.2205 -2.2194 -5.5144
 4796TIP3    H235880   4.658   0.288   1.648 -1.1950  0.3538 -0.2635
 4797TIP3   OH235881   3.983   1.157   4.251 -0.2969  0.0289  0.4227
 4797TIP3    H135882   4.054   1.093   4.252 -0.8826 -0.6334  0.4112
 4797TIP3    H235883   3.963   1.169   4.158  0.9192  1.4998  0.3177
 4798TIP3   OH235884   2.345   4.974  12.288 -0.2854 -0.2665 -0.3838
 4798TIP3    H135885   2.286   4.955  12.215 -1.1194 -0.1206  0.2355
 4798TIP3    H235886   2.432   4.972  12.249 -0.7128 -0.1364 -1.4001
 4799TIP3   OH235887   2.343   4.225   6.740 -0.0094  0.0624  0.0506
 4799TIP3    H135888   2.261   4.174   6.739  0.3392 -0.6162  1.7359
 4799TIP3    H235889   2.411   4.161   6.720  0.1604  0.5542 -0.9960
 4800TIP3   OH235890   0.985   5.910   6.097 -0.0007  0.9219 -0.1379
 4800TIP3    H135891   0.939   5.994   6.102  0.2755  1.1675 -1.2249
 4800TIP3    H235892   0.923   5.851   6.055  0.2125  0.9091 -0.4406
 4801TIP3   OH235893   5.701   2.546  14.200  0.4146  1.0112  0.1927
 4801TIP3    H135894   5.631   2.538  14.136  0.5736  2.7076 -0.2379
 4801TIP3    H235895   5.675   2.487  14.271  1.1527 -2.4303 -2.1233
 4802TIP3   OH235896   6.504   6.374   3.803  0.2560  0.1159  0.4025
 4802TIP3    H135897   6.489   6.339   3.715  0.9602 -2.5490  1.2286
 4802TIP3    H235898   6.583   6.427   3.795 -0.8300  1.6165 -0.9305
 4803TIP3   OH235899   5.050   2.981  15.903 -0.5617  0.0635 -0.3517
 4803TIP3    H135900   4.981   2.929  15.863 -0.3729 -1.5161  1.2681
 4803TIP3    H235901   5.100   2.919  15.957 -0.0154  1.8063  1.2788
 4804TIP3   OH235902   3.573   0.142  14.865 -0.3742 -0.3782  0.2097
 4804TIP3    H135903   3.622   0.199  14.925 -1.4234  0.6534  0.1118
 4804TIP3    H235904   3.545   0.200  14.794 -0.1714 -1.3395 -0.6756
 4805TIP3   OH235905   5.253   4.835   2.374 -0.1704 -0.4763 -0.2777
 4805TIP3    H135906   5.288   4.750   2.347  1.7285 -0.3677  1.5820
 4805TIP3    H235907   5.255   4.833   2.470  1.8286  2.3506 -0.1342
 4806TIP3   OH235908   0.758   0.693  12.579  0.0998  0.0542  0.7279
 4806TIP3    H135909   0.747   0.617  12.636 -1.6909 -0.5702 -0.3731
 4806TIP3    H235910   0.718   0.765  12.629 -1.0408 -0.3982  0.5145
 4807TIP3   OH235911   5.889   3.233   0.821  0.6452 -0.5193 -0.4737
 4807TIP3    H135912   5.968   3.280   0.844  0.0405 -1.0863  3.3174
 4807TIP3    H235913   5.827   3.302   0.796  1.2442  0.2536  0.1238
 4808TIP3   OH235914   2.423   1.678  14.840 -0.3298  0.3395  0.6679
 4808TIP3    H135915   2.445   1.602  14.787  1.0103  2.0785 -1.4853
 4808TIP3    H235916   2.502   1.695  14.892 -0.5360  0.3654  0.9707
 4809TIP3   OH235917   2.595   4.179   0.563 -0.7198 -0.1062  0.3250
 4809TIP3    H135918   2.658   4.172   0.492 -1.2876  1.3700 -0.3492
 4809TIP3    H235919   2.611   4.264   0.602 -1.1876 -0.4224  1.2392
 4810TIP3   OH235920   0.592   3.840  14.152 -0.0719 -0.1054 -0.5544
 4810TIP3    H135921   0.680   3.814  14.179  0.5792  0.9856 -1.5517
 4810TIP3    H235922   0.587   3.814  14.060 -0.9637 -0.5400 -0.3912
 4811TIP3   OH235923   1.835   0.385  17.589  0.1928  0.2154  0.1361
 4811TIP3    H135924   1.801   0.467  17.623  0.5569 -0.1915  1.5761
 4811TIP3    H235925   1.905   0.410  17.529 -0.0922  0.9551  0.1082
 4812TIP3   OH235926   1.340   2.487   0.639  0.2000 -0.3432 -0.0366
 4812TIP3    H135927   1.289   2.462   0.562 -0.1534 -1.2010  0.4665
 4812TIP3    H235928   1.407   2.418   0.646 -1.2328 -1.6353  1.7921
 4813TIP3   OH235929   5.004   6.355   0.994  0.2508  0.1332  0.0027
 4813TIP3    H135930   5.023   6.266   1.022  0.3134 -0.0048 -0.4587
 4813TIP3    H235931   5.046   6.411   1.060 -1.1531 -0.1556  1.1906
 4814TIP3   OH235932   5.143   0.797   0.226  0.1404  0.3417  0.1090
 4814TIP3    H135933   5.087   0.852   0.173  0.0535  0.5836  0.4453
 4814TIP3    H235934   5.085   0.759   0.292  0.2946  0.2693  0.2062
 4815TIP3   OH235935   3.931   2.934  11.701  0.2344 -0.1481 -0.3269
 4815TIP3    H135936   4.004   2.922  11.761  0.0497  1.3433  0.2487
 4815TIP3    H235937   3.932   3.028  11.681 -0.9954 -0.2542 -0.9742
 4816TIP3   OH235938   5.800   3.008  13.475  0.3818 -0.1174 -0.8712
 4816TIP3    H135939   5.826   2.948  13.405 -1.2870  1.3016 -2.8458
 4816TIP3    H235940   5.818   3.096  13.439  1.1184  0.6458  1.2217
 4817TIP3   OH235941   2.240   2.138  12.177 -0.4686  0.0418 -0.4637
 4817TIP3    H135942   2.293   2.205  12.135 -2.5441  1.4640 -0.9652
 4817TIP3    H235943   2.150   2.162  12.156 -1.3748 -1.8179  0.9900
 4818TIP3   OH235944   0.421   4.633   3.259  0.1787 -0.4637 -0.2481
 4818TIP3    H135945   0.447   4.549   3.297 -0.8300 -0.8180 -0.3079
 4818TIP3    H235946   0.351   4.664   3.317  1.7183  1.2240  0.8450
 4819TIP3   OH235947   5.005   3.920  13.073  0.2892  0.7419  0.0242
 4819TIP3    H135948   5.060   3.844  13.092  1.0394  1.5497  1.1896
 4819TIP3    H235949   5.062   3.995  13.089  0.0775  1.5817 -2.7095
 4820TIP3   OH235950   0.568   2.466  15.792 -0.3296 -0.2817 -0.5437
 4820TIP3    H135951   0.530   2.408  15.727 -1.4247 -0.9896  0.6995
 4820TIP3    H235952   0.495   2.494  15.847  0.5963  0.0749  0.5666
 4821TIP3   OH235953   1.965   3.468   6.600  0.0280 -0.5983 -0.6030
 4821TIP3    H135954   2.049   3.434   6.632 -0.3775 -1.4889 -0.4590
 4821TIP3    H235955   1.900   3.406   6.633 -0.6456 -0.1652 -1.0956
 4822TIP3   OH235956   3.833   5.729  15.482  0.0974 -0.1339  0.4190
 4822TIP3    H135957   3.844   5.814  15.441 -1.3875  0.8463  1.8870
 4822TIP3    H235958   3.738   5.718  15.489  0.2715 -1.5589  0.9423
 4823TIP3   OH235959   3.558   5.250  14.356 -0.5010 -0.1100 -0.4242
 4823TIP3    H135960   3.551   5.188  14.428  0.2100  2.5871  2.1523
 4823TIP3    H235961   3.557   5.336  14.398  3.2511  1.6073 -3.2417
 4824TIP3   OH235962   1.880   3.057   1.399  0.2984 -0.0637 -0.4864
 4824TIP3    H135963   1.976   3.053   1.403  0.3595  0.0382 -1.5266
 4824TIP3    H235964   1.860   3.062   1.306 -0.6237  2.3408 -0.2367
 4825TIP3   OH235965   4.498   5.355  13.564 -0.7728  0.2227  0.1937
 4825TIP3    H135966   4.557   5.362  13.489  3.3568 -1.1674  2.9289
 4825TIP3    H235967   4.502   5.262  13.589 -2.3023  0.5469  1.8767
 4826TIP3   OH235968   4.325   0.472   0.885  0.2650 -0.0917 -0.3680
 4826TIP3    H135969   4.411   0.453   0.924  0.1794 -3.3060 -1.4959
 4826TIP3    H235970   4.266   0.480   0.960  1.0427 -0.7151  0.3250
 4827TIP3   OH235971   4.256   5.610  14.646 -0.5908 -0.1535 -0.1674
 4827TIP3    H135972   4.234   5.574  14.732 -0.6597  2.3640  0.9298
 4827TIP3    H235973   4.172   5.635  14.608 -0.3480  1.3569  0.2625
 4828TIP3   OH235974   1.567   0.752   0.782 -0.0607 -0.2131  0.8054
 4828TIP3    H135975   1.543   0.773   0.873 -1.7105  0.0794  0.3411
 4828TIP3    H235976   1.619   0.826   0.753  0.9499 -0.5582  1.6614
 4829TIP3   OH235977   1.249   3.615   5.095 -0.2564  0.0138 -0.4478
 4829TIP3    H135978   1.239   3.626   5.001  1.6313 -1.9671 -0.9638
 4829TIP3    H235979   1.205   3.532   5.115 -1.2740  0.7697  0.5666
 4830TIP3   OH235980   4.484   2.948   6.678 -0.6460 -0.0658 -0.1727
 4830TIP3    H135981   4.485   3.043   6.664  0.1617 -0.0150  0.1752
 4830TIP3    H235982   4.399   2.919   6.643 -0.3226  0.5802 -1.5268
 4831TIP3   OH235983   1.857   3.875   1.721  0.0597 -0.3235  0.0434
 4831TIP3    H135984   1.864   3.845   1.630  1.3361 -3.2711  1.0258
 4831TIP3    H235985   1.778   3.832   1.755 -0.0486  0.2473  0.5416
 4832TIP3   OH235986   2.584   3.233  14.760 -0.5461 -0.5653  0.1580
 4832TIP3    H135987   2.630   3.280  14.690 -1.8803 -0.1394 -0.4602
 4832TIP3    H235988   2.513   3.291  14.786 -0.0714 -0.7007  1.9211
 4833TIP3   OH235989   2.208   1.409  14.707  0.2614  0.1257  0.0611
 4833TIP3    H135990   2.297   1.392  14.736  0.9121  1.1625 -1.2269
 4833TIP3    H235991   2.200   1.504  14.706 -0.1423  0.1200 -1.7938
 4834TIP3   OH235992   4.530   3.333  11.112 -0.5032 -0.1019  0.3588
 4834TIP3    H135993   4.453   3.285  11.144 -0.7116 -0.6853 -0.9259
 4834TIP3    H235994   4.604   3.291  11.156 -0.7724 -0.9132  0.0703
 4835TIP3   OH235995   0.443   2.361   5.493  0.5958  0.5948  0.3540
 4835TIP3    H135996   0.475   2.282   5.537  0.1808  1.0514  1.5270
 4835TIP3    H235997   0.352   2.369   5.523  0.7347  1.6906  0.5069
 4836TIP3   OH235998   6.729   3.273   5.886  0.3177 -0.2257 -0.3036
 4836TIP3    H135999   6.642   3.274   5.926  1.2169  0.7839  1.7384
 4836TIP3    H236000   6.735   3.357   5.840  0.1877 -0.3266 -0.5050
 4837TIP3   OH236001   3.798   0.170  16.757 -0.1003 -0.3733 -0.1592
 4837TIP3    H136002   3.831   0.208  16.839  1.0165 -0.2989 -0.6183
 4837TIP3    H236003   3.706   0.153  16.774 -0.3114  1.2437  0.5395
 4838TIP3   OH236004   1.519   2.753  16.390  0.3480  0.4391 -0.2211
 4838TIP3    H136005   1.507   2.832  16.442 -0.0062  0.4241 -0.2822
 4838TIP3    H236006   1.541   2.685  16.455  0.5890  0.5695 -0.1641
 4839TIP3   OH236007   1.396   0.653   3.705  0.1184 -0.3393  0.1113
 4839TIP3    H136008   1.446   0.733   3.721  1.0393 -0.8109 -0.3225
 4839TIP3    H236009   1.452   0.583   3.736 -0.0598 -0.9175 -0.8222
 4840TIP3   OH236010   1.763   1.441   4.293  0.2284 -0.5899 -0.4981
 4840TIP3    H136011   1.750   1.519   4.347  0.7733 -0.6554 -0.2732
 4840TIP3    H236012   1.798   1.474   4.210  0.1694 -0.5665 -0.5136
 4841TIP3   OH236013   3.490   4.197   4.715 -0.0738  0.3621 -0.0489
 4841TIP3    H136014   3.546   4.237   4.781 -1.3081  0.7360  0.8228
 4841TIP3    H236015   3.419   4.261   4.702 -2.4124 -1.6199  1.7920
 4842TIP3   OH236016   0.545   0.706  12.083 -0.0461 -0.0714  0.1599
 4842TIP3    H136017   0.582   0.626  12.047  0.2455 -0.1851  0.7102
 4842TIP3    H236018   0.452   0.702  12.058 -0.2168 -0.9877  0.8925
 4843TIP3   OH236019   6.106   4.141  12.590 -0.6564  0.1088  0.6001
 4843TIP3    H136020   6.162   4.207  12.631 -1.0517  1.7600 -1.3569
 4843TIP3    H236021   6.168   4.078  12.553 -0.1182  0.9999 -0.0643
 4844TIP3   OH236022   1.155   3.202   4.169 -0.3270 -0.2040  0.2405
 4844TIP3    H136023   1.127   3.220   4.258 -0.3830 -3.1889  0.9360
 4844TIP3    H236024   1.092   3.137   4.137 -1.3468  1.9897 -2.6521
 4845TIP3   OH236025   2.432   0.384   0.849 -0.6486  0.1033 -0.3006
 4845TIP3    H136026   2.512   0.380   0.797 -0.4449  1.7603 -0.1588
 4845TIP3    H236027   2.463   0.398   0.939 -0.9999 -2.5623  0.3381
 4846TIP3   OH236028   0.492   6.240  16.911 -0.2648  0.0597  0.0308
 4846TIP3    H136029   0.501   6.302  16.839  3.6256 -0.9800 -0.6071
 4846TIP3    H236030   0.524   6.288  16.987 -0.1194 -0.2312  0.1531
 4847TIP3   OH236031   5.950   3.049  13.040  0.4409 -0.2520 -0.2516
 4847TIP3    H136032   5.956   3.078  12.949  0.5337 -1.0554 -0.5071
 4847TIP3    H236033   6.040   3.029  13.065  0.2701 -1.2754 -0.4062
 4848TIP3   OH236034   4.615   3.512  11.319  0.5029  0.0033  0.1165
 4848TIP3    H136035   4.554   3.455  11.365 -0.1697  1.9312  1.7297
 4848TIP3    H236036   4.581   3.515  11.229 -0.3464 -0.8691  0.3899
 4849TIP3   OH236037   3.910   6.133  17.166  0.3130  0.2650  0.0254
 4849TIP3    H136038   3.827   6.168  17.196  0.0097  0.3354 -0.8776
 4849TIP3    H236039   3.888   6.049  17.125  0.5462  0.7328 -1.0863
 4850TIP3   OH236040   6.563   5.200   2.553 -0.3367  0.0431 -0.1565
 4850TIP3    H136041   6.517   5.126   2.592 -0.4542  0.1582 -0.0756
 4850TIP3    H236042   6.548   5.191   2.459  0.0975 -0.3380 -0.1962
 4851TIP3   OH236043   5.451   3.029  11.798  0.0397  0.0420  0.3308
 4851TIP3    H136044   5.394   3.101  11.768 -0.0420 -0.2028 -0.1091
 4851TIP3    H236045   5.434   3.023  11.892 -0.7001 -0.0552  0.1978
 4852TIP3   OH236046   4.959   2.013   0.591 -0.3762 -0.0650 -0.4272
 4852TIP3    H136047   4.978   1.922   0.567 -1.2310 -0.5449  0.5730
 4852TIP3    H236048   4.928   2.053   0.511  1.4541 -0.2130 -1.2515
 4853TIP3   OH236049   5.248   1.101  14.662 -0.4103  0.7982  0.0850
 4853TIP3    H136050   5.206   1.070  14.742  1.6833 -1.6959  0.3641
 4853TIP3    H236051   5.268   1.193  14.679 -0.1189  0.3715  2.4204
 4854TIP3   OH236052   2.458   0.014  16.333 -0.4365 -0.0258 -0.2080
 4854TIP3    H136053   2.530  -0.015  16.278 -0.1511 -0.0739  0.1902
 4854TIP3    H236054   2.446  -0.057  16.397 -0.0335  0.5091  0.4826
 4855TIP3   OH236055   4.958   5.703   3.784  0.5637 -0.5466  0.3339
 4855TIP3    H136056   4.894   5.770   3.811 -1.4516 -1.7774 -1.1714
 4855TIP3    H236057   4.957   5.640   3.856 -0.3252 -0.8248  0.0859
 4856TIP3   OH236058   4.010   3.431  16.911  0.3245  0.6116  0.1020
 4856TIP3    H136059   3.996   3.524  16.898  1.5305  0.8892  0.6543
 4856TIP3    H236060   4.028   3.422  17.005 -0.7284 -0.3128  0.2452
 4857TIP3   OH236061   2.445   2.277  14.997 -0.2820 -0.3863  0.0591
 4857TIP3    H136062   2.462   2.338  15.069 -1.7902 -1.0384  1.0254
 4857TIP3    H236063   2.503   2.203  15.014 -0.4609 -0.4349  0.4831
 4858TIP3   OH236064   2.127   0.794   5.408 -0.4514  0.7722 -0.3278
 4858TIP3    H136065   2.052   0.797   5.348 -1.6932 -2.4129  0.8846
 4858TIP3    H236066   2.094   0.832   5.490 -1.3469 -1.9425  0.6683
 4859TIP3   OH236067   2.258   1.877  12.127  0.5281  0.0331  0.2355
 4859TIP3    H136068   2.239   1.969  12.149  0.9764  0.1550  0.1422
 4859TIP3    H236069   2.213   1.826  12.194 -1.0954  0.2424 -0.6613
 4860TIP3   OH236070   1.113   1.503  11.001 -0.3582 -0.5250 -0.0815
 4860TIP3    H136071   1.037   1.511  11.057 -0.8581 -0.5075 -0.7482
 4860TIP3    H236072   1.084   1.534  10.915  0.7355  0.6068 -0.0718
 4861TIP3   OH236073   3.356   3.505   4.700 -0.0950  0.4243  0.4285
 4861TIP3    H136074   3.369   3.421   4.655 -2.0003  0.1529  0.3021
 4861TIP3    H236075   3.284   3.489   4.761  0.2121  1.6960  1.1568
 4862TIP3   OH236076   0.805   6.309  15.063 -0.0441 -0.6755  0.2185
 4862TIP3    H136077   0.749   6.376  15.102  0.0042 -0.8858  0.6589
 4862TIP3    H236078   0.785   6.313  14.969  0.7651  0.6953  0.0809
 4863TIP3   OH236079   6.505   6.577   3.465 -0.4592  0.0563  0.4403
 4863TIP3    H136080   6.455   6.622   3.533 -1.0128  1.8176 -1.0577
 4863TIP3    H236081   6.501   6.635   3.389  1.4388 -1.1160 -0.6466
 4864TIP3   OH236082   6.444   5.379  15.622  0.1733  0.2081  0.0886
 4864TIP3    H136083   6.510   5.310  15.616  1.3645  1.2551  0.7305
 4864TIP3    H236084   6.491   5.460  15.603 -0.8352  1.0224  0.9000
 4865TIP3   OH236085   2.926   5.247   3.122  0.2069  0.0307 -0.6606
 4865TIP3    H136086   2.839   5.211   3.107  0.3292 -0.7939  0.4196
 4865TIP3    H236087   2.928   5.264   3.216  0.5543  1.8571 -0.9773
 4866TIP3   OH236088   0.740   5.290   3.784  0.5263 -0.2097 -0.1124
 4866TIP3    H136089   0.674   5.352   3.815  0.7420  0.5929 -1.2122
 4866TIP3    H236090   0.725   5.211   3.836 -1.1386  0.0430 -0.1712
 4867TIP3   OH236091   3.348   2.774  16.427  0.1792  0.0993  0.1309
 4867TIP3    H136092   3.302   2.814  16.500  0.4554  0.0881  0.3129
 4867TIP3    H236093   3.440   2.773  16.454  0.5973  2.0516 -1.0965
 4868TIP3   OH236094   3.152   2.762  11.267  0.0268 -0.1891 -0.5011
 4868TIP3    H136095   3.137   2.809  11.185  0.1623  0.7902  0.0197
 4868TIP3    H236096   3.130   2.826  11.335  1.2815 -0.5063  0.2278
 4869TIP3   OH236097   6.464   3.200  14.037  0.4901 -0.7604  0.1233
 4869TIP3    H136098   6.445   3.258  13.964 -0.0135  2.5190  2.6139
 4869TIP3    H236099   6.556   3.219  14.059 -0.4732  1.4878  2.7426
 4870TIP3   OH236100   1.330   4.780   2.347  0.2036  0.1638 -0.0923
 4870TIP3    H136101   1.315   4.863   2.392 -0.0708  0.1560 -0.1697
 4870TIP3    H236102   1.270   4.781   2.273 -1.7684 -1.2700  1.3895
 4871TIP3   OH236103   0.554   4.422   1.248 -0.4738 -0.5636 -0.1200
 4871TIP3    H136104   0.476   4.410   1.301  0.6030 -2.4936  1.1161
 4871TIP3    H236105   0.601   4.495   1.290 -3.2367  3.3762 -3.0619
 4872TIP3   OH236106   1.229   4.555   1.168 -0.0414  1.0461 -0.1297
 4872TIP3    H136107   1.230   4.647   1.140  0.4049  1.1084  0.0995
 4872TIP3    H236108   1.170   4.554   1.243 -0.6621  1.0062 -0.6037
 4873TIP3   OH236109   4.098   4.501   1.772  0.1456 -0.2977  0.8272
 4873TIP3    H136110   4.185   4.460   1.781 -0.3282 -1.6812 -0.4336
 4873TIP3    H236111   4.111   4.591   1.802  1.8956 -0.6124  1.1629
 4874TIP3   OH236112   5.004   0.782  16.635  0.3429 -0.5406  0.1614
 4874TIP3    H136113   4.938   0.848  16.654  0.0142 -0.6861 -0.4347
 4874TIP3    H236114   5.030   0.800  16.544 -0.3437 -1.7188 -0.2976
 4875TIP3   OH236115   1.633   5.439  13.337  0.2762  0.0693 -0.3409
 4875TIP3    H136116   1.630   5.346  13.356  1.4655 -0.1028 -0.9250
 4875TIP3    H236117   1.659   5.480  13.419  0.4089 -0.1770 -0.2600
 4876TIP3   OH236118   2.011   6.600   3.469  0.4067  0.2929 -0.2933
 4876TIP3    H136119   2.031   6.603   3.375  0.9405 -0.0349 -0.1943
 4876TIP3    H236120   1.919   6.577   3.473  0.7841 -1.4162 -0.7229
 4877TIP3   OH236121   0.395   2.879   3.393  0.5853 -0.0516  0.0162
 4877TIP3    H136122   0.344   2.947   3.349  0.2518  0.4108  1.0679
 4877TIP3    H236123   0.329   2.819   3.430  0.8814 -1.3971 -1.5269
 4878TIP3   OH236124   5.999   4.081  17.226 -0.3436 -0.0296 -0.0976
 4878TIP3    H136125   6.076   4.079  17.169 -0.9149 -1.9934 -0.8846
 4878TIP3    H236126   5.986   4.174  17.246  1.6438  0.4324 -0.7142
 4879TIP3   OH236127   1.165   2.809   6.044  0.0084  0.1978  0.5508
 4879TIP3    H136128   1.091   2.827   6.102  1.0423 -1.5965  2.5716
 4879TIP3    H236129   1.242   2.836   6.094  0.9685 -1.6974  0.1967
 4880TIP3   OH236130   2.053   5.921  11.855  0.4689 -0.3339  0.2894
 4880TIP3    H136131   2.012   5.837  11.873 -1.6847  0.4069 -0.7097
 4880TIP3    H236132   1.993   5.985  11.894  1.2365  0.7967 -0.3305
 4881TIP3   OH236133   3.972   4.909   5.490  0.0269  0.7259 -0.1635
 4881TIP3    H136134   3.958   4.990   5.441  0.3446  0.8863  0.0084
 4881TIP3    H236135   4.009   4.848   5.426 -1.0344  0.4303 -0.5169
 4882TIP3   OH236136   3.481   6.421  16.549 -0.2528 -0.3101 -0.1085
 4882TIP3    H136137   3.440   6.406  16.634 -1.0583  0.6054 -0.3097
 4882TIP3    H236138   3.540   6.347  16.537  0.9300  0.2515  1.8713
 4883TIP3   OH236139   0.668   1.028   3.438 -0.0872 -0.3143 -0.5826
 4883TIP3    H136140   0.616   1.101   3.470 -0.7083 -0.2199 -1.7696
 4883TIP3    H236141   0.753   1.067   3.418 -0.0168 -0.1761 -0.0391
 4884TIP3   OH236142   2.585   4.585   2.909 -0.4807 -0.5566 -0.0932
 4884TIP3    H136143   2.634   4.626   2.981 -2.0557  0.4402  0.4736
 4884TIP3    H236144   2.649   4.531   2.864  0.6699 -0.8445  1.7792
 4885TIP3   OH236145   5.465   5.698  15.966 -0.2486 -0.0978 -0.3824
 4885TIP3    H136146   5.379   5.727  15.996  0.1760  1.4686 -0.5915
 4885TIP3    H236147   5.472   5.732  15.877 -0.3142 -2.1931 -1.2542
 4886TIP3   OH236148   2.378   0.020  12.296  0.0405 -0.2179  0.3131
 4886TIP3    H136149   2.352  -0.057  12.346  0.8303 -1.0159 -0.4853
 4886TIP3    H236150   2.459  -0.005  12.252 -0.9335  0.2325 -1.8586
 4887TIP3   OH236151   1.057   4.855  13.536 -0.1416  0.4192  0.3622
 4887TIP3    H136152   1.033   4.914  13.464  1.1195  0.3936 -0.1079
 4887TIP3    H236153   1.153   4.857  13.537  0.0218 -2.3576 -0.3319
 4888TIP3   OH236154   1.029   3.617  12.825 -0.3014  0.2405 -0.4671
 4888TIP3    H136155   1.048   3.668  12.903  2.2374 -1.7177  0.3117
 4888TIP3    H236156   0.943   3.648  12.796 -1.2722  1.1229  2.9941
 4889TIP3   OH236157   2.251   2.460   3.413  0.0787 -0.0909  0.0803
 4889TIP3    H136158   2.251   2.387   3.475 -0.6623 -0.9666 -0.8972
 4889TIP3    H236159   2.337   2.454   3.370 -1.0128 -2.2872 -2.0473
 4890TIP3   OH236160   1.403   2.254  12.783 -0.8644  0.2583 -0.0704
 4890TIP3    H136161   1.433   2.316  12.850 -0.4909 -0.5536  0.5240
 4890TIP3    H236162   1.476   2.247  12.722 -1.6367  1.9162 -1.2682
 4891TIP3   OH236163   2.982   4.747   3.239 -0.4473 -0.0364  0.4756
 4891TIP3    H136164   3.069   4.755   3.201 -0.1363  0.1945  1.2329
 4891TIP3    H236165   2.987   4.670   3.296 -0.3451  0.7613  1.5636
 4892TIP3   OH236166   0.745   2.059  16.337 -0.3062 -0.5168 -0.2021
 4892TIP3    H136167   0.783   1.976  16.307 -1.3208 -1.2242  0.4371
 4892TIP3    H236168   0.667   2.071  16.284  0.6173  0.8282 -1.3533
 4893TIP3   OH236169   1.592   0.303   0.399 -0.1097 -0.5713 -0.6687
 4893TIP3    H136170   1.624   0.391   0.419  1.5359 -1.2634 -0.0672
 4893TIP3    H236171   1.505   0.317   0.362 -0.3982  1.2317  0.5433
 4894TIP3   OH236172   4.867   2.083   6.553  0.2196 -0.3416 -0.6043
 4894TIP3    H136173   4.917   2.001   6.555  1.2500  0.2703  1.7343
 4894TIP3    H236174   4.898   2.132   6.629 -1.7081  1.4458 -0.8897
 4895TIP3   OH236175   5.391   1.448   2.796 -0.6144 -0.1234 -0.5104
 4895TIP3    H136176   5.326   1.502   2.751 -0.2988  0.0950 -0.7043
 4895TIP3    H236177   5.339   1.394   2.856 -0.9382  0.4178 -0.2870
 4896TIP3   OH236178   6.265   4.197  11.601  0.5002  0.1782  0.5749
 4896TIP3    H136179   6.334   4.254  11.567 -0.2046  1.1669  0.7659
 4896TIP3    H236180   6.184   4.235  11.569 -0.0737  0.1460  1.9105
 4897TIP3   OH236181   6.498   2.280   1.725 -0.2623  0.2181  0.1811
 4897TIP3    H136182   6.448   2.245   1.651 -0.5123  0.9841 -0.0202
 4897TIP3    H236183   6.432   2.293   1.794  0.4057 -3.5363  1.7565
 4898TIP3   OH236184   1.042   5.428  14.352 -0.0888 -0.1095  0.0338
 4898TIP3    H136185   1.009   5.462  14.268 -0.1407 -0.8879 -0.2731
 4898TIP3    H236186   0.974   5.449  14.415  0.0722  0.7311 -0.0619
 4899TIP3   OH236187   1.323   6.487   1.077 -0.1468 -0.6124 -0.6057
 4899TIP3    H136188   1.242   6.459   1.121 -0.2959 -0.1564 -0.5801
 4899TIP3    H236189   1.392   6.440   1.123  0.1536  2.7010  2.8622
 4900TIP3   OH236190   3.949   0.646   0.333 -0.3532  0.3285  0.1398
 4900TIP3    H136191   3.884   0.630   0.263  1.3649  4.2085 -2.7305
 4900TIP3    H236192   3.906   0.710   0.390 -1.0642 -1.4817  1.7414
 4901TIP3   OH236193   4.152   3.850  13.255  0.5405 -0.4874  0.1041
 4901TIP3    H136194   4.103   3.930  13.237  0.5664 -0.1640  1.4072
 4901TIP3    H236195   4.087   3.780  13.248  0.3022 -0.2571 -0.0367
 4902TIP3   OH236196   0.074   5.465   1.975  0.7040 -0.2538 -0.2729
 4902TIP3    H136197   0.145   5.479   2.037 -0.8547  1.9216  1.1588
 4902TIP3    H236198   0.017   5.402   2.018 -0.1375  0.9040  0.3758
 4903TIP3   OH236199   3.159   1.619   0.697 -0.4019 -0.0353 -0.1178
 4903TIP3    H136200   3.143   1.644   0.788  0.4659  2.0340 -0.4710
 4903TIP3    H236201   3.124   1.692   0.646 -2.1822 -1.7841 -1.5822
 4904TIP3   OH236202   5.256   1.698   2.125 -0.3397 -0.0232 -0.4983
 4904TIP3    H136203   5.196   1.764   2.090 -0.4048  0.6013  0.7397
 4904TIP3    H236204   5.200   1.638   2.173 -0.0104  0.5761  0.6856
 4905TIP3   OH236205   4.031   6.727  16.380  0.1627  0.1985  0.2524
 4905TIP3    H136206   3.973   6.781  16.435  0.0215  1.7105 -1.2836
 4905TIP3    H236207   3.974   6.694  16.311  0.5510 -0.8342  0.4064
 4906TIP3   OH236208   1.691   6.414   1.605  0.4165  0.5978 -0.3321
 4906TIP3    H136209   1.750   6.415   1.681 -0.9028  0.0172  0.7535
 4906TIP3    H236210   1.606   6.437   1.642 -0.7677 -2.1440 -1.1410
 4907TIP3   OH236211   4.339   2.531  17.577  0.1052 -0.2025 -0.1088
 4907TIP3    H136212   4.357   2.468  17.647 -0.0671 -1.0470 -0.8053
 4907TIP3    H236213   4.400   2.508  17.507 -1.2651 -0.8581 -1.1293
 4908TIP3   OH236214   0.356   6.255   2.772 -0.2137 -0.0864 -0.4391
 4908TIP3    H136215   0.393   6.339   2.796  0.3687 -0.7424  1.0742
 4908TIP3    H236216   0.264   6.261   2.797 -0.1631  0.0863 -0.2999
 4909TIP3   OH236217   3.332   6.712  13.895 -0.4191  0.2127 -0.1382
 4909TIP3    H136218   3.241   6.726  13.923 -0.0742 -0.4565  1.4530
 4909TIP3    H236219   3.337   6.618  13.875  0.0471  0.1258  0.3497
 4910TIP3   OH236220   2.761   3.114  14.953 -0.3468  0.0760 -0.2377
 4910TIP3    H136221   2.734   3.182  14.890 -1.9667 -1.7326 -1.6321
 4910TIP3    H236222   2.856   3.125  14.960 -0.3255  1.3686 -1.7927
 4911TIP3   OH236223   2.911   2.355   1.812 -0.1913  0.2634 -0.4877
 4911TIP3    H136224   3.000   2.328   1.833 -0.1074  1.0886  0.2896
 4911TIP3    H236225   2.857   2.280   1.837  0.1476  0.3364  0.5046
 4912TIP3   OH236226   0.182   6.572   6.303  0.2879  0.1619  0.4206
 4912TIP3    H136227   0.133   6.489   6.307  1.7418 -0.7333  0.3921
 4912TIP3    H236228   0.162   6.615   6.386 -1.3812  0.3509 -0.0288
 4913TIP3   OH236229   6.212   5.927   2.762 -0.7954  0.3090  0.4476
 4913TIP3    H136230   6.171   6.009   2.735 -0.3024  0.4273  0.0328
 4913TIP3    H236231   6.289   5.954   2.813 -0.4156  0.1255 -0.0106
 4914TIP3   OH236232   5.794   6.267  15.135 -0.5862  0.4077  0.2645
 4914TIP3    H136233   5.775   6.278  15.042 -1.4647  0.8602  0.4816
 4914TIP3    H236234   5.878   6.221  15.137 -0.5700  0.3604 -0.7461
 4915TIP3   OH236235   1.261   3.271  17.389 -0.1394 -0.3157  0.0576
 4915TIP3    H136236   1.185   3.215  17.378  0.3348 -1.3535  1.6878
 4915TIP3    H236237   1.245   3.317  17.472  1.1479 -0.8262  0.6124
 4916TIP3   OH236238   0.117   4.173   3.573  0.1389  0.5046  0.1855
 4916TIP3    H136239   0.117   4.267   3.554  0.5159  0.6149  0.7233
 4916TIP3    H236240   0.026   4.152   3.591 -0.1283  0.5412 -1.0034
 4917TIP3   OH236241   1.633   1.775   3.029 -0.4048 -0.3105 -0.2661
 4917TIP3    H136242   1.675   1.860   3.031 -0.9619  0.1212 -3.0419
 4917TIP3    H236243   1.704   1.712   3.039  0.2191  0.4605  0.1978
 4918TIP3   OH236244   6.125   2.827   0.729  0.2640  0.2938  0.4170
 4918TIP3    H136245   6.031   2.845   0.735  0.2739  0.6192 -0.2370
 4918TIP3    H236246   6.166   2.913   0.742  0.4129  0.3661 -0.4350
 4919TIP3   OH236247   1.734   0.697  13.488 -0.0611 -0.5031  0.1007
 4919TIP3    H136248   1.789   0.772  13.508  1.1106 -0.6246 -2.3598
 4919TIP3    H236249   1.692   0.718  13.405  1.0473 -2.8728 -1.1769
 4920TIP3   OH236250   3.508   6.302   6.291  0.2580  0.5631 -0.2540
 4920TIP3    H136251   3.456   6.249   6.351 -0.7433  0.9136 -0.7935
 4920TIP3    H236252   3.471   6.390   6.299 -0.3031  0.4974 -1.8140
 4921TIP3   OH236253   4.738   0.205  13.884 -0.1375 -0.3097  0.3039
 4921TIP3    H136254   4.746   0.110  13.883 -1.0629 -0.4115  0.8356
 4921TIP3    H236255   4.827   0.237  13.899  0.8015 -0.9380 -3.1938
 4922TIP3   OH236256   6.402   5.250  12.498 -0.0210  0.0723  0.5208
 4922TIP3    H136257   6.408   5.338  12.537  0.1119 -0.6732  2.2621
 4922TIP3    H236258   6.360   5.265  12.414  1.5372  2.0138  0.0150
 4923TIP3   OH236259   6.704   3.000  14.248  0.7366  0.0451 -0.3816
 4923TIP3    H136260   6.611   3.006  14.224  0.2744  1.1600  1.4894
 4923TIP3    H236261   6.714   2.910  14.280 -0.0803  0.3286  0.7412
 4924TIP3   OH236262   5.205   5.782  16.060 -0.1158 -0.2168  0.0669
 4924TIP3    H136263   5.193   5.867  16.018  0.1999 -0.6047 -0.8436
 4924TIP3    H236264   5.159   5.720  16.003  3.0423 -1.2317 -1.6351
 4925TIP3   OH236265   5.891   2.463   1.500 -0.2083  0.1938  0.3676
 4925TIP3    H136266   5.816   2.414   1.532 -0.4267  0.8105  0.8190
 4925TIP3    H236267   5.898   2.538   1.559  1.7601 -0.6928  1.3738
 4926TIP3   OH236268   4.416   3.150   2.908 -0.4540  0.0772  0.2836
 4926TIP3    H136269   4.342   3.118   2.856 -0.3960 -0.0669  0.2882
 4926TIP3    H236270   4.486   3.162   2.844  0.9781 -4.0912  0.8065
 4927TIP3   OH236271   5.189   3.961   6.078 -0.1915 -0.2071 -0.3593
 4927TIP3    H136272   5.195   4.051   6.112  0.1175 -0.5400  0.5075
 4927TIP3    H236273   5.171   3.972   5.985 -1.3842  0.7571 -0.0557
 4928TIP3   OH236274   3.631   5.138  11.145  0.1814  0.7088  0.0136
 4928TIP3    H136275   3.543   5.143  11.109  0.3294 -0.2865 -0.5247
 4928TIP3    H236276   3.620   5.093  11.229  0.4048 -1.4327 -1.0398
 4929TIP3   OH236277   6.640   0.726  16.283  0.1031 -0.0697 -0.1182
 4929TIP3    H136278   6.624   0.818  16.263 -0.9213 -0.3360 -0.6085
 4929TIP3    H236279   6.604   0.715  16.371  0.0805 -0.0324 -0.1226
 4930TIP3   OH236280   1.924   2.322   4.727 -0.3182 -0.0891  0.4112
 4930TIP3    H136281   1.981   2.324   4.803  0.3713  1.4521 -0.1057
 4930TIP3    H236282   1.913   2.414   4.702 -2.0566 -0.4235 -0.2302
 4931TIP3   OH236283   1.464   2.836  11.981  0.1031 -0.5882 -0.3386
 4931TIP3    H136284   1.450   2.881  12.064  0.3534  1.0280 -1.1305
 4931TIP3    H236285   1.411   2.757  11.987 -0.2601 -0.2558  1.1619
 4932TIP3   OH236286   3.782   3.427   4.592  1.0965 -0.3212  0.4881
 4932TIP3    H136287   3.714   3.369   4.555  1.4297 -1.2008  1.2163
 4932TIP3    H236288   3.733   3.497   4.635  0.6795 -0.2397 -0.0978
 4933TIP3   OH236289   3.473   4.363   1.927  0.6684  0.0805 -0.2244
 4933TIP3    H136290   3.548   4.401   1.972  0.3763 -0.2787  0.5798
 4933TIP3    H236291   3.410   4.344   1.997  0.1514 -0.3551 -0.8008
 4934TIP3   OH236292   0.323   0.924   1.414 -0.3182  0.4818  0.1949
 4934TIP3    H136293   0.259   0.894   1.349  2.5836 -2.3335 -1.6412
 4934TIP3    H236294   0.370   0.995   1.371  1.1831 -0.9602 -0.6270
 4935TIP3   OH236295   0.224   0.941   5.856 -0.2185 -0.2335  0.2175
 4935TIP3    H136296   0.284   1.015   5.867  1.5656 -1.3616 -1.3417
 4935TIP3    H236297   0.167   0.945   5.933  1.0640  1.6084  1.1536
 4936TIP3   OH236298   5.122   4.141   3.846 -0.1436  0.0250 -0.0900
 4936TIP3    H136299   5.148   4.061   3.800 -0.3368  0.5117 -1.0584
 4936TIP3    H236300   5.107   4.112   3.936  0.3854 -0.9143 -0.2828
 4937TIP3   OH236301   6.063   5.920  11.661 -0.1581  0.1492  0.1775
 4937TIP3    H136302   6.046   6.012  11.638 -0.5940 -0.0063 -0.1383
 4937TIP3    H236303   6.025   5.870  11.588  0.7306 -0.2524 -0.0155
 4938TIP3   OH236304   3.484   2.019   5.210  0.3274  0.3618 -0.6158
 4938TIP3    H136305   3.405   2.031   5.263 -0.0731  0.7075 -1.2734
 4938TIP3    H236306   3.455   2.034   5.120  1.0019 -0.1672 -0.9353
 4939TIP3   OH236307   3.086   1.481   5.577  0.9640  0.5241  0.0821
 4939TIP3    H136308   3.067   1.572   5.556 -0.0388  0.2914 -0.0625
 4939TIP3    H236309   3.160   1.485   5.638  0.8218  1.4330  0.2024
 4940TIP3   OH236310   5.339   5.397  13.793 -0.3780 -0.4918  0.1334
 4940TIP3    H136311   5.360   5.310  13.828 -2.3028 -1.2399 -0.4069
 4940TIP3    H236312   5.291   5.440  13.863  2.3908  1.0536  1.2250
 4941TIP3   OH236313   5.233   5.436   0.972 -0.2125  0.3846 -0.0706
 4941TIP3    H136314   5.232   5.380   1.049 -1.3132  2.3934  1.4906
 4941TIP3    H236315   5.272   5.518   1.002  0.6121  0.7752 -2.0325
 4942TIP3   OH236316   0.355   2.184  12.976 -0.5002 -0.2395  0.0662
 4942TIP3    H136317   0.353   2.174  13.071  2.1589  0.9720  0.3589
 4942TIP3    H236318   0.280   2.240  12.956 -0.1863  0.8633  1.7074
 4943TIP3   OH236319   6.381   2.164  13.065  0.1541  0.3518 -0.0332
 4943TIP3    H136320   6.301   2.169  13.118  0.9648 -1.7957  1.5473
 4943TIP3    H236321   6.364   2.094  13.002  0.7433 -0.0778  0.2756
 4944TIP3   OH236322   1.743   1.986  13.103 -0.3395 -0.1293  0.6178
 4944TIP3    H136323   1.783   2.072  13.089  1.1555 -0.9762 -0.5231
 4944TIP3    H236324   1.750   1.971  13.197  1.5820 -0.0282  0.5180
 4945TIP3   OH236325   3.375   3.651  12.520  0.1209 -0.4558 -0.5039
 4945TIP3    H136326   3.408   3.666  12.608 -1.0557 -4.3126  0.7882
 4945TIP3    H236327   3.331   3.567  12.525 -1.6551  0.0369 -4.3794
 4946TIP3   OH236328   6.359   4.002   1.340  0.9623 -0.0830 -0.4137
 4946TIP3    H136329   6.422   4.015   1.411 -0.0634 -1.6723  0.8699
 4946TIP3    H236330   6.403   3.942   1.280  1.6700  0.9254 -0.9195
 4947TIP3   OH236331   3.392   4.694   1.224  0.0581  0.8065  0.1535
 4947TIP3    H136332   3.385   4.713   1.131  0.9148  2.3339  0.3581
 4947TIP3    H236333   3.439   4.769   1.260  1.7963 -0.8110  1.4482
 4948TIP3   OH236334   0.980   2.359   1.494  0.7503  0.3608 -0.2217
 4948TIP3    H136335   1.012   2.275   1.527 -0.0542  0.3259  0.4847
 4948TIP3    H236336   0.915   2.387   1.558 -0.5241  0.5091 -1.5424
 4949TIP3   OH236337   1.721   0.911   3.590 -0.4982  0.5088 -0.0962
 4949TIP3    H136338   1.655   0.879   3.653  0.4829  1.6109  1.5717
 4949TIP3    H236339   1.718   0.848   3.519  0.2989 -2.5136  2.3179
 4950TIP3   OH236340   2.090   3.339   3.011 -0.0816  0.0084  0.5484
 4950TIP3    H136341   2.120   3.321   3.100  1.3120  1.1568  0.3333
 4950TIP3    H236342   2.100   3.434   3.000  0.1838 -0.1649 -0.9851
 4951TIP3   OH236343   1.405   3.358   0.607 -0.4099 -0.7503 -0.3563
 4951TIP3    H136344   1.439   3.436   0.651  1.6581 -1.3701 -0.7336
 4951TIP3    H236345   1.314   3.351   0.637  0.1935  0.2084  1.9059
 4952TIP3   OH236346   2.511   6.503   6.427  0.7459  0.0266  0.8817
 4952TIP3    H136347   2.427   6.532   6.463 -1.2164 -4.4543  0.6870
 4952TIP3    H236348   2.507   6.525   6.334  0.2897  0.8120  1.0824
 4953TIP3   OH236349   5.020   1.630  16.564  0.5078 -0.5988 -0.1589
 4953TIP3    H136350   5.097   1.678  16.595  0.9034 -1.4532  0.2140
 4953TIP3    H236351   4.997   1.673  16.481  2.7494 -1.6926 -1.4627
 4954TIP3   OH236352   3.928   5.944  11.799 -0.3629 -0.0135 -0.5411
 4954TIP3    H136353   4.023   5.944  11.811 -0.5864 -1.1566  1.8337
 4954TIP3    H236354   3.915   5.928  11.706  1.7571 -0.3581 -0.8231
 4955TIP3   OH236355   6.738   4.376   0.561  0.4499  0.2268 -0.5516
 4955TIP3    H136356   6.645   4.355   0.571  0.3039  1.5457  1.3168
 4955TIP3    H236357   6.759   4.346   0.473 -1.4910 -1.0061 -0.6747
 4956TIP3   OH236358   6.327   5.542  11.266  0.0863  0.0757 -0.1092
 4956TIP3    H136359   6.291   5.495  11.191  0.7142 -0.4556 -0.0885
 4956TIP3    H236360   6.381   5.611  11.228 -1.2469  1.1283 -0.1425
 4957TIP3   OH236361   4.116   0.797   0.530 -0.0547  0.3682  0.6647
 4957TIP3    H136362   4.139   0.709   0.559  0.4770  0.8183  1.6688
 4957TIP3    H236363   4.021   0.796   0.522 -0.0200 -0.4037  0.2915
 4958TIP3   OH236364   2.399   5.968  11.129  0.4630 -0.2226 -0.5707
 4958TIP3    H136365   2.420   5.976  11.036  1.2993  3.1626 -0.2247
 4958TIP3    H236366   2.307   5.991  11.135  0.4839 -0.1488 -0.5335
 4959TIP3   OH236367   3.260   3.889   2.229 -0.1827 -0.7335  0.2300
 4959TIP3    H136368   3.234   3.968   2.182 -0.9575 -2.1826 -1.9422
 4959TIP3    H236369   3.288   3.828   2.160 -0.2333 -2.5863  1.7555
 4960TIP3   OH236370   5.454   3.069  10.898  0.2138 -0.0875  0.4358
 4960TIP3    H136371   5.407   3.140  10.854 -0.0289 -0.7062 -0.3188
 4960TIP3    H236372   5.533   3.057  10.846 -0.7424 -1.7808 -0.7382
 4961TIP3   OH236373   3.517   4.077  12.200  0.2565  0.3674 -0.0377
 4961TIP3    H136374   3.480   4.058  12.286  0.7475  0.3967  0.1877
 4961TIP3    H236375   3.609   4.097  12.218  0.4038  0.2002 -0.5918
 4962TIP3   OH236376   6.458   1.054  15.755 -0.3477 -0.2835 -0.1141
 4962TIP3    H136377   6.545   1.015  15.744  0.0352  0.0590  1.3985
 4962TIP3    H236378   6.427   1.019  15.839 -0.4144  1.8522  0.8094
 4963TIP3   OH236379   0.705   3.724  16.066 -0.3867 -0.0949 -0.9460
 4963TIP3    H136380   0.759   3.677  16.129  1.4579  0.5557 -1.9791
 4963TIP3    H236381   0.695   3.812  16.104 -0.1765 -0.0237 -1.0550
 4964TIP3   OH236382   5.158   4.833  16.575  0.2829  0.1304  0.0275
 4964TIP3    H136383   5.172   4.838  16.670  0.5748 -1.1662  0.0728
 4964TIP3    H236384   5.246   4.841  16.538  0.0360  2.0977 -0.2407
 4965TIP3   OH236385   3.471   3.325   1.812  0.5885 -0.0346 -0.2955
 4965TIP3    H136386   3.566   3.330   1.814  0.5689  1.0174 -1.1450
 4965TIP3    H236387   3.442   3.416   1.810 -0.4167 -0.3474 -0.6926
 4966TIP3   OH236388   1.950   1.571  11.604  0.5390  0.0434 -0.2780
 4966TIP3    H136389   1.991   1.490  11.635  0.3065  0.0318 -0.0002
 4966TIP3    H236390   1.899   1.543  11.527  0.0019 -0.1809  0.1559
 4967TIP3   OH236391   5.604   3.659  11.565 -0.1347  0.6920 -0.0132
 4967TIP3    H136392   5.556   3.584  11.599  0.4332 -0.4487 -1.6005
 4967TIP3    H236393   5.615   3.717  11.640  1.5082 -1.8945  1.8892
 4968TIP3   OH236394   6.110   1.984  15.591  0.6237 -0.3735  0.1409
 4968TIP3    H136395   6.149   1.896  15.596 -1.0557 -1.2934 -1.4076
 4968TIP3    H236396   6.125   2.022  15.677  0.8763 -2.4325  1.0716
 4969TIP3   OH236397   4.313   6.596  15.409  0.0872 -0.0857 -0.4070
 4969TIP3    H136398   4.301   6.560  15.320 -0.9340  0.2638 -0.4287
 4969TIP3    H236399   4.255   6.672  15.412 -0.3963 -0.4729  0.7715
 4970TIP3   OH236400   0.576   5.108   6.123 -0.2033 -0.0420  0.0896
 4970TIP3    H136401   0.516   5.062   6.182 -1.4538  0.8543 -0.4481
 4970TIP3    H236402   0.519   5.158   6.065  1.0834  1.1549 -0.1926
 4971TIP3   OH236403   1.361   3.832  12.870 -0.2552  0.2018 -0.2453
 4971TIP3    H136404   1.422   3.895  12.909 -0.6411  0.1078  0.5388
 4971TIP3    H236405   1.348   3.863  12.781 -0.5340  1.3271  0.1606
 4972TIP3   OH236406   6.299   0.250   3.830 -0.5909 -0.3375  0.1725
 4972TIP3    H136407   6.257   0.232   3.746 -2.8474 -0.6792  1.2794
 4972TIP3    H236408   6.307   0.346   3.833 -3.4342 -0.0450  0.8012
 4973TIP3   OH236409   1.886   1.648   3.092 -0.0262  0.4531  0.3559
 4973TIP3    H136410   1.946   1.602   3.151 -1.3263  2.2221  3.2433
 4973TIP3    H236411   1.883   1.592   3.014  2.1631 -1.7896  1.7131
 4974TIP3   OH236412   5.236   3.745   0.011 -0.1696  0.1372  0.1372
 4974TIP3    H136413   5.328   3.726   0.031  0.4494  1.6732 -1.0595
 4974TIP3    H236414   5.239   3.798  -0.069 -1.9008  2.6017  1.5627
 4975TIP3   OH236415   6.215   3.862   2.760  0.5856  0.4622 -0.3858
 4975TIP3    H136416   6.226   3.873   2.854 -0.8675  0.6129 -0.2137
 4975TIP3    H236417   6.301   3.883   2.723  0.9074  1.3476  0.8178
 4976TIP3   OH236418   3.449   2.661   6.163 -0.1657  0.6612 -0.6827
 4976TIP3    H136419   3.432   2.607   6.086 -1.6669  0.2843 -0.1419
 4976TIP3    H236420   3.536   2.634   6.193 -0.3871 -0.6270 -1.1145
 4977TIP3   OH236421   5.168   5.150   2.993  0.4841  0.8556  0.4536
 4977TIP3    H136422   5.157   5.215   2.923  0.8409  0.6475  0.1999
 4977TIP3    H236423   5.099   5.171   3.056  2.2729  3.2178  1.7640
 4978TIP3   OH236424   6.587   5.093   1.258 -0.2110 -0.1307  0.6569
 4978TIP3    H136425   6.606   5.170   1.204  1.3071 -1.1073 -0.2681
 4978TIP3    H236426   6.501   5.064   1.230 -0.0596  0.2464 -0.2115
 4979TIP3   OH236427   5.830   3.237  14.776  0.1607 -0.3501 -0.4409
 4979TIP3    H136428   5.863   3.325  14.793  0.1939 -0.5624  0.7149
 4979TIP3    H236429   5.736   3.248  14.764 -0.3438 -0.4218  2.5627
 4980TIP3   OH236430   2.686   3.745   6.178  0.7308  0.3036  0.0868
 4980TIP3    H136431   2.772   3.722   6.213  1.3141  1.7513 -0.3181
 4980TIP3    H236432   2.659   3.668   6.127  0.7769 -1.0317  1.9755
 4981TIP3   OH236433   3.016   1.730  14.045 -0.3327  0.1460 -0.0754
 4981TIP3    H136434   3.028   1.682  14.127 -0.6542 -0.5094 -0.4000
 4981TIP3    H236435   3.019   1.822  14.071  0.5375 -0.0350  0.5253
 4982TIP3   OH236436   5.807   3.193  15.406 -1.1340 -0.1313 -0.1805
 4982TIP3    H136437   5.896   3.182  15.440 -1.7587  0.8066  1.9289
 4982TIP3    H236438   5.801   3.286  15.384 -2.0580  0.1863  1.2716
 4983TIP3   OH236439   0.811   1.913  15.788  0.0930 -0.0789 -0.3766
 4983TIP3    H136440   0.821   2.009  15.790 -1.1512  0.0661 -0.5518
 4983TIP3    H236441   0.778   1.895  15.700 -1.2241 -0.4989  0.1893
 4984TIP3   OH236442   0.047   1.968   1.192  0.6136 -0.1990 -0.0941
 4984TIP3    H136443   0.022   1.924   1.111 -1.4889 -0.6250  0.7083
 4984TIP3    H236444   0.014   2.057   1.183 -0.3606 -0.4734  0.5806
 4985TIP3   OH236445   1.687   0.214   2.685 -0.3478  0.3421 -0.4937
 4985TIP3    H136446   1.746   0.227   2.611  0.0836  1.0031 -0.0504
 4985TIP3    H236447   1.707   0.125   2.716  0.2697  0.4775 -0.4824
 4986TIP3   OH236448   1.872   2.554   2.190 -0.0257 -0.4179 -0.7320
 4986TIP3    H136449   1.893   2.636   2.147 -1.2011  0.6249  0.5740
 4986TIP3    H236450   1.822   2.505   2.124 -0.2394  0.3661 -1.1641
 4987TIP3   OH236451   1.182   5.246  13.110  0.2904 -0.5253  0.3007
 4987TIP3    H136452   1.183   5.167  13.056 -2.3291  0.4659 -1.3946
 4987TIP3    H236453   1.191   5.318  13.048 -2.6646  0.6689  1.0968
 4988TIP3   OH236454   3.636   5.510   4.902 -0.0968  0.1583  0.0549
 4988TIP3    H136455   3.617   5.589   4.852 -0.7572 -0.5834 -0.8918
 4988TIP3    H236456   3.597   5.526   4.988 -0.9340  0.5291 -0.3873
 4989TIP3   OH236457   3.595   4.996  15.886  0.1052  0.4019  0.4537
 4989TIP3    H136458   3.669   5.005  15.946  0.8118  1.9654 -0.6065
 4989TIP3    H236459   3.521   5.031  15.935  0.0171 -1.2112  1.5374
 4990TIP3   OH236460   5.015   0.707  11.256 -0.1839 -0.0330 -0.0903
 4990TIP3    H136461   4.921   0.698  11.272 -0.4986  1.0711 -1.1838
 4990TIP3    H236462   5.042   0.621  11.225 -0.4278 -0.9166  2.0384
 4991TIP3   OH236463   0.070   1.914  14.419  0.0930  0.6009  0.6679
 4991TIP3    H136464   0.059   1.981  14.352 -1.1360 -0.2725 -0.0408
 4991TIP3    H236465   0.065   1.831  14.371 -1.2368 -0.0526  1.8848
 4992TIP3   OH236466   0.250   4.294  14.184 -0.0182  0.1997  0.2951
 4992TIP3    H136467   0.322   4.268  14.240  0.1451  0.6150  0.2766
 4992TIP3    H236468   0.173   4.251  14.222  0.4993 -1.7826 -0.7374
 4993TIP3   OH236469   6.492   0.007  13.112  0.0642  0.3141 -0.1854
 4993TIP3    H136470   6.444  -0.003  13.030  1.4880 -0.5959 -0.9323
 4993TIP3    H236471   6.439  -0.040  13.176 -1.1180  1.1177 -0.5358
 4994TIP3   OH236472   1.300   2.903  16.645 -0.1817 -0.0791 -0.4851
 4994TIP3    H136473   1.251   2.978  16.679 -2.0690 -0.9405 -1.1817
 4994TIP3    H236474   1.258   2.883  16.562  0.7067 -1.5296 -0.6047
 4995TIP3   OH236475   6.230   0.595  11.224  0.6928 -0.0464  0.1966
 4995TIP3    H136476   6.289   0.546  11.281 -0.4750 -2.4057 -0.4987
 4995TIP3    H236477   6.278   0.604  11.141  0.9249  0.0430  0.3392
 4996TIP3   OH236478   6.514   0.378  17.496  0.6692  0.0628  0.2634
 4996TIP3    H136479   6.527   0.296  17.544 -0.5982 -0.1536  0.2893
 4996TIP3    H236480   6.531   0.355  17.405  3.1112  0.4800  0.5432
 4997TIP3   OH236481   5.651   3.490   4.210  0.0579  0.1655  0.4741
 4997TIP3    H136482   5.724   3.429   4.222  0.5680  0.7798  0.5714
 4997TIP3    H236483   5.573   3.437   4.224  0.4831 -0.5275  0.2737
 4998TIP3   OH236484   0.782   3.198  16.478 -0.6866  0.0978  0.6817
 4998TIP3    H136485   0.825   3.265  16.425 -0.7931 -0.7718 -0.5481
 4998TIP3    H236486   0.774   3.123  16.420 -0.0021 -1.2115  2.2165
 4999TIP3   OH236487   1.570   4.944   6.216 -0.7831 -0.1521  0.7571
 4999TIP3    H136488   1.542   4.905   6.299 -0.5661 -0.1096  0.8520
 4999TIP3    H236489   1.665   4.933   6.215 -0.9219 -1.4835 -0.1690
 5000TIP3   OH236490   6.415   1.486   5.530  0.0364 -0.1081 -0.1616
 5000TIP3    H136491   6.446   1.538   5.456 -2.3806  0.2623 -0.9970
 5000TIP3    H236492   6.414   1.396   5.498  1.1283 -0.2738  0.2143
 5001TIP3   OH236493   2.831   1.076  13.560 -0.0134  0.5465 -0.2095
 5001TIP3    H136494   2.918   1.106  13.535  0.0988 -0.3636 -0.9547
 5001TIP3    H236495   2.840   0.982  13.571 -0.5560  0.6366  1.2491
 5002TIP3   OH236496   1.653   2.826   6.017 -0.0138  0.8107  0.4807
 5002TIP3    H136497   1.612   2.904   6.052  0.2743  0.9049  0.6138
 5002TIP3    H236498   1.672   2.847   5.926 -0.4086  0.7066  0.3724
 5003TIP3   OH236499   2.491   4.011   3.189 -0.2682 -0.3573 -0.2197
 5003TIP3    H136500   2.473   3.918   3.172 -0.4198 -0.4664  0.4834
 5003TIP3    H236501   2.581   4.012   3.221 -0.4186 -0.3253  0.2141
 5004TIP3   OH236502   0.684   5.854  13.830 -0.2360 -0.7752  0.1628
 5004TIP3    H136503   0.608   5.844  13.888 -1.0656  2.7017 -0.1129
 5004TIP3    H236504   0.752   5.801  13.872 -1.7168 -0.9521  2.5645
 5005TIP3   OH236505   2.582   1.657  15.088 -0.2178  0.8286 -0.3533
 5005TIP3    H136506   2.652   1.710  15.127  0.3476  0.6991 -1.1791
 5005TIP3    H236507   2.537   1.618  15.163  1.2423  0.0835  0.1578
 5006TIP3   OH236508   5.053   3.270  16.016 -0.1362 -0.3783  0.6157
 5006TIP3    H136509   5.072   3.177  16.000 -1.4484 -0.6776  0.6777
 5006TIP3    H236510   4.959   3.278  16.001  0.0102  1.0175  0.3199
 5007TIP3   OH236511   0.509   2.976   3.732  0.6578  0.3211  0.2307
 5007TIP3    H136512   0.550   3.054   3.695  0.6413 -0.3864 -1.3243
 5007TIP3    H236513   0.516   2.988   3.827  2.0513  1.4687  0.0034
 5008TIP3   OH236514   5.793   1.892   3.800  0.2588 -0.2403  0.1977
 5008TIP3    H136515   5.718   1.930   3.844  0.5176 -0.0298  0.4582
 5008TIP3    H236516   5.865   1.953   3.816  0.2924 -0.0102 -0.7613
 5009TIP3   OH236517   1.947   2.747   5.372 -0.6961  0.2609 -0.5577
 5009TIP3    H136518   1.913   2.820   5.424 -2.9623 -0.3495 -1.0577
 5009TIP3    H236519   2.024   2.782   5.328 -0.7408  1.8235  0.5195
 5010TIP3   OH236520   4.075   5.758  15.128  0.5607 -0.5010 -0.0841
 5010TIP3    H136521   4.100   5.805  15.048 -0.2185  0.1480  0.0317
 5010TIP3    H236522   4.065   5.828  15.193  0.5314 -0.9568  0.3993
 5011TIP3   OH236523   4.736   0.250   5.849 -0.0226 -0.2936 -0.2231
 5011TIP3    H136524   4.775   0.277   5.766 -0.2384 -1.4994 -0.7374
 5011TIP3    H236525   4.720   0.156   5.839 -2.4508  0.0274  0.2111
 5012TIP3   OH236526   3.508   6.418   0.637 -0.3116  0.0714  0.2080
 5012TIP3    H136527   3.503   6.342   0.695  1.2418 -0.2875 -0.0972
 5012TIP3    H236528   3.551   6.486   0.689  0.9230 -0.1916 -0.4343
 5013TIP3   OH236529   1.555   4.420  14.969  0.2799  0.2413 -0.3354
 5013TIP3    H136530   1.474   4.394  14.925  0.5969  0.5890 -1.1366
 5013TIP3    H236531   1.610   4.455  14.899  0.2576  2.1181  0.5374
 5014TIP3   OH236532   5.225   6.669  14.544 -0.5824  0.2468 -0.3167
 5014TIP3    H136533   5.136   6.661  14.578 -0.7156  1.8801 -0.2394
 5014TIP3    H236534   5.281   6.633  14.613 -1.0101  1.5096  0.7108
 5015TIP3   OH236535   1.084   3.504  13.112  0.2758 -0.0941  0.4323
 5015TIP3    H136536   0.992   3.498  13.137 -0.2831  0.9871 -1.2240
 5015TIP3    H236537   1.103   3.598  13.114  0.8838 -0.1751 -0.7193
 5016TIP3   OH236538   3.827   0.160   4.034  0.4825 -0.1684  0.1793
 5016TIP3    H136539   3.902   0.182   4.089  0.8790  0.0890 -0.4571
 5016TIP3    H236540   3.788   0.084   4.077  0.7618  0.0526  0.8380
 5017TIP3   OH236541   6.455   5.270   5.130 -0.4698  0.2141  0.4492
 5017TIP3    H136542   6.400   5.333   5.177 -0.2754  2.3775 -2.0005
 5017TIP3    H236543   6.401   5.241   5.057  0.6791  0.3166 -0.4712
 5018TIP3   OH236544   3.893   2.575  14.078 -0.1831 -0.1335 -0.3112
 5018TIP3    H136545   3.865   2.548  14.166 -1.6086 -1.3191 -1.0697
 5018TIP3    H236546   3.988   2.575  14.082 -0.2049  0.8365  1.4971
 5019TIP3   OH236547   5.255   2.703   0.312 -0.4840 -0.5481 -0.2503
 5019TIP3    H136548   5.295   2.746   0.236 -1.9515 -0.5060 -1.0394
 5019TIP3    H236549   5.233   2.775   0.371  1.5180 -0.6424  0.7169
 5020TIP3   OH236550   2.672   2.974   5.795 -0.0853  0.3564  0.1193
 5020TIP3    H136551   2.634   2.939   5.715 -1.0487 -0.4871  0.9204
 5020TIP3    H236552   2.625   3.056   5.810 -0.1230  0.3553  0.0090
 5021TIP3   OH236553   2.322   4.470  15.354 -0.4506  0.7957  0.1772
 5021TIP3    H136554   2.397   4.419  15.382  0.0260  0.8128 -1.0211
 5021TIP3    H236555   2.248   4.434  15.403  0.3480  0.8860  1.4782
 5022TIP3   OH236556   4.659   4.994  12.882 -0.0184 -0.0786 -0.0598
 5022TIP3    H136557   4.681   4.974  12.973 -0.1795  0.1941  0.0406
 5022TIP3    H236558   4.661   4.909  12.838 -1.5658 -0.4710  0.5406
 5023TIP3   OH236559   4.619   2.559  13.964  0.4124  0.1826 -0.3826
 5023TIP3    H136560   4.597   2.466  13.972 -0.0730  0.3869  0.9197
 5023TIP3    H236561   4.714   2.562  13.971  0.3210 -0.0757  1.4869
 5024TIP3   OH236562   0.597   5.110   0.322  1.0699 -0.0123  0.0964
 5024TIP3    H136563   0.563   5.185   0.372  1.2968 -0.6322  1.1946
 5024TIP3    H236564   0.643   5.150   0.248  0.5284  0.9140  0.2450
 5025TIP3   OH236565   0.332   2.255   0.575  0.2241  0.1578  0.2967
 5025TIP3    H136566   0.388   2.331   0.559 -0.5759  0.6464 -0.2940
 5025TIP3    H236567   0.379   2.181   0.536 -0.3072  0.8405 -1.7751
 5026TIP3   OH236568   3.430   1.335  11.309 -0.0638 -0.1011  0.1723
 5026TIP3    H136569   3.390   1.368  11.229 -1.8419 -0.4111  0.8977
 5026TIP3    H236570   3.381   1.376  11.380  0.6619 -0.7871  1.1054
 5027TIP3   OH236571   4.872   0.296  14.325 -0.1894 -0.0281  0.2496
 5027TIP3    H136572   4.894   0.370  14.382  1.1331 -1.4440  1.6825
 5027TIP3    H236573   4.787   0.266  14.356  0.4478 -0.6879  1.4373
 5028TIP3   OH236574   2.764   0.628   3.852  0.1923 -0.2236 -0.9154
 5028TIP3    H136575   2.686   0.676   3.881  1.4416  3.1490 -2.5239
 5028TIP3    H236576   2.782   0.567   3.923 -2.2928  0.8853  0.8206
 5029TIP3   OH236577   5.637   5.532  14.992  0.2445 -0.4608  0.0812
 5029TIP3    H136578   5.728   5.528  14.962  0.7203  0.2144  1.3501
 5029TIP3    H236579   5.633   5.612  15.044 -1.2466 -0.1664 -0.4491
 5030TIP3   OH236580   0.699   2.420   1.605 -0.3015 -0.6534  0.2610
 5030TIP3    H136581   0.631   2.353   1.612 -1.2623  0.2262 -0.3707
 5030TIP3    H236582   0.676   2.470   1.527  0.2372  0.5737  0.8585
 5031TIP3   OH236583   4.048   2.990   5.854  0.2004 -0.4246  0.0572
 5031TIP3    H136584   4.015   2.901   5.865  2.8804 -1.6463 -0.9308
 5031TIP3    H236585   4.051   3.002   5.759  0.0399  0.6658  0.1785
 5032TIP3   OH236586   5.374   3.435   0.327  0.4596  0.0412 -0.2564
 5032TIP3    H136587   5.370   3.525   0.294 -2.5301  0.4145  0.8921
 5032TIP3    H236588   5.344   3.381   0.254 -0.8331  0.3168  0.0586
 5033TIP3   OH236589   6.253   1.191   5.732  0.1625  0.7696  0.2389
 5033TIP3    H136590   6.341   1.206   5.767  0.9413 -1.1401 -0.7241
 5033TIP3    H236591   6.266   1.127   5.662 -1.8882  1.1851 -0.6024
 5034TIP3   OH236592   0.637   0.587  16.391  0.7281  0.0541  0.6366
 5034TIP3    H136593   0.653   0.566  16.299 -1.1804 -0.5176  0.3873
 5034TIP3    H236594   0.691   0.525  16.439  0.8779 -0.4044 -0.1039
 5035TIP3   OH236595   1.807   4.445   4.872  0.1887  0.0080  0.3064
 5035TIP3    H136596   1.810   4.385   4.946 -0.4290 -0.4991 -0.0668
 5035TIP3    H236597   1.722   4.488   4.880 -0.0806 -0.3891 -0.3663
 5036TIP3   OH236598   1.030   3.121   6.057 -0.5162 -0.3627 -0.4235
 5036TIP3    H136599   0.998   3.037   6.088 -0.0913 -0.0618  0.9129
 5036TIP3    H236600   0.961   3.183   6.079  0.1799  0.0016  0.8252
 5037TIP3   OH236601   1.824   6.319  14.660  0.0948  0.2282  0.6547
 5037TIP3    H136602   1.843   6.226  14.650 -0.0968 -0.0049  2.1980
 5037TIP3    H236603   1.816   6.332  14.755 -0.8877  1.6123  0.4202
 5038TIP3   OH236604   3.979   6.120  15.030 -0.0793 -0.1364 -0.3596
 5038TIP3    H136605   3.889   6.114  15.063  0.0428 -0.4870 -0.0891
 5038TIP3    H236606   3.969   6.121  14.935 -0.5050  1.8893 -0.3553
 5039TIP3   OH236607   1.563   3.708  14.172  0.2671 -0.0953  0.3199
 5039TIP3    H136608   1.606   3.709  14.087 -1.5858 -1.6353 -0.6963
 5039TIP3    H236609   1.519   3.793  14.178  2.1867  0.9353  0.7842
 5040TIP3   OH236610   6.021   1.581  11.902  0.0548  0.3082  0.1342
 5040TIP3    H136611   5.955   1.605  11.838 -0.6716 -0.4195  0.5926
 5040TIP3    H236612   6.102   1.622  11.870 -0.7813  1.9688  0.0453
 5041TIP3   OH236613   4.434   4.544  14.856  0.0239  0.8349 -0.3494
 5041TIP3    H136614   4.369   4.493  14.809  0.4049  0.0506 -0.0334
 5041TIP3    H236615   4.389   4.573  14.936  0.8856 -2.2873  1.4373
 5042TIP3   OH236616   2.980   6.711   1.949 -0.0138  0.2936 -0.1635
 5042TIP3    H136617   3.030   6.781   1.989 -0.3952  0.4208  0.0986
 5042TIP3    H236618   2.904   6.755   1.910  0.1418  0.1214 -0.6636
 5043TIP3   OH236619   6.021   3.695  15.161  0.8785 -0.2886 -0.0595
 5043TIP3    H136620   6.101   3.644  15.171 -0.1883 -2.1519 -0.4373
 5043TIP3    H236621   6.008   3.701  15.066 -0.0023 -0.9797  0.0085
 5044TIP3   OH236622   1.777   4.552  12.633 -0.4516  0.3103  0.0670
 5044TIP3    H136623   1.776   4.461  12.603  0.4290  0.0871  0.6943
 5044TIP3    H236624   1.841   4.554  12.704  0.2210  1.6062 -0.5382
 5045TIP3   OH236625   2.228   5.410  16.705  0.5384  0.3178  0.0279
 5045TIP3    H136626   2.144   5.431  16.666  1.0200  1.2993 -0.5233
 5045TIP3    H236627   2.217   5.431  16.798  0.1871  0.4759 -0.0471
 5046TIP3   OH236628   1.912   3.228  17.093  0.3083 -0.1453  0.2042
 5046TIP3    H136629   1.868   3.174  17.160 -0.8495 -0.2987 -0.6458
 5046TIP3    H236630   2.000   3.192  17.088 -0.3190 -1.7383 -0.0545
 5047TIP3   OH236631   1.490   3.200  14.672 -0.1914  0.0386  0.1585
 5047TIP3    H136632   1.522   3.288  14.696  1.1469 -0.0780 -1.0811
 5047TIP3    H236633   1.555   3.167  14.610 -2.4827 -0.4341 -2.1519
 5048TIP3   OH236634   6.474   3.139  14.776  0.3427  0.3339  0.4445
 5048TIP3    H136635   6.476   3.146  14.680  0.6882 -0.3915  0.3925
 5048TIP3    H236636   6.390   3.099  14.796  1.3722 -2.1319  0.2290
 5049TIP3   OH236637   6.201   1.246   2.977 -0.2799  0.0634  0.4087
 5049TIP3    H136638   6.202   1.273   3.069  0.0921 -0.2585  0.5018
 5049TIP3    H236639   6.114   1.208   2.964  0.0442 -0.9183  0.9404
 5050TIP3   OH236640   3.904   3.712   4.896  0.4390 -0.0741 -0.1599
 5050TIP3    H136641   3.847   3.636   4.910 -0.2914  0.8493  2.6503
 5050TIP3    H236642   3.892   3.734   4.803 -4.1426  0.2111  0.2336
 5051TIP3   OH236643   0.208   4.706   4.414  0.6965  0.2139 -0.7393
 5051TIP3    H136644   0.179   4.616   4.397  0.8504 -0.2299  1.1509
 5051TIP3    H236645   0.303   4.700   4.422  0.8261  0.7594 -1.6543
 5052TIP3   OH236646   2.749   5.158   4.745 -0.3354  0.7778  0.0926
 5052TIP3    H136647   2.689   5.084   4.741  1.9490 -1.1691 -0.1569
 5052TIP3    H236648   2.765   5.170   4.839  0.6147 -0.2480  0.0878
 5053TIP3   OH236649   1.013   3.939  16.808 -0.0580 -0.4222  0.1466
 5053TIP3    H136650   0.937   3.997  16.814 -1.3661 -1.8716 -1.4542
 5053TIP3    H236651   0.983   3.856  16.843  1.3979 -0.5430  1.2161
 5054TIP3   OH236652   1.387   5.002   4.812  0.1376  0.4548 -0.5224
 5054TIP3    H136653   1.424   4.943   4.746  3.7645 -0.2213  1.8197
 5054TIP3    H236654   1.332   4.945   4.867  0.1589  0.1919 -0.7694
 5055TIP3   OH236655   6.252   3.162  11.204  0.2439  0.0310  0.0770
 5055TIP3    H136656   6.174   3.202  11.241  0.6240  0.8558  0.0046
 5055TIP3    H236657   6.303   3.235  11.170  1.0750 -0.4835  0.1755
 5056TIP3   OH236658   5.744   2.182   3.071 -0.3345 -0.3905  0.0149
 5056TIP3    H136659   5.777   2.237   3.001 -0.2291  0.0483  0.4030
 5056TIP3    H236660   5.654   2.214   3.085 -1.5435 -2.5567 -2.0657
 5057TIP3   OH236661   0.629   3.364   1.456 -0.2584 -0.6364  0.1544
 5057TIP3    H136662   0.638   3.355   1.550 -0.4955 -1.4480  0.1078
 5057TIP3    H236663   0.622   3.458   1.441 -2.7393 -0.5881  1.1799
 5058TIP3   OH236664   5.010   1.165  15.315  0.4144  0.3783  0.7901
 5058TIP3    H136665   4.982   1.081  15.351  0.2533  1.1897  2.6377
 5058TIP3    H236666   4.992   1.229  15.384  0.2733  1.9976 -0.6601
 5059TIP3   OH236667   3.987   0.076   5.703 -0.7246 -0.1089 -0.9026
 5059TIP3    H136668   4.048   0.075   5.777 -0.9142  1.0376 -0.7027
 5059TIP3    H236669   4.027   0.137   5.641 -2.5508  2.2519  0.0726
 5060TIP3   OH236670   5.362   5.794  13.558  0.2796  0.1557  0.8553
 5060TIP3    H136671   5.394   5.839  13.637  0.5189 -0.5134  1.1408
 5060TIP3    H236672   5.290   5.739  13.590  0.2089  0.0764  0.5609
 5061TIP3   OH236673   3.624   1.565   6.756  0.0648 -0.0653  0.2258
 5061TIP3    H136674   3.624   1.659   6.742  1.1799  0.4059  2.8206
 5061TIP3    H236675   3.716   1.543   6.771 -0.1077 -1.6934 -0.7584
 5062TIP3   OH236676   4.351   6.405  17.090  0.2815 -0.3262 -0.0995
 5062TIP3    H136677   4.354   6.493  17.052 -0.9700 -0.6432 -0.9816
 5062TIP3    H236678   4.322   6.349  17.018 -0.8551 -1.1552  0.9641
 5063TIP3   OH236679   4.339   1.988   4.099  0.4923  0.1221  0.0359
 5063TIP3    H136680   4.301   2.022   4.018  1.4638 -1.2345 -1.0474
 5063TIP3    H236681   4.268   1.939   4.140 -0.6844  2.6701  1.2230
 5064TIP3   OH236682   2.404   5.595  16.577 -0.3092  0.5765 -0.4825
 5064TIP3    H136683   2.361   5.667  16.622  1.3447  1.0171  0.4788
 5064TIP3    H236684   2.397   5.521  16.638 -0.9215  0.2542 -0.9338
 5065TIP3   OH236685   1.432   5.529  14.235  0.2310 -0.1881  0.7769
 5065TIP3    H136686   1.418   5.464  14.166  0.5042 -0.3026  0.8301
 5065TIP3    H236687   1.436   5.477  14.316  2.0785 -0.2881  0.6657
 5066TIP3   OH236688   1.665   0.336   1.547 -0.1673  0.5361 -0.3273
 5066TIP3    H136689   1.752   0.351   1.584  0.5119  0.0314 -1.6499
 5066TIP3    H236690   1.682   0.299   1.460 -1.6507  2.7813 -1.6848
 5067TIP3   OH236691   3.527   2.113   2.642  0.1369 -0.3635  0.1085
 5067TIP3    H136692   3.536   2.112   2.546  1.0472 -0.3997  0.1804
 5067TIP3    H236693   3.550   2.202   2.667 -1.0111 -0.0925  0.2276
 5068TIP3   OH236694   1.014   1.603   2.330 -0.8274  0.6101  0.0446
 5068TIP3    H136695   0.959   1.612   2.408  0.5306  1.5293  0.9424
 5068TIP3    H236696   1.067   1.525   2.347 -1.0052  0.4198 -0.2697
 5069TIP3   OH236697   0.102   2.661   3.026  0.3868  0.0402 -0.0871
 5069TIP3    H136698   0.101   2.687   2.933  1.6694 -2.5672 -0.9300
 5069TIP3    H236699   0.193   2.673   3.052  0.3208 -0.5424  0.4154
 5070TIP3   OH236700   0.077   6.663  17.649  0.1099  0.2132 -0.5760
 5070TIP3    H136701   0.094   6.718  17.726 -1.1200 -0.1132 -0.0454
 5070TIP3    H236702   0.023   6.591  17.683  2.2868 -1.7541 -1.1081
 5071TIP3   OH236703   4.913   0.492  14.135  0.1398 -0.0134 -0.1491
 5071TIP3    H136704   4.976   0.425  14.162 -2.1434 -1.9677  0.7385
 5071TIP3    H236705   4.889   0.467  14.046 -0.4542 -0.1937  0.0556
 5072TIP3   OH236706   3.839   3.444   1.959  0.3832  0.4114 -0.0326
 5072TIP3    H136707   3.754   3.424   1.996  0.7669  0.4461  0.9056
 5072TIP3    H236708   3.826   3.527   1.913 -0.4200 -0.3063 -1.1479
 5073TIP3   OH236709   4.528   3.385   1.315  0.3960 -0.3494  0.1226
 5073TIP3    H136710   4.498   3.353   1.230 -1.8442 -1.6019  1.2748
 5073TIP3    H236711   4.580   3.314   1.351  0.3317 -0.3102  0.2929
 5074TIP3   OH236712   2.839   2.842   1.633 -0.4517 -0.2002 -0.4767
 5074TIP3    H136713   2.796   2.864   1.715 -0.7864 -0.3953 -0.5952
 5074TIP3    H236714   2.894   2.766   1.654 -1.3438 -0.9221 -0.6558
 5075TIP3   OH236715   2.132   3.590   0.349  0.8393 -0.3541  0.2528
 5075TIP3    H136716   2.146   3.641   0.429  0.4321  0.0012  0.1002
 5075TIP3    H236717   2.046   3.551   0.361  0.3434  0.4961 -0.4367
 5076TIP3   OH236718   5.649   1.407  15.234 -0.2286 -0.2765 -1.1840
 5076TIP3    H136719   5.581   1.463  15.196 -1.1890 -0.2021  0.5363
 5076TIP3    H236720   5.609   1.370  15.312  1.4364 -0.9499 -0.5957
 5077TIP3   OH236721   2.534   0.843  11.842  0.9590  0.0345 -0.0242
 5077TIP3    H136722   2.515   0.861  11.750  0.0869 -1.6378 -0.2155
 5077TIP3    H236723   2.512   0.750  11.853  1.8213 -0.0027  1.6783
 5078TIP3   OH236724   4.402   6.061   2.524 -0.0677 -0.5592  0.1872
 5078TIP3    H136725   4.429   6.131   2.583 -0.7023 -0.0898 -0.0734
 5078TIP3    H236726   4.401   6.102   2.437 -0.8490 -0.7808  0.0874
 5079TIP3   OH236727   5.719   1.763  16.507  0.5676  0.3483  0.2698
 5079TIP3    H136728   5.706   1.692  16.445  0.2444  0.2246  0.4781
 5079TIP3    H236729   5.686   1.841  16.463  1.7748  0.5405 -0.3274
 5080TIP3   OH236730   4.805   0.045   4.100 -0.4610 -0.3791  0.8671
 5080TIP3    H136731   4.899   0.054   4.111  0.2239 -1.1612 -2.9988
 5080TIP3    H236732   4.772   0.135   4.102  0.5524 -0.0005  0.9734
 5081TIP3   OH236733   0.868   4.835  17.617  0.4845 -0.2934  0.6123
 5081TIP3    H136734   0.886   4.750  17.657  1.8857 -0.3522 -0.0681
 5081TIP3    H236735   0.859   4.895  17.691  1.4000 -0.7003  1.0741
 5082TIP3   OH236736   5.336   0.691  15.600 -0.2068 -0.1609  0.6353
 5082TIP3    H136737   5.262   0.722  15.652  0.2152 -1.5904  2.1926
 5082TIP3    H236738   5.308   0.605  15.569 -0.4273  0.6374 -1.5578
 5083TIP3   OH236739   5.006   5.077   0.723  0.0228 -0.8758  0.0714
 5083TIP3    H136740   4.979   5.078   0.631 -1.7272 -1.4248  0.5461
 5083TIP3    H236741   5.026   5.169   0.743 -1.8866 -0.3400 -0.2491
 5084TIP3   OH236742   0.948   5.318   5.122  0.4466 -0.1550 -0.0180
 5084TIP3    H136743   0.927   5.226   5.103 -0.9982 -0.1650  1.4115
 5084TIP3    H236744   0.864   5.363   5.113  0.5407  0.5203  2.0302
 5085TIP3   OH236745   4.226   3.171   0.778  0.4935 -0.5103  0.1641
 5085TIP3    H136746   4.139   3.204   0.754 -0.6530 -2.0713  1.9042
 5085TIP3    H236747   4.241   3.206   0.866  0.3522 -2.4817  1.0151
 5086TIP3   OH236748   2.754   3.700   7.216 -0.3283 -0.8203  0.6108
 5086TIP3    H136749   2.659   3.697   7.230 -0.5406  0.9339 -0.1133
 5086TIP3    H236750   2.786   3.762   7.281 -0.5669  3.0180 -2.5353
 5087TIP3   OH236751   3.834   1.702  17.446 -0.0958 -0.1333 -0.2343
 5087TIP3    H136752   3.844   1.621  17.395 -1.1928  0.9827 -2.3495
 5087TIP3    H236753   3.914   1.752  17.427  0.6379 -0.6960  1.1677
 5088TIP3   OH236754   5.073   1.617  11.922  0.6697 -0.1755  0.1215
 5088TIP3    H136755   5.052   1.642  11.832  2.7050 -0.2320 -0.4207
 5088TIP3    H236756   5.005   1.554  11.946  0.4943 -0.7156 -1.6581
 5089TIP3   OH236757   6.111   1.965   3.069  0.3084 -0.2372 -0.5804
 5089TIP3    H136758   6.078   2.001   3.151 -0.1705 -0.1996 -0.7837
 5089TIP3    H236759   6.179   2.026   3.041 -0.3612  0.4130 -0.8188
 5090TIP3   OH236760   6.295   5.852   2.505  0.1736 -0.4909 -0.6328
 5090TIP3    H136761   6.268   5.848   2.596 -1.3237  0.7138 -0.9770
 5090TIP3    H236762   6.388   5.829   2.506 -0.0275 -1.3445  1.0718
 5091TIP3   OH236763   1.987   5.580   1.115 -0.0721 -0.3869  0.4422
 5091TIP3    H136764   1.945   5.660   1.146  0.0517 -0.3922  0.6225
 5091TIP3    H236765   2.008   5.531   1.195 -2.0003 -1.5596  0.2866
 5092TIP3   OH236766   3.122   6.098  14.831  0.3190 -0.2141 -0.1501
 5092TIP3    H136767   3.041   6.149  14.834  0.4234 -0.0205 -0.5395
 5092TIP3    H236768   3.187   6.153  14.875  0.5480  0.2196 -0.9900
 5093TIP3   OH236769   3.842   2.734  13.404  0.1843  0.0107  0.8047
 5093TIP3    H136770   3.887   2.782  13.473 -0.9190 -0.3434  1.8195
 5093TIP3    H236771   3.891   2.753  13.324 -0.1623  2.7616  1.1670
 5094TIP3   OH236772   2.121   5.292   6.569 -0.3445  0.4586  0.2589
 5094TIP3    H136773   2.087   5.338   6.646 -0.6100 -1.5804  1.4114
 5094TIP3    H236774   2.168   5.217   6.604 -0.1599 -0.3286 -1.5679
 5095TIP3   OH236775   2.172   4.540   2.340  0.3782  0.0311 -0.0204
 5095TIP3    H136776   2.170   4.525   2.246  0.5442 -2.7006  0.3036
 5095TIP3    H236777   2.257   4.505   2.368 -0.8320 -2.0379  1.4197
 5096TIP3   OH236778   3.392   0.666  13.384 -0.7488 -0.2766 -0.0061
 5096TIP3    H136779   3.383   0.686  13.477  0.9556 -1.6121  0.5140
 5096TIP3    H236780   3.487   0.660  13.371 -0.9761 -0.4219 -1.7602
 5097TIP3   OH236781   4.789   5.772  16.559 -0.4453 -0.2114  0.3838
 5097TIP3    H136782   4.759   5.775  16.650 -0.9736  1.2964  0.1915
 5097TIP3    H236783   4.720   5.817  16.510  0.5400  0.3159 -0.5562
 5098TIP3   OH236784   3.391   4.016   4.196  0.1247 -0.0410 -0.2590
 5098TIP3    H136785   3.419   4.073   4.267 -0.1020 -0.5923  0.2852
 5098TIP3    H236786   3.359   4.075   4.128  0.2669  0.4870  0.1324
 5099TIP3   OH236787   0.938   0.621  16.896 -0.4195 -0.2327  0.5525
 5099TIP3    H136788   0.978   0.704  16.923 -1.8256 -0.1962  2.7548
 5099TIP3    H236789   1.000   0.554  16.926  1.8045 -0.0829 -3.1136
 5100TIP3   OH236790   2.609   4.281  16.044 -0.2611 -0.0204 -0.4144
 5100TIP3    H136791   2.678   4.303  16.106  1.0045 -1.7032 -1.1356
 5100TIP3    H236792   2.532   4.264  16.098  0.7418 -1.2280  0.7015
 5101TIP3   OH236793   5.112   4.047  16.738  0.3481 -0.1411 -0.4029
 5101TIP3    H136794   5.031   4.004  16.764  0.9093  0.3211  2.4764
 5101TIP3    H236795   5.146   3.994  16.666 -2.8244  0.0891 -2.2500
 5102TIP3   OH236796   5.047   5.622  15.571 -0.1677 -0.8069 -0.1326
 5102TIP3    H136797   5.115   5.609  15.505 -0.8996 -1.4580 -0.7982
 5102TIP3    H236798   4.972   5.655  15.521 -0.3214 -0.0503  0.5868
 5103TIP3   OH236799   5.386   5.219  12.763  0.6236 -0.4396 -0.6136
 5103TIP3    H136800   5.448   5.168  12.711  1.9576 -2.7079  2.9202
 5103TIP3    H236801   5.399   5.190  12.853 -2.7814  1.9664  0.8709
 5104TIP3   OH236802   4.742   5.385  15.559 -0.1745 -0.0072 -0.3685
 5104TIP3    H136803   4.796   5.312  15.530  0.2047  0.4969 -0.9752
 5104TIP3    H236804   4.663   5.345  15.594 -0.9986 -0.6590 -2.7570
 5105TIP3   OH236805   5.958   0.676   0.357  0.3279  0.3161  0.0666
 5105TIP3    H136806   5.995   0.683   0.269  1.2424  0.5583  0.4542
 5105TIP3    H236807   5.890   0.743   0.359  0.1389  0.1482 -0.5329
 5106TIP3   OH236808   3.845   1.207  17.302  0.1223  0.0953 -0.2636
 5106TIP3    H136809   3.851   1.197  17.397  2.2339  1.8226 -0.1178
 5106TIP3    H236810   3.861   1.119  17.268 -0.7369 -0.5686  0.9698
 5107TIP3   OH236811   3.105   5.650   6.059 -0.4107 -0.2213  0.2653
 5107TIP3    H136812   3.125   5.677   5.969 -0.3159 -1.7320 -0.1859
 5107TIP3    H236813   3.083   5.732   6.103 -1.4645  0.4426 -1.3857
 5108TIP3   OH236814   4.576   0.679   1.951  0.3937  0.2119 -0.0196
 5108TIP3    H136815   4.623   0.721   2.023  0.7088  1.5064 -0.9395
 5108TIP3    H236816   4.634   0.691   1.876 -0.0148 -0.9484 -0.5312
 5109TIP3   OH236817   4.037   1.031   3.910  0.2100 -0.0116 -0.1056
 5109TIP3    H136818   3.971   0.961   3.907  1.7093 -1.4770 -0.7597
 5109TIP3    H236819   3.987   1.110   3.929 -1.9201 -0.8457 -1.7650
 5110TIP3   OH236820   5.628   3.411  12.061 -0.2090 -0.1673  0.5013
 5110TIP3    H136821   5.660   3.322  12.046  1.7192  0.2086  2.0033
 5110TIP3    H236822   5.707   3.462  12.081 -1.2437  1.9254 -0.4492
 5111TIP3   OH236823   2.846   4.382   6.792 -0.3178  0.2903 -0.2779
 5111TIP3    H136824   2.758   4.418   6.808 -0.8507  0.2400 -2.6625
 5111TIP3    H236825   2.886   4.377   6.879 -3.2459 -1.2341  1.1600
 5112TIP3   OH236826   1.472   6.114   1.912 -0.4198 -0.0171  0.2085
 5112TIP3    H136827   1.472   6.131   1.818  0.4190 -1.2780 -0.0374
 5112TIP3    H236828   1.462   6.201   1.952  0.9414  0.7608 -1.0246
 5113TIP3   OH236829   4.229   4.407   4.522  0.5919 -0.1518  0.0822
 5113TIP3    H136830   4.186   4.483   4.562 -0.9964 -0.0341 -1.6934
 5113TIP3    H236831   4.306   4.443   4.479  0.8847  0.1204  0.8046
 5114TIP3   OH236832   3.613   2.141  17.407 -0.1810  0.1370 -0.0072
 5114TIP3    H136833   3.556   2.066  17.422  0.6653 -0.1823  1.8729
 5114TIP3    H236834   3.702   2.106  17.417  0.2247  1.4144  1.1782
 5115TIP3   OH236835   1.520   1.743  11.543 -0.0892  0.3946  0.1353
 5115TIP3    H136836   1.475   1.728  11.461  1.1299 -0.2236 -0.4424
 5115TIP3    H236837   1.553   1.833  11.537 -1.4716  0.9568  0.6895
 5116TIP3   OH236838   0.326   1.112   1.841 -0.2365  0.3020  0.5987
 5116TIP3    H136839   0.278   1.142   1.918 -1.6924  2.7168 -1.0949
 5116TIP3    H236840   0.344   1.192   1.791 -0.3717 -1.2266 -2.1093
 5117TIP3   OH236841   4.845   1.405  16.665 -0.0119  0.4935  0.6583
 5117TIP3    H136842   4.762   1.450  16.675 -0.0348  0.2396  1.7730
 5117TIP3    H236843   4.902   1.470  16.622 -0.4514  1.0669  0.9236
 5118TIP3   OH236844   5.471   5.793  11.832 -0.0136 -0.3096  0.1979
 5118TIP3    H136845   5.516   5.858  11.779  0.8585  0.7149  2.1086
 5118TIP3    H236846   5.381   5.825  11.837  0.3050  0.5204  0.7569
 5119TIP3   OH236847   3.417   4.009  13.494 -0.5988  0.2636  0.1649
 5119TIP3    H136848   3.441   3.931  13.444 -2.2495  0.1656 -0.5435
 5119TIP3    H236849   3.457   4.081  13.446 -1.4878  0.0892 -0.8878
 5120TIP3   OH236850   5.154   4.138   0.968 -0.1931  0.2643  0.1220
 5120TIP3    H136851   5.061   4.143   0.947 -0.5209 -1.9893  0.6959
 5120TIP3    H236852   5.157   4.095   1.054  1.3822 -0.2191 -0.1387
 5121TIP3   OH236853   5.098   1.632  11.646 -1.1136 -0.4930 -0.2474
 5121TIP3    H136854   5.037   1.617  11.574 -0.2360  0.8123 -1.3324
 5121TIP3    H236855   5.178   1.587  11.619 -0.9588 -0.4822  0.1829
 5122TIP3   OH236856   3.359   1.891  11.461 -0.3352 -0.4979 -0.3774
 5122TIP3    H136857   3.410   1.855  11.389  3.3030  0.5501  1.4477
 5122TIP3    H236858   3.327   1.975  11.429  1.9643  0.3537 -0.5969
 5123TIP3   OH236859   2.071   2.872   0.212  0.2124  0.1683  0.2953
 5123TIP3    H136860   2.120   2.892   0.132  1.0675  0.1817  0.8069
 5123TIP3    H236861   2.099   2.784   0.236 -0.0593  0.1546  0.5686
 5124TIP3   OH236862   1.536   2.460  17.589  0.3990 -0.0657 -0.2133
 5124TIP3    H136863   1.555   2.520  17.661 -0.7693 -0.4272  0.4120
 5124TIP3    H236864   1.561   2.509  17.510  1.4909  0.4105  0.4115
 5125TIP3   OH236865   1.197   0.348   4.427  0.5541  0.5687  0.2461
 5125TIP3    H136866   1.221   0.261   4.459  0.4858  0.6510  0.5282
 5125TIP3    H236867   1.237   0.354   4.341  1.2541  0.5746  0.5668
 5126TIP3   OH236868   1.028   0.349   2.301 -0.5906 -0.5314 -0.1018
 5126TIP3    H136869   0.988   0.266   2.276  0.3953 -0.9041 -0.5106
 5126TIP3    H236870   1.048   0.393   2.218 -0.6771 -0.0897  0.1048
 5127TIP3   OH236871   2.863   6.175   3.786  0.5755 -0.1157 -0.2674
 5127TIP3    H136872   2.790   6.190   3.726  0.5287 -0.0918 -0.2047
 5127TIP3    H236873   2.937   6.220   3.746  0.3390  0.6471  0.1241
 5128TIP3   OH236874   6.163   4.719  15.461  0.0851  0.2853 -0.5721
 5128TIP3    H136875   6.235   4.656  15.474  0.1734  0.0544 -2.0271
 5128TIP3    H236876   6.109   4.709  15.539  0.3031 -1.3427 -0.5934
 5129TIP3   OH236877   5.832   1.086  12.737  0.1361  0.4103 -0.4767
 5129TIP3    H136878   5.776   1.026  12.688  0.2359  0.3499 -0.5176
 5129TIP3    H236879   5.839   1.047  12.824 -0.0101  0.4977 -0.4260
 5130TIP3   OH236880   3.878   2.051   4.659  0.7818  0.0204  0.0391
 5130TIP3    H136881   3.923   1.971   4.684 -1.7028 -2.7555 -3.3098
 5130TIP3    H236882   3.944   2.102   4.612  1.4216 -2.4587 -2.0120
 5131TIP3   OH236883   6.161   5.218  17.044  0.5169 -0.6078 -0.2986
 5131TIP3    H136884   6.169   5.161  17.120  1.4486  0.9666  0.8334
 5131TIP3    H236885   6.243   5.206  16.995  0.4760 -0.6541 -0.3559
 5132TIP3   OH236886   4.174   3.023  17.561 -0.6093  0.1745  0.6620
 5132TIP3    H136887   4.081   3.027  17.584 -0.6063  0.5279  0.6184
 5132TIP3    H236888   4.204   2.940  17.598 -0.9355  0.0707  0.6982
 5133TIP3   OH236889   2.949   3.496  12.707  0.6274  0.1753 -0.2256
 5133TIP3    H136890   2.968   3.556  12.779 -1.6293 -1.6222  2.0386
 5133TIP3    H236891   2.999   3.417  12.728 -0.0358 -0.3661 -0.6342
 5134TIP3   OH236892   2.411   4.390   6.551  0.5830  0.2941  0.5846
 5134TIP3    H136893   2.415   4.348   6.637  2.9080  0.3421  0.5689
 5134TIP3    H236894   2.358   4.468   6.564 -0.7738 -0.7458  1.4786
 5135TIP3   OH236895   4.362   2.122  11.310  0.8269 -0.0709  0.2037
 5135TIP3    H136896   4.346   2.115  11.216  1.5629  1.5884 -0.0789
 5135TIP3    H236897   4.277   2.144  11.347  0.9918  1.7199 -0.4081
 5136TIP3   OH236898   6.555   3.381   3.871  0.3031 -0.1572  0.5277
 5136TIP3    H136899   6.640   3.343   3.848 -0.1549 -0.5513 -0.5657
 5136TIP3    H236900   6.575   3.473   3.890  0.7641  0.1545 -1.2780
 5137TIP3   OH236901   0.216   5.237   0.226  0.3982  0.7049  0.7806
 5137TIP3    H136902   0.145   5.177   0.252 -1.0533  1.3109 -1.4427
 5137TIP3    H236903   0.274   5.182   0.173 -1.0778  1.2075 -1.4892
 5138TIP3   OH236904   5.768   4.379  12.746  0.5421 -0.4985 -0.1568
 5138TIP3    H136905   5.785   4.298  12.794 -0.3476 -0.8737 -0.4407
 5138TIP3    H236906   5.823   4.372  12.668  1.2480 -0.3432  0.3204
 5139TIP3   OH236907   2.238   5.586  11.286 -0.2526  0.1359 -0.3226
 5139TIP3    H136908   2.307   5.588  11.220  0.0304  0.6425 -0.0162
 5139TIP3    H236909   2.247   5.669  11.333 -0.8212  0.0368 -0.0244
 5140TIP3   OH236910   5.098   2.593   1.710  0.1176 -0.6448  0.0772
 5140TIP3    H136911   5.183   2.636   1.711 -0.1398 -0.0697 -0.7820
 5140TIP3    H236912   5.045   2.644   1.771  0.2206 -0.6366  0.1600
 5141TIP3   OH236913   3.948   3.481  15.622  0.0036 -0.1067  0.1168
 5141TIP3    H136914   3.947   3.498  15.716 -0.9282 -0.7252  0.2426
 5141TIP3    H236915   3.880   3.414  15.610 -2.5831  2.5597 -1.4874
 5142TIP3   OH236916   4.684   4.305   3.365 -0.0328 -0.0247  0.3977
 5142TIP3    H136917   4.623   4.355   3.310  1.5756 -0.2334 -1.7120
 5142TIP3    H236918   4.677   4.216   3.332 -0.0240 -0.4373  1.4921
 5143TIP3   OH236919   0.314   0.837  13.858 -0.3415 -0.2197  0.5545
 5143TIP3    H136920   0.309   0.801  13.769  0.0752 -1.6256  1.0821
 5143TIP3    H236921   0.384   0.788  13.900  0.1418  1.1299  1.3705
 5144TIP3   OH236922   2.717   4.272   4.677 -0.6977  0.3623 -0.5849
 5144TIP3    H136923   2.776   4.213   4.630  0.4020  0.3562  0.7302
 5144TIP3    H236924   2.654   4.301   4.611  0.0162 -0.6154 -1.7447
 5145TIP3   OH236925   0.458   6.632   2.535  0.2102  0.3357  0.2245
 5145TIP3    H136926   0.433   6.721   2.563 -1.3333  0.0800 -0.2974
 5145TIP3    H236927   0.381   6.598   2.491  0.6886 -1.3974  0.6772
 5146TIP3   OH236928   2.309   3.504  17.389 -0.2000  0.2557  0.2831
 5146TIP3    H136929   2.238   3.563  17.417  1.3348  1.8249  1.0529
 5146TIP3    H236930   2.358   3.555  17.325  0.1266 -0.8964 -0.4039
 5147TIP3   OH236931   5.681   3.647  16.866 -0.0245  0.8159 -0.3015
 5147TIP3    H136932   5.609   3.710  16.869 -0.8402 -0.1146  1.6814
 5147TIP3    H236933   5.656   3.580  16.931  2.3010  0.1129 -0.0630
 5148TIP3   OH236934   4.706   5.526   1.934 -0.2955 -0.2918  0.0531
 5148TIP3    H136935   4.708   5.459   1.866 -0.9442 -0.4440  0.1827
 5148TIP3    H236936   4.699   5.609   1.887 -2.9072 -0.4969 -0.0578
 5149TIP3   OH236937   0.427   3.087  17.224 -0.5418 -0.1545  0.2638
 5149TIP3    H136938   0.351   3.145  17.231  1.8335  3.3631 -0.6831
 5149TIP3    H236939   0.450   3.088  17.131  0.6917 -1.1177  0.5324
 5150TIP3   OH236940   5.010   5.591   2.916 -0.1788  0.3969  0.4633
 5150TIP3    H136941   4.953   5.514   2.922 -0.6995  0.7354  0.0281
 5150TIP3    H236942   4.953   5.660   2.881  0.5573  0.6939 -0.1835
 5151TIP3   OH236943   0.052   4.840  16.332 -0.0091  0.2494  0.3726
 5151TIP3    H136944  -0.018   4.779  16.308  0.7833  0.0410 -1.5480
 5151TIP3    H236945   0.073   4.817  16.423 -1.4584 -0.6065  0.5273
 5152TIP3   OH236946   3.373   0.262  14.594 -0.4215  0.4562 -0.5782
 5152TIP3    H136947   3.329   0.257  14.679  1.4017 -1.8815  0.3194
 5152TIP3    H236948   3.348   0.182  14.548  0.5549  0.5061 -1.2390
 5153TIP3   OH236949   5.331   4.335   2.046 -0.0336  0.0760  0.2846
 5153TIP3    H136950   5.286   4.372   1.971  0.1561  0.5816  0.4194
 5153TIP3    H236951   5.300   4.244   2.050 -0.4729  0.2087 -0.0609
 5154TIP3   OH236952   6.407   3.461  13.398  0.1205 -0.7938  0.3621
 5154TIP3    H136953   6.361   3.420  13.471 -0.1776  1.5718  1.6025
 5154TIP3    H236954   6.354   3.537  13.376  0.6471 -0.9869 -1.8287
 5155TIP3   OH236955   5.261   6.558   6.464 -0.7772 -0.0293  0.3200
 5155TIP3    H136956   5.181   6.506   6.466 -0.1328 -1.0254  1.4279
 5155TIP3    H236957   5.321   6.512   6.522  0.0364  1.6420  0.8660
 5156TIP3   OH236958   4.983   4.728  12.525  0.0127 -0.3650 -0.4068
 5156TIP3    H136959   4.902   4.690  12.560 -0.5849  1.7585  0.7243
 5156TIP3    H236960   4.999   4.804  12.581  1.7671  0.3592 -1.8033
 5157TIP3   OH236961   1.187   1.070   5.168  1.0707  0.1067  0.8875
 5157TIP3    H136962   1.189   0.981   5.133 -1.3370  0.3426 -0.0636
 5157TIP3    H236963   1.264   1.076   5.224  1.2250 -2.6039  1.0757
 5158TIP3   OH236964   0.918   0.716   3.897  0.7872 -0.2907  0.0059
 5158TIP3    H136965   0.896   0.623   3.905  1.0224 -0.2438  1.6502
 5158TIP3    H236966   1.000   0.717   3.848  1.6080 -1.1066  1.2749
 5159TIP3   OH236967   1.213   6.384   2.694 -0.9396 -0.3036  0.2984
 5159TIP3    H136968   1.255   6.347   2.772  0.1480 -1.3487 -0.7308
 5159TIP3    H236969   1.253   6.471   2.685  0.6612 -1.0619 -0.3393
 5160TIP3   OH236970   4.654   2.433   2.959 -0.0686  0.1129  0.4368
 5160TIP3    H136971   4.627   2.354   3.007  1.3814 -1.4244 -1.1336
 5160TIP3    H236972   4.704   2.484   3.022  0.7465 -1.2579  0.9464
 5161TIP3   OH236973   2.996   6.661  15.011  0.3199 -0.1967  0.3647
 5161TIP3    H136974   2.923   6.626  15.063  0.2716  0.4404  0.7393
 5161TIP3    H236975   2.983   6.756  15.013  0.7902 -0.1205 -0.1205
 5162TIP3   OH236976   3.026   1.191  15.455  0.2339  0.5436  0.0118
 5162TIP3    H136977   3.012   1.271  15.404  0.1683  0.2096 -0.5018
 5162TIP3    H236978   3.109   1.205  15.500  2.6392 -0.8544 -3.5400
 5163TIP3   OH236979   2.059   0.481  13.193  0.0357 -0.3630  0.2900
 5163TIP3    H136980   2.019   0.560  13.229  0.6268 -0.1203  0.4121
 5163TIP3    H236981   1.984   0.425  13.170 -0.3646 -0.3900  1.5685
 5164TIP3   OH236982   2.732   3.446   1.568 -0.0151  0.0364 -0.0287
 5164TIP3    H136983   2.803   3.383   1.581  0.3812  0.3263 -0.7466
 5164TIP3    H236984   2.742   3.475   1.478 -0.9693  0.1891 -0.0909
 5165TIP3   OH236985   4.919   1.681   5.912  0.1261 -0.3002 -0.4626
 5165TIP3    H136986   4.874   1.712   5.991  0.6576  0.4184 -0.4323
 5165TIP3    H236987   4.858   1.619   5.873  0.0179 -0.9876  0.7327
 5166TIP3   OH236988   0.925   3.002   3.399 -0.5476  0.3603  0.0178
 5166TIP3    H136989   0.965   3.089   3.405  0.3418  0.1480 -1.8918
 5166TIP3    H236990   0.912   2.989   3.305 -1.5651 -1.1891  0.3394
 5167TIP3   OH236991   2.121   5.654   5.306 -0.4266  0.2607 -0.1999
 5167TIP3    H136992   2.100   5.744   5.281  0.6532  0.5243 -0.1950
 5167TIP3    H236993   2.061   5.635   5.378  0.8477  1.8088  1.3680
 5168TIP3   OH236994   5.098   2.446  15.458 -0.7577 -0.3032  0.2504
 5168TIP3    H136995   5.051   2.526  15.434 -3.7228 -0.9961  2.9919
 5168TIP3    H236996   5.032   2.391  15.500  2.1763 -2.0942  2.9940
 5169TIP3   OH236997   0.648   0.159   0.947  0.0593  0.5253  0.0089
 5169TIP3    H136998   0.603   0.219   0.887  2.2109  2.8069  0.5314
 5169TIP3    H236999   0.730   0.138   0.903  0.3320 -0.2441  0.8479
 5170TIP3   OH237000   6.097   2.094   1.356 -0.0023  0.4911 -0.0900
 5170TIP3    H137001   6.074   2.010   1.396 -0.6821  0.4666 -0.5104
 5170TIP3    H237002   6.157   2.071   1.285 -0.4186  0.3239 -0.3940
 5171TIP3   OH237003   5.361   3.540  16.946  0.4513 -0.3914 -0.3073
 5171TIP3    H137004   5.305   3.494  17.008 -0.5735  0.7927 -0.3280
 5171TIP3    H237005   5.340   3.632  16.958  1.8987  0.0330 -0.8204
 5172TIP3   OH237006   5.464   3.703  13.653  0.0817 -0.4771 -0.2875
 5172TIP3    H137007   5.412   3.729  13.729 -0.0786  2.2573 -1.2218
 5172TIP3    H237008   5.403   3.655  13.597 -0.8587  0.7558 -0.3565
 5173TIP3   OH237009   1.967   5.666  14.422 -0.6564 -0.0153  0.3237
 5173TIP3    H137010   1.919   5.652  14.340 -0.4495 -0.4407  0.2750
 5173TIP3    H237011   2.016   5.585  14.436  1.5073  1.0742 -0.5910
 5174TIP3   OH237012   1.695   0.288   2.010  0.1462  0.0417 -0.0250
 5174TIP3    H137013   1.626   0.254   1.953 -0.5531  1.4243 -0.0475
 5174TIP3    H237014   1.776   0.259   1.969 -0.3785 -0.1775 -0.9411
 5175TIP3   OH237015   3.989   3.248   6.666 -0.1691  0.0044  0.2080
 5175TIP3    H137016   4.062   3.267   6.725  0.7462  1.3837 -1.2808
 5175TIP3    H237017   3.912   3.285   6.710  0.7420  2.5058 -0.1344
 5176TIP3   OH237018   2.046   1.238  15.944  0.5319  0.0795 -0.3108
 5176TIP3    H137019   1.967   1.291  15.952 -0.8738 -1.9627 -0.0149
 5176TIP3    H237020   2.105   1.272  16.011 -0.3445  1.1945 -0.0751
 5177TIP3   OH237021   5.566   3.019   2.587  0.2344  0.0286  0.0169
 5177TIP3    H137022   5.527   3.047   2.670  0.0205  1.1023 -0.4310
 5177TIP3    H237023   5.646   2.972   2.613  0.3189  0.5908  0.8148
 5178TIP3   OH237024   5.416   0.945  14.479  0.5438  0.2508 -0.2300
 5178TIP3    H137025   5.496   0.963  14.528  0.3322 -0.3998  0.3606
 5178TIP3    H237026   5.345   0.972  14.537  0.3383  1.6476 -1.0913
 5179TIP3   OH237027   5.200   0.946  15.645 -0.1310 -0.4382 -0.2371
 5179TIP3    H137028   5.253   1.012  15.600 -1.4431  0.2218 -0.8879
 5179TIP3    H237029   5.226   0.952  15.737  1.4762 -0.7056 -0.6375
 5180TIP3   OH237030   6.241   5.301   1.160  0.3329 -0.6157 -0.1601
 5180TIP3    H137031   6.208   5.218   1.124  1.3364 -1.4973  0.8748
 5180TIP3    H237032   6.325   5.315   1.117  1.8803 -2.0355  2.1730
 5181TIP3   OH237033   6.109   3.299  17.404 -0.2830  0.6860  0.1266
 5181TIP3    H137034   6.021   3.291  17.368 -1.2828  3.2068  1.7549
 5181TIP3    H237035   6.161   3.335  17.332 -1.2012  1.5852 -0.1047
 5182TIP3   OH237036   6.723   3.269  15.651  0.0098  0.0329 -0.2853
 5182TIP3    H137037   6.653   3.238  15.708  0.4505  0.7569  0.6687
 5182TIP3    H237038   6.739   3.359  15.680  1.7121 -0.3039 -0.1212
 5183TIP3   OH237039   1.204   2.355   2.610  0.5326 -0.0619 -0.4989
 5183TIP3    H137040   1.150   2.392   2.540  0.1325 -1.3224 -0.8981
 5183TIP3    H237041   1.203   2.261   2.592  0.8548 -0.3501  0.9170
 5184TIP3   OH237042   5.182   4.011   1.688  0.0939 -0.2153 -0.4843
 5184TIP3    H137043   5.246   3.945   1.714  1.0017  0.1447 -1.7193
 5184TIP3    H237044   5.234   4.079   1.645 -1.1581 -0.2489 -2.1742
 5185TIP3   OH237045   3.471   3.604  15.424 -0.1622 -0.2677  0.1740
 5185TIP3    H137046   3.432   3.529  15.379 -0.9140  0.1161  0.1806
 5185TIP3    H237047   3.550   3.568  15.466 -0.4128 -1.0089  0.0242
 5186TIP3   OH237048   4.559   4.396   6.550  0.2147 -0.0505  0.2309
 5186TIP3    H137049   4.553   4.371   6.642  1.5536  2.1327  1.0003
 5186TIP3    H237050   4.634   4.348   6.516 -0.7684 -1.4844  0.0097
 5187TIP3   OH237051   5.750   5.252   5.786 -0.3683 -0.1966 -0.2273
 5187TIP3    H137052   5.843   5.232   5.797 -0.6138 -0.6415  1.2971
 5187TIP3    H237053   5.709   5.218   5.866 -1.8040  0.2189 -0.7630
 5188TIP3   OH237054   5.591   1.020   4.186 -0.0244 -0.0600  0.7619
 5188TIP3    H137055   5.621   1.005   4.275 -0.9115 -2.3033  0.7250
 5188TIP3    H237056   5.616   1.111   4.167  1.5551 -0.0430  2.7166
 5189TIP3   OH237057   0.287   2.870   0.878 -0.7989  0.0111 -0.7361
 5189TIP3    H137058   0.317   2.865   0.969 -1.8069  0.4136 -0.3773
 5189TIP3    H237059   0.345   2.809   0.831  2.3462  2.5672 -0.5662
 5190TIP3   OH237060   4.358   4.537  12.521 -0.2268 -0.0783  0.4375
 5190TIP3    H137061   4.353   4.459  12.466  0.8923  0.3758 -0.3612
 5190TIP3    H237062   4.438   4.526  12.572 -0.1567  0.4501  0.4483
 5191TIP3   OH237063   4.973   3.597  12.709 -0.1163  0.1982  0.1045
 5191TIP3    H137064   4.899   3.635  12.757 -0.2171 -0.8914  0.8642
 5191TIP3    H237065   4.936   3.521  12.665  0.6821 -0.8421  1.1585
 5192TIP3   OH237066   6.603   3.435  11.366 -0.2991 -0.0212 -0.0074
 5192TIP3    H137067   6.636   3.514  11.323  0.2793 -0.4193 -0.3145
 5192TIP3    H237068   6.669   3.368  11.348 -0.3845 -0.3747  0.9315
 5193TIP3   OH237069   1.273   0.447   2.685 -0.2761  0.2442  0.0187
 5193TIP3    H137070   1.333   0.478   2.617 -0.5770  0.3625 -0.1946
 5193TIP3    H237071   1.278   0.351   2.679 -2.2678  0.1892 -1.9653
 5194TIP3   OH237072   5.671   3.464  13.662 -0.0740 -0.8736 -0.5822
 5194TIP3    H137073   5.597   3.499  13.712 -0.9217 -0.8602 -1.7960
 5194TIP3    H237074   5.631   3.401  13.601  1.2164 -2.7586  0.4185
 5195TIP3   OH237075   0.546   3.580  12.122  0.1890  0.7435 -0.6396
 5195TIP3    H137076   0.589   3.507  12.167 -0.6398  0.6580  0.0343
 5195TIP3    H237077   0.534   3.549  12.033 -1.6883 -0.6609  0.0283
 5196TIP3   OH237078   2.778   0.914   6.100 -0.2397  0.3903 -0.0066
 5196TIP3    H137079   2.804   0.824   6.120 -0.1472  0.8631  2.2747
 5196TIP3    H237080   2.764   0.914   6.005  2.0489 -1.4104 -0.4508
 5197TIP3   OH237081   0.839   3.169  12.273 -0.5247 -0.8213 -0.2834
 5197TIP3    H137082   0.911   3.213  12.228 -0.4053 -0.2118  0.4702
 5197TIP3    H237083   0.869   3.079  12.284  0.3637 -0.4492  0.4935
 5198TIP3   OH237084   3.394   4.619  14.794 -0.0441  0.0485 -0.2833
 5198TIP3    H137085   3.358   4.562  14.726 -0.5409  0.6856 -0.5526
 5198TIP3    H237086   3.318   4.663  14.832  0.0938 -1.0195  1.3668
 5199TIP3   OH237087   3.104   2.885   4.620  0.4858 -0.2691 -0.2958
 5199TIP3    H137088   3.121   2.945   4.547 -0.5682 -0.5924 -0.8290
 5199TIP3    H237089   3.069   2.806   4.578  3.0687 -1.8286  0.2320
 5200TIP3   OH237090   0.260   0.398  12.872 -0.3349  0.2123 -0.3667
 5200TIP3    H137091   0.190   0.458  12.897 -0.8693 -0.1435 -0.9659
 5200TIP3    H237092   0.216   0.331  12.818  0.4759  0.0371 -0.8316
 5201TIP3   OH237093   5.681   1.362   4.724  0.0355  0.0528  0.5129
 5201TIP3    H137094   5.609   1.310   4.760 -1.0412  2.3173  1.8572
 5201TIP3    H237095   5.722   1.402   4.801  1.0727  0.8522 -0.4337
 5202TIP3   OH237096   6.570   4.985  14.681  0.0165  0.3747 -0.6293
 5202TIP3    H137097   6.478   5.003  14.665 -1.0051 -1.8295  2.0104
 5202TIP3    H237098   6.590   5.031  14.763  0.5103 -1.1484  0.1430
 5203TIP3   OH237099   6.176   2.720  11.216  0.3779  0.3404  0.1958
 5203TIP3    H137100   6.200   2.790  11.156  0.6590  0.4862  0.4730
 5203TIP3    H237101   6.260   2.681  11.242  0.2309 -0.0471  0.1059
 5204TIP3   OH237102   3.590   3.431  13.476  0.0695 -0.3858 -0.3002
 5204TIP3    H137103   3.529   3.488  13.524  0.0076 -1.1521  0.5587
 5204TIP3    H237104   3.555   3.343  13.489  1.6445 -0.9145  0.6710
 5205TIP3   OH237105   5.168   2.184  17.407  0.3983  0.2534 -0.2700
 5205TIP3    H137106   5.229   2.253  17.434  0.3201  0.6717 -1.1179
 5205TIP3    H237107   5.180   2.177  17.312 -0.2751 -0.2483 -0.3296
 5206TIP3   OH237108   3.717   1.617  16.860 -0.3428 -0.2342 -0.1221
 5206TIP3    H137109   3.740   1.556  16.930  1.3805  0.1765 -0.2629
 5206TIP3    H237110   3.768   1.587  16.785  0.6972  1.4331 -0.1389
 5207TIP3   OH237111   2.951   6.482   5.920 -0.5305 -0.5754  0.1886
 5207TIP3    H137112   2.882   6.445   5.865  0.2311  0.6557 -1.6993
 5207TIP3    H237113   2.905   6.536   5.985 -1.3804  1.1757 -1.7589
 5208TIP3   OH237114   5.906   0.441   0.442 -0.0679  0.2153  0.1212
 5208TIP3    H137115   5.954   0.498   0.382  0.8547  0.3849  1.0018
 5208TIP3    H237116   5.814   0.466   0.430  0.0685  0.0896 -1.3634
 5209TIP3   OH237117   6.473   1.009  11.763  0.0893 -0.3411 -0.2794
 5209TIP3    H137118   6.553   0.991  11.812  1.8207  1.8792 -2.0501
 5209TIP3    H237119   6.458   0.931  11.711  0.8127 -0.9685  0.4318
 5210TIP3   OH237120   3.589   0.296  11.646  0.3780 -0.5067 -0.7252
 5210TIP3    H137121   3.539   0.220  11.673  1.7402 -0.8880  0.9084
 5210TIP3    H237122   3.590   0.353  11.723  0.2656  0.6818 -1.5725
 5211TIP3   OH237123   1.507   2.143   3.612 -0.0001 -0.9164  0.8800
 5211TIP3    H137124   1.523   2.129   3.706  0.1693  1.8935  1.3577
 5211TIP3    H237125   1.586   2.188   3.581 -0.7365 -0.3470 -0.2355
 5212TIP3   OH237126   0.963   0.178  15.098 -0.2484  0.7248 -0.6046
 5212TIP3    H137127   1.056   0.169  15.119 -0.2461 -1.3332 -1.2025
 5212TIP3    H237128   0.943   0.100  15.045 -2.4613  0.7707  0.0406
 5213TIP3   OH237129   0.597   4.858  15.706 -0.0398  0.2066 -0.2525
 5213TIP3    H137130   0.591   4.938  15.759  0.0497  0.6378 -0.8879
 5213TIP3    H237131   0.690   4.836  15.707 -0.1660 -0.3196  0.5453
 5214TIP3   OH237132   5.053   0.492  17.567 -0.2168 -0.1094 -0.4330
 5214TIP3    H137133   4.994   0.557  17.604  0.2796 -0.3661  0.8595
 5214TIP3    H237134   5.086   0.533  17.486 -1.6743  0.2674 -0.8596
 5215TIP3   OH237135   6.405   5.796  13.152 -0.1344 -0.1334 -0.1102
 5215TIP3    H137136   6.443   5.727  13.098 -1.8646 -0.2927 -1.2150
 5215TIP3    H237137   6.368   5.750  13.227 -0.3018 -0.2945 -0.2879
 5216TIP3   OH237138   0.249   2.389   4.342  0.2388 -0.3615 -0.4833
 5216TIP3    H137139   0.319   2.349   4.395 -0.1085 -0.0058  0.2675
 5216TIP3    H237140   0.257   2.347   4.257  0.1182 -1.7781  0.1636
 5217TIP3   OH237141   1.524   1.393  17.186 -0.1217 -0.3397 -0.3387
 5217TIP3    H137142   1.504   1.301  17.168 -0.7197 -0.1877 -0.4882
 5217TIP3    H237143   1.513   1.436  17.101 -0.1685 -0.0804 -0.1999
 5218TIP3   OH237144   2.526   5.551   6.108 -0.3724 -0.0699 -0.0855
 5218TIP3    H137145   2.576   5.557   6.190  0.5416  0.1968 -0.6531
 5218TIP3    H237146   2.440   5.586   6.130  0.6350  2.4392  0.1486
 5219TIP3   OH237147   2.092   1.746  14.197  0.4472  0.1214  0.3191
 5219TIP3    H137148   2.039   1.797  14.257  0.3070  1.0510 -0.5683
 5219TIP3    H237149   2.157   1.808  14.164  0.0411 -0.1519 -1.0674
 5220TIP3   OH237150   1.718   2.570   5.618  0.2514  0.2591  0.1533
 5220TIP3    H137151   1.631   2.584   5.656  0.0301 -0.2098 -0.1624
 5220TIP3    H237152   1.702   2.510   5.545  0.7470  0.6909 -0.3179
 5221TIP3   OH237153   1.321   6.121  17.605 -0.2997 -0.1970  0.2579
 5221TIP3    H137154   1.228   6.112  17.583 -1.1958  2.7195  2.2387
 5221TIP3    H237155   1.359   6.166  17.530 -1.2373  1.2858  0.6139
 5222TIP3   OH237156   0.215   4.142   2.807  0.3739  0.5642 -0.0524
 5222TIP3    H137157   0.306   4.112   2.808 -0.3380 -2.0238 -1.5334
 5222TIP3    H237158   0.181   4.117   2.893  1.1186  1.9486  0.6796
 5223TIP3   OH237159   0.609   4.041   3.731  0.4802 -0.1030  0.1829
 5223TIP3    H137160   0.694   4.067   3.698  0.3264 -1.7408 -1.6810
 5223TIP3    H237161   0.622   3.951   3.763 -0.8605 -1.0202 -1.6992
 5224TIP3   OH237162   6.104   5.635  13.123  0.1489  0.0634  0.5466
 5224TIP3    H137163   6.070   5.568  13.182  0.6027 -0.7713 -0.1098
 5224TIP3    H237164   6.198   5.639  13.144  0.4819 -0.8318 -0.6355
 5225TIP3   OH237165   1.678   0.159   0.159 -0.1837  0.0700 -0.4398
 5225TIP3    H137166   1.642   0.228   0.215 -3.1154 -0.2988 -1.7099
 5225TIP3    H237167   1.662   0.190   0.070 -0.3791 -1.6771 -1.0397
 5226TIP3   OH237168   3.217   1.930  17.137  0.3854  0.1904 -0.2981
 5226TIP3    H137169   3.238   1.841  17.164 -1.1284 -0.5717 -1.4630
 5226TIP3    H237170   3.297   1.961  17.093  2.2320  0.8107  3.1599
 5227TIP3   OH237171   3.255   6.060   4.856 -0.0426 -0.0078  0.2045
 5227TIP3    H137172   3.226   5.970   4.870  0.0031 -0.2020 -0.8177
 5227TIP3    H237173   3.174   6.108   4.834 -0.0360  0.1535  0.5294
 5228TIP3   OH237174   3.967   4.809  17.087 -0.2414  0.6167  0.3634
 5228TIP3    H137175   3.906   4.876  17.055 -0.1821  1.4150  1.8231
 5228TIP3    H237176   3.911   4.746  17.133 -0.0879  0.7423  0.7222
 5229TIP3   OH237177   6.715   4.881   6.302  0.0322 -0.1183  0.5881
 5229TIP3    H137178   6.795   4.912   6.344  0.1529 -1.6715  1.5812
 5229TIP3    H237179   6.661   4.848   6.373 -1.3358  0.5050 -0.1172
 5230TIP3   OH237180   4.572   3.169   3.524 -0.3591  0.5546 -0.5549
 5230TIP3    H137181   4.511   3.113   3.474  0.5921  0.6072 -1.8220
 5230TIP3    H237182   4.515   3.222   3.580 -1.4366  0.0666 -1.1489
 5231TIP3   OH237183   6.551   2.453  17.002 -0.0957  0.3865 -0.4958
 5231TIP3    H137184   6.488   2.432  17.070  1.6214 -0.6620  0.8339
 5231TIP3    H237185   6.601   2.526  17.037  1.8432 -1.1644  0.1360
 5232TIP3   OH237186   0.336   4.038   0.050 -0.4399  0.2729 -0.2001
 5232TIP3    H137187   0.372   3.977   0.113  1.7034 -0.3578 -1.8997
 5232TIP3    H237188   0.342   3.991  -0.034 -1.8084  1.6075 -1.0888
 5233TIP3   OH237189   1.241   6.662  15.131 -0.1065  0.5623  0.3520
 5233TIP3    H137190   1.159   6.620  15.157  0.2520 -0.4748 -0.1477
 5233TIP3    H237191   1.280   6.602  15.068  1.5445  0.5061  1.3628
 5234TIP3   OH237192   3.550   3.108   0.871 -0.0282 -0.0784 -0.1920
 5234TIP3    H137193   3.464   3.066   0.869 -0.7543  0.8812  3.3057
 5234TIP3    H237194   3.559   3.148   0.785 -1.5627 -2.9314 -1.8238
 5235TIP3   OH237195   0.160   5.488  13.093  0.1459 -0.0130 -0.2684
 5235TIP3    H137196   0.106   5.426  13.045 -0.2483 -0.2239  0.4248
 5235TIP3    H237197   0.097   5.544  13.139  0.5053  0.0760  0.1288
 5236TIP3   OH237198   6.053   0.229  12.298  0.0539 -0.2905 -0.3804
 5236TIP3    H137199   6.049   0.265  12.210  0.5719 -1.1986 -0.7889
 5236TIP3    H237200   6.043   0.305  12.356 -0.3948  0.2984 -1.2117
 5237TIP3   OH237201   5.529   5.198   4.864  0.3490  0.5405 -0.2750
 5237TIP3    H137202   5.452   5.251   4.885  0.7014  0.6497  0.8242
 5237TIP3    H237203   5.601   5.261   4.862  0.8765  0.0674  1.6676
 5238TIP3   OH237204   2.468   0.848  16.828 -0.2815 -0.1454 -0.7857
 5238TIP3    H137205   2.464   0.883  16.916  1.3735  0.7546 -1.0271
 5238TIP3    H237206   2.437   0.758  16.836 -0.8520  0.1502  0.5584
 5239TIP3   OH237207   2.772   2.813   0.724 -0.5322 -0.1204  0.6113
 5239TIP3    H137208   2.826   2.736   0.709 -0.2815 -0.0145  0.9679
 5239TIP3    H237209   2.795   2.842   0.812  0.2795  1.0815  0.0356
 5240TIP3   OH237210   4.552   2.632   4.071  0.0777  0.1099 -0.2418
 5240TIP3    H137211   4.546   2.591   3.984 -1.3948 -2.0980  0.8125
 5240TIP3    H237212   4.625   2.589   4.114 -0.2304  0.0088  0.1908
 5241TIP3   OH237213   1.911   5.122   2.878 -0.0661 -0.3370  0.3100
 5241TIP3    H137214   1.986   5.066   2.897 -1.0122 -0.6174  3.7422
 5241TIP3    H237215   1.849   5.065   2.834  0.6036 -0.8379 -0.0127
 5242TIP3   OH237216   4.845   0.440  13.595 -0.6305 -0.2296  0.9691
 5242TIP3    H137217   4.921   0.407  13.548 -0.5553  0.4394  0.5953
 5242TIP3    H237218   4.881   0.507  13.654 -1.0629  1.1116 -0.2237
 5243TIP3   OH237219   2.951   4.259  17.671  0.2293  0.1881 -0.4129
 5243TIP3    H137220   3.026   4.311  17.644 -0.0901  0.9923  0.2001
 5243TIP3    H237221   2.922   4.215  17.591  1.9943 -1.0091 -0.4570
 5244TIP3   OH237222   0.558   3.377  15.853 -0.3247 -0.1577 -0.0180
 5244TIP3    H137223   0.496   3.451  15.857 -1.6632 -1.2487  0.2972
 5244TIP3    H237224   0.582   3.371  15.761 -0.4740  0.4480 -0.1039
 5245TIP3   OH237225   5.874   3.885   0.402  0.8892  0.0709  0.0933
 5245TIP3    H137226   5.792   3.918   0.440  1.0167  1.2868 -0.6464
 5245TIP3    H237227   5.877   3.923   0.314  3.0172  1.3784  0.6750
 5246TIP3   OH237228   1.672   0.248   1.284  0.2577 -0.0499  0.2943
 5246TIP3    H137229   1.590   0.202   1.265  1.5701 -2.2072 -0.5993
 5246TIP3    H237230   1.739   0.180   1.275  2.3046  1.9552 -0.4254
 5247TIP3   OH237231   3.153   6.282  13.618  0.0729 -0.2497  0.0161
 5247TIP3    H137232   3.089   6.303  13.549 -0.0889 -0.1606  0.1938
 5247TIP3    H237233   3.100   6.269  13.696  0.3697  1.2637  0.5114
 5248TIP3   OH237234   5.609   2.795  12.001 -0.8247  0.2354 -0.1872
 5248TIP3    H137235   5.551   2.869  12.020 -1.5670 -0.3281 -0.2215
 5248TIP3    H237236   5.669   2.828  11.935 -2.8564  0.0367 -2.2578
 5249TIP3   OH237237   5.096   1.451   4.500  0.1127 -0.1935  0.0145
 5249TIP3    H137238   5.021   1.507   4.482 -0.4707 -0.2907  1.9118
 5249TIP3    H237239   5.075   1.367   4.460  0.1084  0.3509 -1.1493
 5250TIP3   OH237240   2.523   2.896   3.000 -0.5229 -0.0212 -0.2158
 5250TIP3    H137241   2.481   2.967   2.953 -0.3104  0.8145  0.8267
 5250TIP3    H237242   2.466   2.820   2.984 -0.1582  0.0810 -2.2444
 5251TIP3   OH237243   3.508   3.789  17.207  0.6222  0.0473  0.6792
 5251TIP3    H137244   3.547   3.876  17.197  0.4725  0.3751  2.6315
 5251TIP3    H237245   3.578   3.729  17.183  0.9872  0.6790  0.1089
 5252TIP3   OH237246   6.343   1.777   3.333  0.4617  0.1476 -0.7136
 5252TIP3    H137247   6.247   1.775   3.343  0.6475 -2.3124  1.7321
 5252TIP3    H237248   6.357   1.829   3.253 -2.8560  0.9956 -0.9226
 5253TIP3   OH237249   1.915   0.678  15.416 -0.0905 -0.2049 -0.5097
 5253TIP3    H137250   1.892   0.771  15.412  0.2553 -0.1472 -1.1736
 5253TIP3    H237251   1.950   0.657  15.329  1.0489 -0.6368  0.0303
 5254TIP3   OH237252   1.271   0.675   4.063 -0.4201  0.1163 -0.6102
 5254TIP3    H137253   1.229   0.663   3.978 -0.5942 -0.2348 -0.4775
 5254TIP3    H237254   1.199   0.666   4.126 -0.2804  0.3000 -0.4234
 5255TIP3   OH237255   4.271   0.056  12.065 -0.0033  0.6891  0.3728
 5255TIP3    H137256   4.272  -0.032  12.103 -2.1982  0.8844  1.0524
 5255TIP3    H237257   4.213   0.048  11.989 -0.9817  1.6970  0.9797
 5256TIP3   OH237258   5.463   2.868  12.957 -0.2816 -0.2495  0.6040
 5256TIP3    H137259   5.513   2.786  12.950  1.0331  0.5573  0.2288
 5256TIP3    H237260   5.401   2.852  13.028  1.1446 -0.9803  1.7557
 5257TIP3   OH237261   1.027   4.234  13.497  0.4368  0.0628  0.5516
 5257TIP3    H137262   0.933   4.249  13.500  0.6058  2.3572 -1.7866
 5257TIP3    H237263   1.054   4.271  13.413  3.2822 -1.5777  0.6112
 5258TIP3   OH237264   3.130   4.547   0.890  0.3976 -0.1729  0.0610
 5258TIP3    H137265   3.098   4.538   0.800  0.2185  0.4518  0.0570
 5258TIP3    H237266   3.194   4.477   0.899  1.8487  0.9164 -1.1873
 5259TIP3   OH237267   3.844   1.340   0.341 -0.4598 -0.1822 -0.0412
 5259TIP3    H137268   3.911   1.346   0.409  0.6682  2.3011 -1.2565
 5259TIP3    H237269   3.793   1.420   0.349 -2.4527 -1.3721 -0.0713
 5260TIP3   OH237270   3.466   5.238   3.675 -0.0604  0.4699  0.2470
 5260TIP3    H137271   3.379   5.274   3.660 -0.5619 -0.8464 -0.0704
 5260TIP3    H237272   3.460   5.196   3.760 -0.4816 -1.7641 -0.8333
 5261TIP3   OH237273   2.052   4.717  12.021  0.3101  0.1993  0.4172
 5261TIP3    H137274   1.999   4.680  11.950 -2.1818  0.2631  2.1294
 5261TIP3    H237275   2.129   4.660  12.025 -0.8221 -1.5029 -0.5412
 5262TIP3   OH237276   2.920   2.987   4.809  0.2370  0.2329 -0.1321
 5262TIP3    H137277   2.982   2.948   4.747  0.7124  0.4719  0.1953
 5262TIP3    H237278   2.899   3.072   4.771 -0.9937 -0.4057 -0.9792
 5263TIP3   OH237279   1.938   6.148  13.299 -0.3605 -0.3881  0.6726
 5263TIP3    H137280   1.860   6.199  13.321 -0.3253 -0.1824  0.3277
 5263TIP3    H237281   2.006   6.214  13.285 -0.6892 -0.4221 -1.3360
 5264TIP3   OH237282   4.365   6.547  13.922 -0.2961 -0.4954 -0.2738
 5264TIP3    H137283   4.400   6.477  13.976  0.9395 -0.7829 -1.3822
 5264TIP3    H237284   4.274   6.523  13.906 -0.4280 -0.8438  0.9319
 5265TIP3   OH237285   1.661   4.332   1.541  0.0882  0.3210  0.2421
 5265TIP3    H137286   1.746   4.288   1.548 -0.4495 -0.7679  0.0703
 5265TIP3    H237287   1.632   4.313   1.452 -1.2178 -0.9730  0.9124
 5266TIP3   OH237288   5.981   2.735  12.691  0.0523  0.0058 -0.0718
 5266TIP3    H137289   5.886   2.737  12.696  0.1193  0.2436  2.0455
 5266TIP3    H237290   6.001   2.758  12.600 -1.8944  0.1146 -0.5080
 5267TIP3   OH237291   3.661   0.065  12.648 -0.7065 -0.1496  0.5239
 5267TIP3    H137292   3.586   0.011  12.674 -0.5263 -0.5362  0.2518
 5267TIP3    H237293   3.727   0.002  12.620 -0.0849  0.1559  1.2496
 5268TIP3   OH237294   3.785   6.505  16.730 -0.1437  0.2566  0.7545
 5268TIP3    H137295   3.723   6.444  16.771 -1.9236  2.1037  0.9650
 5268TIP3    H237296   3.838   6.538  16.802 -0.3129  0.2036  0.9026
 5269TIP3   OH237297   4.668   5.644  11.846  0.5704 -0.3897 -0.0408
 5269TIP3    H137298   4.667   5.548  11.850  2.3940 -0.4821 -0.7156
 5269TIP3    H237299   4.618   5.672  11.923  0.6425 -1.8893  0.5813
 5270TIP3   OH237300   3.329   3.293  17.539  0.0871 -0.3087  0.1349
 5270TIP3    H137301   3.407   3.275  17.591  0.3228  0.2509 -0.0268
 5270TIP3    H237302   3.264   3.230  17.572  0.3418 -0.2055  0.8549
 5271TIP3   OH237303   2.363   3.005  11.875  0.0257 -0.2474 -0.3197
 5271TIP3    H137304   2.343   2.959  11.794  1.0164 -0.8940 -0.2177
 5271TIP3    H237305   2.457   2.993  11.887 -0.0183  0.2409  0.6771
 5272TIP3   OH237306   4.819   4.660  12.241 -0.5876  0.1006  0.2701
 5272TIP3    H137307   4.880   4.592  12.268 -2.2006 -1.0145  1.1842
 5272TIP3    H237308   4.841   4.735  12.296 -0.9622 -0.7520  1.6148
 5273TIP3   OH237309   5.369   0.336  16.497  0.2599 -0.1670 -0.1766
 5273TIP3    H137310   5.389   0.361  16.407  2.2561 -0.5635  0.1235
 5273TIP3    H237311   5.274   0.322  16.497  0.2670 -0.5827 -2.3078
 5274TIP3   OH237312   3.429   5.346  14.607 -0.7144  0.1012  0.0771
 5274TIP3    H137313   3.445   5.435  14.577  0.6891 -0.4797 -0.9937
 5274TIP3    H237314   3.380   5.356  14.688  1.8783  1.9384  1.5171
 5275TIP3   OH237315   1.948   2.932  16.853 -0.2861 -0.4320  0.2707
 5275TIP3    H137316   1.928   3.019  16.820  1.9267  0.6337  1.4913
 5275TIP3    H237317   1.902   2.873  16.794 -0.5577  1.4978 -1.5787
 5276TIP3   OH237318   2.596   2.782   5.252  0.1616  0.4475 -0.5895
 5276TIP3    H137319   2.630   2.697   5.279 -1.6622 -0.7857 -1.9183
 5276TIP3    H237320   2.673   2.838   5.246  1.1838 -0.4283  2.4571
 5277TIP3   OH237321   1.506   0.472  13.095 -0.3605  0.1459  0.3572
 5277TIP3    H137322   1.532   0.393  13.047  1.9264  1.2395 -0.3141
 5277TIP3    H237323   1.514   0.447  13.187  0.8599 -0.2615  0.1498
 5278TIP3   OH237324   0.806   6.228   5.481 -0.1876 -0.2308 -0.2508
 5278TIP3    H137325   0.712   6.234   5.468 -0.1853 -0.3032 -0.3051
 5278TIP3    H237326   0.838   6.180   5.404 -0.0033  0.4851 -0.6319
 5279TIP3   OH237327   4.914   4.892   4.506  0.2253  0.2471 -0.2676
 5279TIP3    H137328   4.922   4.856   4.594 -1.3111  1.9916  0.6538
 5279TIP3    H237329   4.855   4.831   4.461 -0.7867  0.4993  0.6545
 5280TIP3   OH237330   1.373   4.327  16.261 -0.0470 -0.0854  0.0285
 5280TIP3    H137331   1.277   4.323  16.266 -0.3662  1.5314 -2.6120
 5280TIP3    H237332   1.402   4.319  16.352 -2.7891  1.1595  1.1471
 5281TIP3   OH237333   5.192   4.962   5.058  0.1538 -0.4973  0.0539
 5281TIP3    H137334   5.193   5.051   5.094  0.5261 -0.6285  0.3751
 5281TIP3    H237335   5.269   4.958   5.002 -0.5280 -0.2343 -0.9243
 5282TIP3   OH237336   0.417   4.620   2.772  0.2804 -0.2672 -0.3677
 5282TIP3    H137337   0.394   4.644   2.861  0.6523 -2.8270  0.4925
 5282TIP3    H237338   0.438   4.703   2.729  0.3537  0.9967  1.9884
 5283TIP3   OH237339   5.063   4.942  15.270  0.3680 -0.1986  0.0490
 5283TIP3    H137340   5.128   5.003  15.304  0.2318 -0.6377  1.1228
 5283TIP3    H237341   5.112   4.889  15.206 -0.0026  2.4149 -2.6456
 5284TIP3   OH237342   4.486   0.730  11.572 -0.0378  0.5700 -0.0631
 5284TIP3    H137343   4.469   0.672  11.498 -0.1539 -0.6340  0.8748
 5284TIP3    H237344   4.566   0.777  11.547 -0.9528  1.3887 -1.6269
 5285TIP3   OH237345   0.307   5.292   6.189  0.1050 -0.2287 -0.0190
 5285TIP3    H137346   0.217   5.261   6.181 -0.5435  1.5667 -0.1402
 5285TIP3    H237347   0.346   5.237   6.256 -0.8721 -1.4649 -0.4263
 5286TIP3   OH237348   3.168   4.977   2.036  0.1381 -0.6014 -0.2690
 5286TIP3    H137349   3.087   4.962   1.988  0.7187 -1.9775 -0.8895
 5286TIP3    H237350   3.233   4.995   1.968  0.6316 -0.9080  0.1154
 5287TIP3   OH237351   5.811   4.990  16.154 -0.1746  0.2526 -0.3114
 5287TIP3    H137352   5.762   5.029  16.226  2.4100  1.0790  1.1522
 5287TIP3    H237353   5.745   4.948  16.100 -2.7732  3.4341  0.0472
 5288TIP3   OH237354   4.428   5.209  10.809  0.0627 -0.2853  0.0631
 5288TIP3    H137355   4.423   5.290  10.758  0.4708  0.6946  1.4971
 5288TIP3    H237356   4.505   5.164  10.775 -0.1889 -0.1006 -0.7810
 5289TIP3   OH237357   1.713   1.814  15.673  0.3127  0.4772 -0.5351
 5289TIP3    H137358   1.758   1.899  15.674  4.8355 -1.6422 -1.2028
 5289TIP3    H237359   1.750   1.766  15.747 -0.7078 -1.5669 -1.2712
 5290TIP3   OH237360   4.900   2.524  13.982  0.3093  0.1952 -0.8585
 5290TIP3    H137361   4.880   2.448  14.037  0.1638  0.7214 -0.1700
 5290TIP3    H237362   4.937   2.588  14.042  1.0770  0.4215 -1.5618
 5291TIP3   OH237363   5.088   2.460  15.790  0.3011 -0.2236  0.3678
 5291TIP3    H137364   5.139   2.391  15.748 -0.2611 -1.1716  1.1886
 5291TIP3    H237365   5.001   2.422  15.802 -0.2725  0.9503  0.0435
 5292TIP3   OH237366   4.996   6.625   6.339  0.5362 -0.0483  0.0367
 5292TIP3    H137367   4.957   6.707   6.310  0.7078 -0.2596 -0.8233
 5292TIP3    H237368   5.078   6.651   6.382  1.2829  0.1740 -1.4352
 5293TIP3   OH237369   0.053   2.936  13.885 -0.4376  0.0768  0.1103
 5293TIP3    H137370  -0.001   2.871  13.931  0.0356 -1.7216 -1.7147
 5293TIP3    H237371   0.001   2.958  13.807  1.5131 -2.1200 -1.9914
 5294TIP3   OH237372   6.010   5.172   1.865 -0.1825  0.3943  0.0816
 5294TIP3    H137373   6.060   5.251   1.845 -1.8110  1.6662  0.8413
 5294TIP3    H237374   5.952   5.197   1.936 -3.1011 -0.4754 -1.8143
 5295TIP3   OH237375   4.495   6.526   0.238  0.2385 -0.5607 -0.2713
 5295TIP3    H137376   4.586   6.519   0.266  0.5524 -2.2452 -1.5880
 5295TIP3    H237377   4.495   6.500   0.146 -1.4601  0.1690 -0.5180
 5296TIP3   OH237378   2.973   2.478   3.584  0.4043 -0.1454 -0.5949
 5296TIP3    H137379   2.925   2.404   3.622  2.2956 -1.6986 -1.0879
 5296TIP3    H237380   2.946   2.553   3.637  0.4181 -1.6468  1.6782
 5297TIP3   OH237381   1.479   2.310   5.210  0.1288  0.1565 -0.3764
 5297TIP3    H137382   1.393   2.350   5.223  0.5341  1.0570 -0.3887
 5297TIP3    H237383   1.478   2.281   5.119 -0.8357 -1.5440  0.1269
 5298TIP3   OH237384   0.865   3.035  14.852  0.2681  0.7896 -0.3957
 5298TIP3    H137385   0.919   2.968  14.894  2.1377  0.6574 -2.8307
 5298TIP3    H237386   0.804   2.985  14.798 -1.1652  1.0052  0.9483
 5299TIP3   OH237387   2.132   1.436   0.968 -0.5004  0.0496 -0.2481
 5299TIP3    H137388   2.096   1.502   1.026  0.1687  0.3506 -0.1643
 5299TIP3    H237389   2.222   1.424   0.998  0.0848  0.7307 -1.6508
 5300TIP3   OH237390   5.900   0.568   5.506  0.0840 -0.6184 -0.4172
 5300TIP3    H137391   5.981   0.583   5.556  0.7396 -0.5720 -1.4458
 5300TIP3    H237392   5.908   0.479   5.473 -0.2505 -0.5871 -0.5881
 5301TIP3   OH237393   0.983   5.302   4.825  0.5164  0.0210  0.1895
 5301TIP3    H137394   0.938   5.221   4.850 -0.7998  0.0847 -1.6844
 5301TIP3    H237395   1.076   5.280   4.828  0.2317 -1.2058  0.8434
 5302TIP3   OH237396   6.395   6.526  15.098  0.4322  0.3793  0.4214
 5302TIP3    H137397   6.449   6.454  15.065 -0.6121  0.2865 -1.1839
 5302TIP3    H237398   6.332   6.484  15.156  0.5672  0.1584  0.4128
 5303TIP3   OH237399   5.401   0.385  12.983  0.3435  0.0900  0.3971
 5303TIP3    H137400   5.358   0.467  13.004 -1.1074 -0.8441  1.2280
 5303TIP3    H237401   5.331   0.330  12.947  1.3828 -0.6282 -0.5950
 5304TIP3   OH237402   2.582   3.266   3.558 -0.1915  0.1020 -0.0670
 5304TIP3    H137403   2.677   3.272   3.543  0.4606 -2.7249  2.0523
 5304TIP3    H237404   2.555   3.188   3.510 -0.8685 -0.6246  1.4263
 5305TIP3   OH237405   0.768   3.180  11.622  0.2925 -0.1219  0.9036
 5305TIP3    H137406   0.684   3.166  11.664  0.5761 -0.1774  1.4602
 5305TIP3    H237407   0.806   3.092  11.614 -0.2034 -0.2420 -0.4312
 5306TIP3   OH237408   5.416   5.227  16.426  0.1599 -0.1441 -0.0738
 5306TIP3    H137409   5.365   5.244  16.506  0.9952  1.0203  0.2344
 5306TIP3    H237410   5.365   5.267  16.356  0.4745  0.7116  0.1838
 5307TIP3   OH237411   2.059   5.833   4.106  0.2680 -0.2063  0.6954
 5307TIP3    H137412   2.051   5.861   4.015  0.8238  0.5964  0.8834
 5307TIP3    H237413   1.991   5.882   4.152  1.0735  0.6713  0.9814
 5308TIP3   OH237414   4.112   3.317   4.893 -0.5206  0.3139 -0.1684
 5308TIP3    H137415   4.124   3.403   4.933 -0.0986  0.3014 -0.2711
 5308TIP3    H237416   4.102   3.257   4.967 -0.4102  0.3906 -0.0909
 5309TIP3   OH237417   1.475   2.620  12.250 -0.3562  0.0852  0.3840
 5309TIP3    H137418   1.506   2.636  12.339  1.9843  1.2761 -0.5737
 5309TIP3    H237419   1.485   2.525  12.239 -2.5516 -0.4225  1.9666
 5310TIP3   OH237420   5.959   3.925  12.381  0.4644  0.1938 -0.1116
 5310TIP3    H137421   5.910   3.975  12.447 -1.1182  0.9705 -1.8042
 5310TIP3    H237422   5.957   3.980  12.303  2.0189 -0.8547 -0.9369
 5311TIP3   OH237423   5.558   6.425   5.574  0.0264  1.0530 -0.3480
 5311TIP3    H137424   5.525   6.344   5.535  0.2705 -0.1127  1.7365
 5311TIP3    H237425   5.487   6.456   5.630  1.4673 -0.2402  2.3879
 5312TIP3   OH237426   5.509   4.557   5.009  0.0090 -0.5749  0.2511
 5312TIP3    H137427   5.473   4.494   5.072 -4.6596  0.7913 -0.7440
 5312TIP3    H237428   5.507   4.511   4.925 -0.7180 -0.0415 -0.0300
 5313TIP3   OH237429   5.193   6.712   3.583 -0.4569 -0.0797 -0.0583
 5313TIP3    H137430   5.219   6.662   3.506  0.1503 -1.3099  0.9087
 5313TIP3    H237431   5.106   6.747   3.562 -0.0741  0.0582 -1.4837
 5314TIP3   OH237432   5.378   6.117   5.940  0.1932  0.1240 -0.3860
 5314TIP3    H137433   5.337   6.032   5.924  1.3021 -0.4549 -0.3129
 5314TIP3    H237434   5.404   6.113   6.032  1.9184 -0.2448 -0.8444
 5315TIP3   OH237435   6.139   5.845  17.198  0.5107  0.3140 -0.9932
 5315TIP3    H137436   6.094   5.800  17.270  1.6665 -0.8063 -0.9504
 5315TIP3    H237437   6.195   5.910  17.241  2.1180 -1.1667 -0.7598
 5316TIP3   OH237438   0.056   2.797  12.395 -0.4618  0.4002  0.2207
 5316TIP3    H137439   0.121   2.770  12.331 -0.5859  2.0074 -0.6426
 5316TIP3    H237440   0.007   2.717  12.415  2.7750 -1.2833  2.2090
 5317TIP3   OH237441   6.371   4.754  15.955 -0.0671 -0.2951 -0.5469
 5317TIP3    H137442   6.316   4.819  15.999  0.4034 -0.0928 -0.2558
 5317TIP3    H237443   6.324   4.672  15.966 -0.2301 -0.1512 -0.1526
 5318TIP3   OH237444   1.789   1.248   3.291 -0.2415 -0.1437 -0.1023
 5318TIP3    H137445   1.747   1.332   3.273  1.1844  0.6738  0.2392
 5318TIP3    H237446   1.742   1.186   3.235 -0.9027  0.9793 -0.8471
 5319TIP3   OH237447   2.217   3.368   6.658 -0.5557 -0.5736  0.1314
 5319TIP3    H137448   2.247   3.321   6.735 -0.6495  0.3685  0.7650
 5319TIP3    H237449   2.297   3.398   6.614 -0.5166 -0.1244  0.5022
 5320TIP3   OH237450   4.428   5.169   4.579 -0.1734  0.3602 -0.0861
 5320TIP3    H137451   4.356   5.231   4.587 -1.4071 -0.9106 -0.7752
 5320TIP3    H237452   4.504   5.222   4.554 -0.8817  1.7231  0.5759
 5321TIP3   OH237453   6.035   6.460  14.901  0.0702  0.1591  0.8517
 5321TIP3    H137454   6.105   6.395  14.895  0.4707  0.6692 -0.3365
 5321TIP3    H237455   5.955   6.410  14.888  0.3994 -0.0605 -0.4755
 5322TIP3   OH237456   2.603   6.264  11.434 -0.3940  0.0231  0.1151
 5322TIP3    H137457   2.665   6.295  11.368 -2.7880  0.8419 -1.8915
 5322TIP3    H237458   2.611   6.169  11.431  3.0606  0.0611  2.3738
 5323TIP3   OH237459   5.548   3.723  15.977 -0.0055  0.0137  0.0867
 5323TIP3    H137460   5.469   3.753  15.932  1.2348  0.5615 -1.8431
 5323TIP3    H237461   5.603   3.685  15.908  1.3903 -0.4376  1.3757
 5324TIP3   OH237462   2.374   2.162  16.292  0.4499  0.4563 -0.2786
 5324TIP3    H137463   2.349   2.228  16.227  1.5190  3.1774  1.8921
 5324TIP3    H237464   2.462   2.135  16.267  0.8152  1.4139 -0.0464
 5325TIP3   OH237465   5.218   5.713  14.547 -0.7260 -0.2248  1.0103
 5325TIP3    H137466   5.143   5.762  14.514 -1.1559  0.5103  2.9157
 5325TIP3    H237467   5.189   5.622  14.549 -0.9493 -0.1830  0.1721
 5326TIP3   OH237468   0.192   2.503  12.580 -0.5729 -0.5236 -0.2515
 5326TIP3    H137469   0.107   2.508  12.624  0.7123  1.3745  2.2831
 5326TIP3    H237470   0.256   2.529  12.647  2.5658 -5.4074 -0.7742
 5327TIP3   OH237471   3.483   0.817   1.023 -0.2504  0.5173  0.8916
 5327TIP3    H137472   3.558   0.867   1.056  1.2860 -1.3888  0.4755
 5327TIP3    H237473   3.480   0.838   0.929  0.0447  0.2616  0.8242
 5328TIP3   OH237474   3.323   5.155  12.278  0.0673  0.3578  0.2926
 5328TIP3    H137475   3.415   5.147  12.303  0.5234  4.0456  0.2955
 5328TIP3    H237476   3.319   5.235  12.227 -2.7077 -1.2828 -2.4126
 5329TIP3   OH237477   6.597   4.094   3.651 -0.6021 -0.0877 -0.1396
 5329TIP3    H137478   6.558   4.147   3.582 -0.0494  0.3600 -0.1128
 5329TIP3    H237479   6.545   4.014   3.652 -2.9258  1.3179  1.3436
 5330TIP3   OH237480   5.091   2.865   5.752  0.0823  0.2844  0.8923
 5330TIP3    H137481   5.045   2.783   5.735 -0.0310  0.0474  2.2348
 5330TIP3    H237482   5.077   2.918   5.674 -1.0108 -0.4489  0.5841
 5331TIP3   OH237483   3.839   2.590   4.278  0.4881 -0.4145  0.1672
 5331TIP3    H137484   3.869   2.563   4.191  1.2520  2.0087 -0.4179
 5331TIP3    H237485   3.745   2.606   4.267  0.5117 -0.4556 -0.1111
 5332TIP3   OH237486   3.927   6.368   0.938  0.2404 -0.7521  0.2636
 5332TIP3    H137487   3.955   6.342   0.850 -0.8172 -0.3531 -0.1991
 5332TIP3    H237488   3.948   6.292   0.993 -0.1058 -1.4448 -0.5302
 5333TIP3   OH237489   1.206   5.518  10.973 -0.2617  0.6364 -0.2249
 5333TIP3    H137490   1.114   5.515  10.947 -0.0975 -1.5191 -0.7143
 5333TIP3    H237491   1.205   5.501  11.067 -0.2768 -2.0963 -0.6411
 5334TIP3   OH237492   2.431   2.808  12.559  0.2689  0.4472 -0.9172
 5334TIP3    H137493   2.432   2.846  12.472 -3.2461  0.0333 -1.2935
 5334TIP3    H237494   2.367   2.860  12.607  1.7929  0.3819  1.3226
 5335TIP3   OH237495   0.112   5.396  12.417  0.2793 -0.0282  0.2175
 5335TIP3    H137496   0.092   5.363  12.505  1.2340 -0.3709  0.3261
 5335TIP3    H237497   0.113   5.318  12.362  0.6043  0.0619  0.0921
 5336TIP3   OH237498   5.225   2.466   5.925  0.0662  0.5036  0.2306
 5336TIP3    H137499   5.229   2.452   5.831 -1.4178 -0.4156  0.2870
 5336TIP3    H237500   5.301   2.419   5.959  0.2812  0.3484 -0.4417
 5337TIP3   OH237501   2.559   1.236  16.156  0.0528  0.0322 -0.1681
 5337TIP3    H137502   2.501   1.297  16.200  3.8452  2.2677  2.3353
 5337TIP3    H237503   2.559   1.158  16.211  0.2918  0.5110  0.5263
 5338TIP3   OH237504   0.142   1.628  16.527  0.1111  0.0927  0.1200
 5338TIP3    H137505   0.081   1.688  16.486  0.7104  0.4603 -0.2501
 5338TIP3    H237506   0.156   1.663  16.615  0.9685  0.8849 -0.3162
 5339TIP3   OH237507   5.462   5.034   1.563  0.8411  0.0067  0.2874
 5339TIP3    H137508   5.376   4.993   1.561  0.9105 -0.1669  0.7175
 5339TIP3    H237509   5.444   5.128   1.566  0.6835  0.0243 -1.0213
 5340TIP3   OH237510   5.059   4.888  14.244 -0.1043  0.1934  0.0589
 5340TIP3    H137511   4.971   4.850  14.241 -0.0888  0.1661 -0.0641
 5340TIP3    H237512   5.112   4.822  14.290  0.1595 -0.4191 -1.0811
 5341TIP3   OH237513   6.585   3.342  12.300 -0.4098  0.0939  0.7846
 5341TIP3    H137514   6.660   3.292  12.267  0.1718  0.8317  0.9632
 5341TIP3    H237515   6.509   3.294  12.268  0.1323  0.2020 -0.7663
 5342TIP3   OH237516   4.123   1.811   0.740 -0.3467 -0.0845  0.3026
 5342TIP3    H137517   4.134   1.766   0.657 -0.4127  1.8052 -0.7775
 5342TIP3    H237518   4.212   1.831   0.769 -0.2996 -1.1919  0.9761
 5343TIP3   OH237519   5.332   3.668  13.876 -0.2204 -0.2178 -0.0011
 5343TIP3    H137520   5.342   3.708  13.962 -2.1395  3.0086 -1.0953
 5343TIP3    H237521   5.248   3.622  13.880 -1.8255  2.4235 -0.8490
 5344TIP3   OH237522   0.027   1.078  15.182  0.1134 -0.1984 -0.6537
 5344TIP3    H137523  -0.001   0.990  15.157  2.5371 -1.0007 -0.8539
 5344TIP3    H237524   0.028   1.075  15.278  1.0160 -0.7238 -0.6621
 5345TIP3   OH237525   3.425   1.089   0.308 -0.4399 -0.3411  0.0434
 5345TIP3    H137526   3.518   1.087   0.284 -0.3572  0.5677  0.2540
 5345TIP3    H237527   3.383   1.134   0.235 -0.9851 -2.2148 -0.8521
 5346TIP3   OH237528   1.704   2.390   0.593 -0.3178  0.6832  0.4369
 5346TIP3    H137529   1.686   2.484   0.595 -0.1420  0.7671 -0.9336
 5346TIP3    H237530   1.735   2.369   0.681  1.4230  2.2769  0.2395
 5347TIP3   OH237531   1.964   3.971  15.338  0.1886 -0.4061  0.4262
 5347TIP3    H137532   2.022   3.952  15.264  0.3876 -0.0768  0.4968
 5347TIP3    H237533   1.989   4.059  15.366 -0.8434  0.0462 -0.0177
 5348TIP3   OH237534   1.134   5.040   3.162 -0.1422  0.4125  0.1696
 5348TIP3    H137535   1.089   5.118   3.128 -0.5964 -1.2832 -3.7009
 5348TIP3    H237536   1.223   5.047   3.126  0.1552 -0.3015  0.7529
 5349TIP3   OH237537   4.160   2.218   2.866 -0.4925  0.3302 -0.7796
 5349TIP3    H137538   4.088   2.181   2.918 -0.2428  0.0642 -0.6222
 5349TIP3    H237539   4.227   2.150   2.867 -0.7167  0.0771 -1.9420
 5350TIP3   OH237540   4.932   5.995   3.013 -0.0918  0.3933  0.0746
 5350TIP3    H137541   4.952   6.082   2.981 -1.7108  0.7788  0.0304
 5350TIP3    H237542   4.913   5.944   2.934  0.9380 -0.0359  0.0934
 5351TIP3   OH237543   3.858   5.033   3.929 -0.3815 -0.3561 -0.0534
 5351TIP3    H137544   3.803   5.025   3.851  0.0301  1.9252 -0.6481
 5351TIP3    H237545   3.947   5.026   3.897 -0.1887  1.0937  0.0909
 5352TIP3   OH237546   0.263   4.705  13.053 -0.3427  0.3924 -0.6460
 5352TIP3    H137547   0.312   4.625  13.032 -2.3274 -1.0316 -0.1302
 5352TIP3    H237548   0.286   4.724  13.144 -2.0396 -1.3498  0.2236
 5353TIP3   OH237549   5.306   6.358   4.145  0.2843 -0.1299 -0.2012
 5353TIP3    H137550   5.376   6.297   4.167  0.8026 -0.1799 -1.8189
 5353TIP3    H237551   5.340   6.443   4.171  0.0892 -0.3772  0.8918
 5354TIP3   OH237552   5.434   2.265  15.223  0.4660  0.8706  0.2463
 5354TIP3    H137553   5.349   2.267  15.266  0.5564  0.1186  0.4725
 5354TIP3    H237554   5.478   2.188  15.260  0.6675  0.3803 -0.9683
 5355TIP3   OH237555   6.433   3.489  15.113 -0.4766  0.2287  0.0964
 5355TIP3    H137556   6.493   3.420  15.086  0.0311  0.8927 -0.5220
 5355TIP3    H237557   6.433   3.486  15.209  3.6083  2.6839  0.3766
 5356TIP3   OH237558   0.066   2.863   0.312  0.3306  0.0650  0.4350
 5356TIP3    H137559   0.032   2.831   0.228 -0.9984  1.6531  0.3157
 5356TIP3    H237560   0.054   2.958   0.308  1.1722  0.2785  2.0401
 5357TIP3   OH237561   2.538   6.355   1.370  0.8069  0.0664  0.2672
 5357TIP3    H137562   2.613   6.377   1.315  0.3594  2.9125  0.6487
 5357TIP3    H237563   2.572   6.353   1.459  0.7065 -0.1380  0.3022
 5358TIP3   OH237564   1.236   5.346   3.165  0.0675  0.6630 -0.3261
 5358TIP3    H137565   1.208   5.402   3.237 -0.7516 -1.7175  1.3182
 5358TIP3    H237566   1.326   5.322   3.186 -0.4663 -0.7660  0.4603
 5359TIP3   OH237567   0.185   6.713  16.966  0.3418 -0.5646 -0.1238
 5359TIP3    H137568   0.270   6.755  16.961  0.5219 -0.9675 -0.5041
 5359TIP3    H237569   0.173   6.695  17.060 -0.8347  2.4997  0.4114
 5360TIP3   OH237570   5.469   5.169  13.565 -0.2902  0.0044 -0.4231
 5360TIP3    H137571   5.542   5.189  13.507 -1.9447  1.2156 -2.2226
 5360TIP3    H237572   5.439   5.254  13.598 -0.5826 -0.5094  0.7029
 5361TIP3   OH237573   6.410   2.898  17.147 -0.2932 -0.0889 -0.6560
 5361TIP3    H137574   6.320   2.894  17.180 -0.0602  2.3243  0.5675
 5361TIP3    H237575   6.418   2.988  17.114  0.9004 -1.0689 -3.2475
 5362TIP3   OH237576   6.361   5.377  14.682 -0.1525 -0.0934 -0.0922
 5362TIP3    H137577   6.351   5.470  14.661 -0.4972  0.5152  2.3758
 5362TIP3    H237578   6.455   5.366  14.698 -0.1677 -0.0753  0.0085
 5363TIP3   OH237579   4.871   5.920   2.423 -0.2881  0.0415  0.0626
 5363TIP3    H137580   4.872   5.919   2.327  1.8296 -1.6106  0.0346
 5363TIP3    H237581   4.778   5.922   2.446 -0.8302  1.5631 -1.9857
 5364TIP3   OH237582   2.065   6.324  14.262  0.1849 -0.2744 -0.3454
 5364TIP3    H137583   2.068   6.394  14.196 -2.6031 -1.1948 -1.5888
 5364TIP3    H237584   2.073   6.243  14.211  2.9340 -0.9828  1.0372
 5365TIP3   OH237585   2.572   5.056  16.263  0.2887 -0.2014 -0.1193
 5365TIP3    H137586   2.492   5.006  16.278 -0.7215  1.2669 -0.3948
 5365TIP3    H237587   2.632   5.028  16.332 -1.0438 -0.1599  1.0984
 5366TIP3   OH237588   4.297   5.285  13.975  0.0662 -0.3246  0.4406
 5366TIP3    H137589   4.367   5.349  13.962  0.7560 -0.5122  2.7484
 5366TIP3    H237590   4.219   5.338  13.992 -0.2953 -0.1208 -1.6067
 5367TIP3   OH237591   1.802   6.095   0.538  0.5675  0.3873  0.9418
 5367TIP3    H137592   1.884   6.097   0.588  1.5543  0.1888 -0.5994
 5367TIP3    H237593   1.805   6.012   0.491  1.1895  1.8518 -1.7978
 5368TIP3   OH237594   5.130   0.425  12.384  0.0345 -0.5261 -0.6039
 5368TIP3    H137595   5.083   0.341  12.383 -1.5427  0.3079  0.0895
 5368TIP3    H237596   5.222   0.401  12.398 -0.6154 -2.0703  1.5513
 5369TIP3   OH237597   2.355   5.738  12.374  0.2464 -0.5167 -0.5930
 5369TIP3    H137598   2.384   5.828  12.358  2.2023 -1.2381 -1.3397
 5369TIP3    H237599   2.343   5.701  12.287 -3.8081 -0.1153 -0.4027
 5370TIP3   OH237600   4.057   4.175   2.301  0.2045  0.1668  0.4048
 5370TIP3    H137601   4.146   4.151   2.326 -0.6510 -0.3625  3.3031
 5370TIP3    H237602   4.045   4.136   2.214  3.1240  1.2936 -0.6288
 5371TIP3   OH237603   3.561   4.615  12.655  0.8452 -0.2049  0.3149
 5371TIP3    H137604   3.471   4.649  12.653  1.2728  1.0837  1.5815
 5371TIP3    H237605   3.554   4.534  12.706  0.2178 -0.8008 -0.6706
 5372TIP3   OH237606   5.461   1.276   2.100 -0.1376  0.5234 -0.0036
 5372TIP3    H137607   5.537   1.241   2.147  1.4452 -0.8594 -3.2755
 5372TIP3    H237608   5.477   1.371   2.095  1.2890  0.2825 -0.4135
 5373TIP3   OH237609   1.094   6.029   0.976 -0.0154 -0.3339 -0.1357
 5373TIP3    H137610   1.167   5.993   1.026  1.0760  3.1468  1.0952
 5373TIP3    H237611   1.136   6.082   0.908 -1.3910  0.7482 -0.1785
 5374TIP3   OH237612   6.638   6.009  15.078  0.0549 -0.0503 -0.7196
 5374TIP3    H137613   6.651   5.936  15.138  1.7917  1.1069  0.4027
 5374TIP3    H237614   6.700   5.993  15.007  2.7383  1.7450  1.0185
 5375TIP3   OH237615   4.556   0.477  12.989 -0.1887 -0.3525  0.3562
 5375TIP3    H137616   4.626   0.536  13.017 -2.8922  2.6749  1.4538
 5375TIP3    H237617   4.574   0.460  12.896  0.4569  2.8777 -0.2265
 5376TIP3   OH237618   6.303   5.863   6.048  0.3897  0.2292 -0.0450
 5376TIP3    H137619   6.303   5.958   6.042 -0.7555  0.1425 -3.2843
 5376TIP3    H237620   6.241   5.842   6.117 -0.6050  1.8278 -0.4252
 5377TIP3   OH237621   6.208   3.331  14.628  0.6691  0.1367  0.0092
 5377TIP3    H137622   6.221   3.237  14.635  0.1961  0.1562  1.5530
 5377TIP3    H237623   6.156   3.342  14.548 -0.1708 -1.0123  0.3748
 5378TIP3   OH237624   4.018   1.243   0.954  0.1808 -0.2080 -0.2273
 5378TIP3    H137625   3.984   1.162   0.993 -1.1806  0.0101 -0.8840
 5378TIP3    H237626   3.964   1.312   0.992  0.3753  0.2397 -0.7509
 5379TIP3   OH237627   2.269   0.885  16.386  1.1810 -0.1408 -0.6435
 5379TIP3    H137628   2.178   0.866  16.364  0.8552  1.8819 -1.2428
 5379TIP3    H237629   2.265   0.960  16.444  2.4455 -0.6692  0.1770
 5380TIP3   OH237630   3.892   0.634   0.003  0.5713 -0.1891 -0.1339
 5380TIP3    H137631   3.816   0.666   0.052 -0.2721  0.8923 -2.0569
 5380TIP3    H237632   3.922   0.709  -0.048  2.5329 -0.7938  0.0336
 5381TIP3   OH237633   6.066   2.337   6.342 -0.1007 -0.7801  0.5114
 5381TIP3    H137634   6.038   2.398   6.274 -1.6080  0.4735  2.1419
 5381TIP3    H237635   6.054   2.386   6.424  3.4260 -1.4876  1.6609
 5382TIP3   OH237636   4.309   3.022  17.317  0.4202  0.0300  0.1209
 5382TIP3    H137637   4.230   3.035  17.371 -1.6119 -1.7699 -2.1650
 5382TIP3    H237638   4.382   3.033  17.378 -1.6717 -1.4761  3.1458
 5383TIP3   OH237639   3.197   2.827   5.445 -0.4229 -0.4463 -0.4266
 5383TIP3    H137640   3.102   2.834   5.450 -0.3526  2.1075 -0.9174
 5383TIP3    H237641   3.227   2.855   5.531 -0.1215  1.2910 -1.0504
 5384TIP3   OH237642   3.701   2.127  13.148 -0.0448  0.4255  0.1264
 5384TIP3    H137643   3.749   2.209  13.162  1.4931 -0.3727 -0.2861
 5384TIP3    H237644   3.630   2.130  13.212 -0.3879  2.3520 -0.2820
 5385TIP3   OH237645   2.827   0.460   2.604 -0.1267 -0.0820 -0.0809
 5385TIP3    H137646   2.806   0.407   2.526 -0.0134 -0.4054  0.1042
 5385TIP3    H237647   2.805   0.403   2.678  1.1068 -0.3383  0.1233
 5386TIP3   OH237648   5.905   3.295   4.948 -0.3703 -0.3367 -0.4745
 5386TIP3    H137649   5.989   3.329   4.979 -0.0453 -1.2469 -0.3087
 5386TIP3    H237650   5.854   3.279   5.028  0.8770 -3.7380 -0.1869
 5387TIP3   OH237651   6.353   6.151  12.159  0.1970  0.0625 -0.6713
 5387TIP3    H137652   6.297   6.163  12.083  1.0601 -1.2874 -1.5544
 5387TIP3    H237653   6.382   6.060  12.155  1.8242  0.4911  0.1806
 5388TIP3   OH237654   2.857   2.230  17.295 -0.2800 -0.2212 -0.2444
 5388TIP3    H137655   2.942   2.257  17.261  0.8571 -2.1262  0.9294
 5388TIP3    H237656   2.809   2.199  17.218 -0.2255  1.4904 -1.0162
 5389TIP3   OH237657   4.346   5.205   0.302 -0.1474 -0.3436 -0.4362
 5389TIP3    H137658   4.433   5.170   0.321 -0.0529 -0.1700 -0.5476
 5389TIP3    H237659   4.345   5.217   0.207 -0.1496  0.0296 -0.3913
 5390TIP3   OH237660   0.123   2.549   3.503 -0.1149 -0.3540  0.2351
 5390TIP3    H137661   0.126   2.644   3.510  0.0091 -0.3531  0.1752
 5390TIP3    H237662   0.061   2.522   3.571 -1.1039 -0.1441 -0.5696
 5391TIP3   OH237663   6.090   4.066   1.599 -0.6719 -0.1032 -0.1734
 5391TIP3    H137664   6.025   4.000   1.573 -0.6287 -0.6968  1.1500
 5391TIP3    H237665   6.154   4.017   1.650  0.1688  0.7126 -0.4207
 5392TIP3   OH237666   4.311   3.631  13.979 -0.4156 -0.2113 -0.7810
 5392TIP3    H137667   4.257   3.554  13.997 -1.3463  0.9322  1.8687
 5392TIP3    H237668   4.250   3.696  13.947 -0.3646  0.5620  0.6178
 5393TIP3   OH237669   4.761   2.960  14.810  0.2290 -0.0951 -0.0599
 5393TIP3    H137670   4.717   3.037  14.773 -1.5654 -0.8480  0.3663
 5393TIP3    H237671   4.833   2.995  14.862 -0.2575  1.2635 -0.2678
 5394TIP3   OH237672   0.290   3.728  17.354  0.2682 -0.1682  0.4488
 5394TIP3    H137673   0.200   3.761  17.348 -0.7105 -2.5780  0.7469
 5394TIP3    H237674   0.282   3.647  17.404  3.0131  0.8521  2.7518
 5395TIP3   OH237675   4.360   4.034   5.688  0.0620 -0.3305  0.2336
 5395TIP3    H137676   4.408   4.114   5.670  0.9746 -0.9380 -0.1022
 5395TIP3    H237677   4.325   4.007   5.602  0.2528 -0.6014  0.2391
 5396TIP3   OH237678   4.844   2.279  14.100  0.1640  0.5050  1.0628
 5396TIP3    H137679   4.859   2.193  14.061 -0.8099  1.0250 -0.5438
 5396TIP3    H237680   4.828   2.261  14.193  1.4731 -0.8829  1.0479
 5397TIP3   OH237681   1.733   2.118  14.274 -0.5041  0.5945 -0.3440
 5397TIP3    H137682   1.824   2.140  14.253 -0.5644  1.4959  0.2645
 5397TIP3    H237683   1.704   2.189  14.333 -0.6256 -1.3062  2.0424
 5398TIP3   OH237684   5.287   4.441   3.191 -0.0861 -0.1599 -0.0419
 5398TIP3    H137685   5.234   4.502   3.242  0.2429  0.5116 -0.5005
 5398TIP3    H237686   5.373   4.443   3.233 -0.6209 -1.9474  1.2872
 5399TIP3   OH237687   2.177   3.016   5.882 -0.3636 -0.7031 -0.2141
 5399TIP3    H137688   2.139   3.104   5.893  1.5906  0.0295  1.2441
 5399TIP3    H237689   2.112   2.957   5.920 -1.5055  0.1259 -0.8002
 5400TIP3   OH237690   0.231   2.746  12.180  0.0915 -0.3141  0.1825
 5400TIP3    H137691   0.173   2.679  12.145 -0.3714  0.8339 -1.3630
 5400TIP3    H237692   0.319   2.712  12.165 -0.0594  0.4413 -2.9380
 5401TIP3   OH237693   3.955   2.137   4.924  0.1063 -0.4193  0.4607
 5401TIP3    H137694   3.899   2.210   4.896  2.5854  1.3329 -0.3636
 5401TIP3    H237695   4.008   2.118   4.847  0.7452 -1.8976  1.2418
 5402TIP3   OH237696   5.025   2.489  16.353  0.1244  0.2372  0.2308
 5402TIP3    H137697   5.055   2.529  16.271 -0.4961  1.6756  0.6776
 5402TIP3    H237698   5.037   2.557  16.419  0.5197 -0.8741  1.3366
 5403TIP3   OH237699   3.503   5.231  17.030  0.2167 -0.5184  0.5879
 5403TIP3    H137700   3.524   5.238  17.123 -0.5187  0.6732  0.6848
 5403TIP3    H237701   3.412   5.202  17.028 -1.6565  4.3727  0.4538
 5404TIP3   OH237702   0.423   0.386   5.041  0.1111 -0.1285 -0.3566
 5404TIP3    H137703   0.467   0.437   5.109 -0.6762 -1.0442  0.8933
 5404TIP3    H237704   0.369   0.449   4.995 -0.8780  0.2072  1.1818
 5405TIP3   OH237705   5.080   0.017  17.164  0.0159  0.3526 -0.3383
 5405TIP3    H137706   5.012  -0.051  17.166 -0.2933  0.6849  1.2616
 5405TIP3    H237707   5.098   0.036  17.256 -1.0637  3.6223 -0.7047
 5406TIP3   OH237708   4.581   5.542  15.405 -0.2007 -0.4313  0.2600
 5406TIP3    H137709   4.613   5.546  15.314  1.1208  1.1574  0.7401
 5406TIP3    H237710   4.651   5.496  15.452 -0.6588 -0.8117  0.5741
 5407TIP3   OH237711   6.338   0.294   1.016 -0.0079  0.8780  0.2214
 5407TIP3    H137712   6.312   0.220   1.071  0.9467 -0.9128 -1.5951
 5407TIP3    H237713   6.434   0.291   1.016  0.0302  0.0123 -2.4761
 5408TIP3   OH237714   5.775   3.237  16.671 -0.4908  0.6505  0.2997
 5408TIP3    H137715   5.853   3.260  16.620 -0.2453 -0.3673  0.1754
 5408TIP3    H237716   5.795   3.265  16.760  1.2836 -2.0887  0.9097
 5409TIP3   OH237717   5.836   3.242   2.284  0.8328  0.2354 -0.5002
 5409TIP3    H137718   5.880   3.158   2.275  0.2651 -0.3671  1.6748
 5409TIP3    H237719   5.892   3.291   2.345  0.5807  1.0046 -0.8868
 5410TIP3   OH237720   5.140   4.849  12.890  0.0753  0.5472  0.2975
 5410TIP3    H137721   5.180   4.850  12.977  0.3844  1.7668  0.1690
 5410TIP3    H237722   5.103   4.762  12.881  2.0641 -0.3989  0.7229
 5411TIP3   OH237723   2.740   1.160   1.230  0.4456  0.5091 -0.2255
 5411TIP3    H137724   2.759   1.237   1.177  0.8016  0.4292 -0.2167
 5411TIP3    H237725   2.758   1.187   1.320  1.6956  0.0787 -0.3278
 5412TIP3   OH237726   0.680   3.833  13.494 -0.2249 -0.3138 -0.0874
 5412TIP3    H137727   0.599   3.844  13.544  0.2929 -0.3322  0.7750
 5412TIP3    H237728   0.705   3.922  13.468 -2.5175 -0.5024 -3.7131
 5413TIP3   OH237729   5.659   3.068   0.971  0.0818 -0.3885 -0.3083
 5413TIP3    H137730   5.752   3.083   0.954 -0.4879  1.2677 -2.3280
 5413TIP3    H237731   5.632   3.143   1.024 -0.4952  0.1972 -1.4013
 5414TIP3   OH237732   0.364   0.681   3.510  0.2463 -0.3834  0.0560
 5414TIP3    H137733   0.453   0.689   3.544  0.3849  0.7030 -0.5364
 5414TIP3    H237734   0.375   0.667   3.416 -0.1927 -1.3427  0.1316
 5415TIP3   OH237735   3.393   3.817   0.041  0.1903 -0.4623  0.6765
 5415TIP3    H137736   3.415   3.745  -0.019  2.4219 -0.7091  1.6690
 5415TIP3    H237737   3.463   3.881   0.027 -1.2651  1.1371  0.4643
 5416TIP3   OH237738   1.276   4.382  12.000  0.0269  0.3581  0.3866
 5416TIP3    H137739   1.227   4.307  12.035 -0.3759  1.3907  2.1429
 5416TIP3    H237740   1.249   4.387  11.908 -0.1755 -1.4405  0.3088
 5417TIP3   OH237741   4.293   0.457  11.506 -0.5366 -0.3404  0.5784
 5417TIP3    H137742   4.198   0.451  11.496 -0.6578  2.6530 -1.2162
 5417TIP3    H237743   4.322   0.510  11.432  2.5766 -1.0604  1.1179
 5418TIP3   OH237744   3.913   2.794  16.845  0.2549  0.0856  0.7164
 5418TIP3    H137745   3.937   2.713  16.892  1.9062  0.3601  0.3896
 5418TIP3    H237746   3.995   2.824  16.805 -0.7729  0.7788 -0.9570
 5419TIP3   OH237747   2.718   0.376   5.308 -0.1400 -0.4641  0.9876
 5419TIP3    H137748   2.638   0.425   5.290  0.9894  0.3030 -2.8468
 5419TIP3    H237749   2.783   0.413   5.248  2.4978 -2.5619  2.3302
 5420TIP3   OH237750   4.533   5.848  17.669 -0.1896  0.4923 -0.2172
 5420TIP3    H137751   4.524   5.771  17.613  1.0163  0.3436 -0.2314
 5420TIP3    H237752   4.443   5.875  17.687 -0.6139  0.1158 -1.6288
 5421TIP3   OH237753   4.873   0.692   4.623  0.2006 -0.0904  0.1071
 5421TIP3    H137754   4.827   0.672   4.542 -1.0044  0.7838  0.5616
 5421TIP3    H237755   4.959   0.723   4.595 -1.0242  2.5192 -0.9931
 5422TIP3   OH237756   2.233   1.239   4.875 -0.3613 -0.1274 -0.5156
 5422TIP3    H137757   2.171   1.179   4.834  0.8804 -0.6596 -1.6760
 5422TIP3    H237758   2.275   1.187   4.943 -1.0333  0.1871  0.1621
 5423TIP3   OH237759   4.010   2.344  12.889  0.2038 -0.4986  0.2976
 5423TIP3    H137760   3.966   2.265  12.856  2.5538 -0.7642 -2.6055
 5423TIP3    H237761   3.939   2.401  12.917 -1.6731 -2.8508  0.6340
 5424TIP3   OH237762   2.360   0.869  15.644 -0.0573 -0.0140  0.0856
 5424TIP3    H137763   2.454   0.883  15.657 -0.2457  0.4669  1.0234
 5424TIP3    H237764   2.345   0.778  15.670 -0.0474  0.2760  1.1643
 5425TIP3   OH237765   4.649   0.523   5.041 -0.7675 -0.0248  0.4584
 5425TIP3    H137766   4.724   0.552   5.092 -2.3251  3.5001  1.0671
 5425TIP3    H237767   4.573   0.542   5.097 -2.3013  0.0809 -1.5224
 5426TIP3   OH237768   5.974   2.751   2.632  0.0217  0.2615  0.3147
 5426TIP3    H137769   5.967   2.716   2.721  1.8059 -1.1656 -0.0558
 5426TIP3    H237770   6.060   2.792   2.629 -0.8706  2.2408 -0.1690
 5427TIP3   OH237771   1.078   2.737  13.500  1.3057 -0.0136  0.4336
 5427TIP3    H137772   1.007   2.742  13.436 -0.0204 -1.5925  1.6820
 5427TIP3    H237773   1.122   2.655  13.480  1.8146  0.2134  0.6289
 5428TIP3   OH237774   2.512   0.027   2.067  0.1460  0.6247 -0.3061
 5428TIP3    H137775   2.578   0.091   2.041  0.2593  0.1915 -1.0869
 5428TIP3    H237776   2.496  -0.025   1.989  1.4386 -1.5748  0.8164
 5429TIP3   OH237777   4.385   0.144  13.884  1.0795 -0.1063  0.2657
 5429TIP3    H137778   4.321   0.099  13.940 -0.6084  1.4243 -0.3141
 5429TIP3    H237779   4.426   0.075  13.833 -1.5502 -1.0427 -0.7387
 5430TIP3   OH237780   3.442   1.284   2.523  0.5090 -0.2026 -0.0318
 5430TIP3    H137781   3.411   1.321   2.440 -0.8613  1.3758  1.1139
 5430TIP3    H237782   3.378   1.217   2.545 -1.0327  1.6017  1.2842
 5431TIP3   OH237783   5.607   2.072  13.498 -0.2444  0.2112 -0.4141
 5431TIP3    H137784   5.540   2.107  13.440 -0.5600  0.6494  0.2075
 5431TIP3    H237785   5.562   2.006  13.551 -0.9550  2.4812  2.0154
 5432TIP3   OH237786   3.418   5.735   6.044 -0.1855 -0.1519  0.0608
 5432TIP3    H137787   3.459   5.730   5.958 -0.6308  1.3399 -0.2756
 5432TIP3    H237788   3.340   5.788   6.030 -0.3387 -0.0017  1.3551
 5433TIP3   OH237789   1.098   6.403  13.176  0.1117  0.0333 -0.7918
 5433TIP3    H137790   1.132   6.489  13.201  0.8718 -0.1206 -1.2735
 5433TIP3    H237791   1.133   6.387  13.089 -2.2283  0.4075 -1.8897
 5434TIP3   OH237792   5.020   2.998  16.904 -0.5218  0.2212 -0.4154
 5434TIP3    H137793   5.058   3.071  16.855 -0.5148  0.8123  0.4547
 5434TIP3    H237794   4.927   3.001  16.884 -0.9676  2.0758  1.5811
 5435TIP3   OH237795   2.356   4.951  13.302  0.2965 -0.0038 -0.0349
 5435TIP3    H137796   2.341   4.858  13.317 -1.8063  0.2247 -0.4172
 5435TIP3    H237797   2.290   4.976  13.237 -0.3883  2.1230  1.3773
 5436TIP3   OH237798   6.537   3.966   3.277 -0.0702  0.0751  0.3010
 5436TIP3    H137799   6.527   3.975   3.182  0.8668 -2.3623 -0.1267
 5436TIP3    H237800   6.547   3.871   3.290 -0.5068  0.3223  2.8879
 5437TIP3   OH237801   6.185   6.228  12.936  0.2446  0.0578  0.4560
 5437TIP3    H137802   6.257   6.173  12.968 -0.3144 -0.2669  1.1722
 5437TIP3    H237803   6.220   6.317  12.939  1.8236 -0.3123 -2.4227
 5438TIP3   OH237804   0.689   3.326   1.733  0.2154  0.1894 -0.1735
 5438TIP3    H137805   0.685   3.384   1.809  0.3983  1.6083 -1.2116
 5438TIP3    H237806   0.779   3.295   1.730  0.2420  0.2394  0.0967
 5439TIP3   OH237807   0.315   0.798  13.573 -0.4359  0.1040  0.0885
 5439TIP3    H137808   0.272   0.715  13.549 -0.7852 -0.4224  2.2402
 5439TIP3    H237809   0.384   0.809  13.508  1.1020 -3.0885  0.9251
 5440TIP3   OH237810   5.490   5.208   1.213  0.3565  0.5294  0.1491
 5440TIP3    H137811   5.532   5.184   1.295  0.3163 -1.8269 -0.4417
 5440TIP3    H237812   5.549   5.272   1.173  1.7866 -0.3564  0.7742
 5441TIP3   OH237813   6.267   1.339  16.901  0.5211  0.0187 -0.2019
 5441TIP3    H137814   6.216   1.275  16.851  1.5379  0.3433 -1.7423
 5441TIP3    H237815   6.317   1.386  16.834  0.9933  1.3475  1.0404
 5442TIP3   OH237816   1.275   1.972  16.456  0.3687 -0.2873 -0.0158
 5442TIP3    H137817   1.345   1.957  16.393 -0.9651 -0.6041 -1.4767
 5442TIP3    H237818   1.234   2.053  16.428 -2.4741 -2.1649 -1.8174
 5443TIP3   OH237819   0.557   6.472  16.794 -0.4439  0.4735 -0.2636
 5443TIP3    H137820   0.496   6.516  16.735 -1.2727  2.0815  1.6753
 5443TIP3    H237821   0.603   6.544  16.838  1.2159 -0.6890  0.0155
 5444TIP3   OH237822   1.337   6.398  15.474 -0.2215 -0.2939  0.2032
 5444TIP3    H137823   1.355   6.326  15.414 -2.5101 -3.7958  3.2907
 5444TIP3    H237824   1.250   6.429  15.449 -0.1448 -0.0492  0.2330
 5445TIP3   OH237825   3.203   1.825  16.765  0.3961 -0.5007  0.6169
 5445TIP3    H137826   3.165   1.758  16.820  0.5137 -1.0562  0.0333
 5445TIP3    H237827   3.223   1.780  16.683 -2.8355  0.9343 -1.1847
 5446TIP3   OH237828   2.351   0.736  13.345 -0.0412  0.0684 -0.2383
 5446TIP3    H137829   2.283   0.792  13.382  1.1243  0.1490  1.9478
 5446TIP3    H237830   2.425   0.746  13.404  1.6271 -0.6220 -2.1058
 5447TIP3   OH237831   4.355   6.618  10.787 -0.5838 -0.3908 -0.3338
 5447TIP3    H137832   4.272   6.664  10.797 -2.5381 -3.4830 -0.8437
 5447TIP3    H237833   4.381   6.597  10.877  0.1322  1.2346 -0.1235
 5448TIP3   OH237834   6.480   2.054   3.115  0.4976  0.2753  0.1883
 5448TIP3    H137835   6.400   2.104   3.099  0.3823 -0.0919 -0.4351
 5448TIP3    H237836   6.523   2.100   3.187  1.2319  2.3061 -1.4413
 5449TIP3   OH237837   2.080   6.653  12.827 -0.1638 -0.4161 -0.2669
 5449TIP3    H137838   2.038   6.569  12.807 -0.8421 -0.4063  1.0148
 5449TIP3    H237839   2.073   6.703  12.745 -1.5545 -0.8837 -0.4614
 5450TIP3   OH237840   5.295   5.952  11.250 -0.4958  0.1875 -0.2355
 5450TIP3    H137841   5.302   5.893  11.326 -0.2652  0.8232  0.2464
 5450TIP3    H237842   5.362   5.921  11.190  0.3148  0.5751  0.4510
 5451TIP3   OH237843   3.736   2.018  14.909  0.1223  0.1410 -0.5956
 5451TIP3    H137844   3.815   2.051  14.866  1.5742 -1.2437  0.8858
 5451TIP3    H237845   3.722   2.078  14.982 -1.1394  1.2713 -1.7023
 5452TIP3   OH237846   5.893   4.720  11.588  0.4755  0.0190 -0.4364
 5452TIP3    H137847   5.819   4.676  11.546  0.3350  0.6883 -0.9024
 5452TIP3    H237848   5.915   4.792  11.529  0.9312  0.3597  0.1350
 5453TIP3   OH237849   2.170   6.121  12.806 -0.0170  0.0587  0.0536
 5453TIP3    H137850   2.093   6.066  12.822 -0.1110  0.0668 -0.3500
 5453TIP3    H237851   2.186   6.113  12.712 -1.1076  2.1234 -0.3626
 5454TIP3   OH237852   5.493   3.623  17.339 -0.1000  0.1598 -0.0429
 5454TIP3    H137853   5.513   3.656  17.252  1.3920  0.0802  0.2307
 5454TIP3    H237854   5.474   3.530  17.325 -2.1055  0.6084 -0.5369
 5455TIP3   OH237855   0.000   3.083   0.146  0.2939  0.0083 -0.5191
 5455TIP3    H137856   0.060   3.028   0.097 -0.2307  0.4558 -1.7010
 5455TIP3    H237857  -0.055   3.124   0.080  0.7899  2.1025  0.2780
 5456TIP3   OH237858   6.652   4.338   2.873 -0.3523 -0.3534 -0.1042
 5456TIP3    H137859   6.614   4.378   2.795 -0.9743 -1.5994 -0.4656
 5456TIP3    H237860   6.739   4.377   2.880 -0.5662  0.3183 -0.9956
 5457TIP3   OH237861   2.491   2.845  14.318 -0.1351  0.3066  0.2929
 5457TIP3    H137862   2.417   2.874  14.266  0.6813  0.2760 -0.9232
 5457TIP3    H237863   2.500   2.752  14.298  1.2275  0.6614 -0.8648
 5458TIP3   OH237864   4.020   3.706  16.257  0.0805 -0.2682  0.3039
 5458TIP3    H137865   4.036   3.782  16.202 -0.4043 -0.9212 -0.7709
 5458TIP3    H237866   4.075   3.720  16.334 -1.0610  1.8684  0.8159
 5459TIP3   OH237867   4.728   5.823  16.819  0.5866  0.1868  0.6876
 5459TIP3    H137868   4.780   5.762  16.871 -0.7141 -0.1436  1.6583
 5459TIP3    H237869   4.675   5.870  16.883  1.6078  2.4316 -0.0488
 5460TIP3   OH237870   0.512   6.132   3.061  0.2460  0.0008 -0.0871
 5460TIP3    H137871   0.481   6.219   3.084 -0.0342  0.1363 -0.9566
 5460TIP3    H237872   0.458   6.073   3.114 -1.7619  0.2116 -1.7434
 5461TIP3   OH237873   4.580   0.944  11.402 -0.9836  0.2414  0.3018
 5461TIP3    H137874   4.631   0.995  11.465  1.5316 -1.1978 -0.4190
 5461TIP3    H237875   4.642   0.879  11.368 -3.8344 -2.9660  0.7460
 5462TIP3   OH237876   4.423   4.888   5.117 -0.0116 -1.0089 -0.3997
 5462TIP3    H137877   4.339   4.919   5.083  0.4341 -0.3812 -0.9646
 5462TIP3    H237878   4.488   4.921   5.054  0.8278  0.0218  0.9295
 5463TIP3   OH237879   0.477   3.859  16.874  0.0659 -0.2003 -0.2813
 5463TIP3    H137880   0.523   3.938  16.902  0.2869 -0.2674 -0.4536
 5463TIP3    H237881   0.386   3.886  16.867 -0.1577 -0.4175  1.4418
 5464TIP3   OH237882   1.763   4.374   1.826 -0.2510  0.1571  0.6620
 5464TIP3    H137883   1.820   4.304   1.859  0.0199  1.1300  2.3795
 5464TIP3    H237884   1.723   4.337   1.748  3.0011 -0.4587 -0.8677
 5465TIP3   OH237885   4.803   6.690  12.043 -0.4209 -0.2705 -0.5404
 5465TIP3    H137886   4.848   6.692  11.958  2.3237 -0.2062  0.8142
 5465TIP3    H237887   4.838   6.764  12.091 -1.7060 -0.4824  0.7992
 5466TIP3   OH237888   4.507   5.733  12.044  0.4030  0.2939 -0.0708
 5466TIP3    H137889   4.422   5.727  12.088  1.1196 -1.4004  1.2108
 5466TIP3    H237890   4.510   5.822  12.009 -1.5561  0.6490  0.5463
 5467TIP3   OH237891   0.957   5.209   3.961 -0.2695  0.4768 -0.2463
 5467TIP3    H137892   0.870   5.247   3.961 -0.0619  0.9913  0.9736
 5467TIP3    H237893   0.946   5.122   3.998 -0.4462  0.0463 -1.2736
 5468TIP3   OH237894   6.356   0.853   5.807 -0.4482 -0.0795  0.0629
 5468TIP3    H137895   6.400   0.776   5.773  1.5562  0.5580  1.0224
 5468TIP3    H237896   6.339   0.907   5.730 -0.2056 -0.6834 -0.4210
 5469TIP3   OH237897   0.171   0.112  16.326  0.6399 -0.2699 -0.1054
 5469TIP3    H137898   0.105   0.042  16.321  1.0236 -0.5552 -1.2754
 5469TIP3    H237899   0.246   0.070  16.368  0.5797 -0.3361 -0.0632
 5470TIP3   OH237900   1.336   0.978   4.498  0.4966 -0.0609  0.0990
 5470TIP3    H137901   1.268   0.920   4.533  0.3489 -0.3058 -0.5665
 5470TIP3    H237902   1.300   1.008   4.414  1.5934 -0.9547 -0.7215
 5471TIP3   OH237903   2.867   1.684  16.838  0.0220  0.1650  0.0743
 5471TIP3    H137904   2.895   1.766  16.880  1.2618  0.8235 -1.9024
 5471TIP3    H237905   2.948   1.634  16.828 -0.6154 -0.9869  0.5698
 5472TIP3   OH237906   4.095   2.542   3.823 -0.1342  0.2648 -0.1571
 5472TIP3    H137907   4.087   2.511   3.733  1.0092 -1.6874  0.3552
 5472TIP3    H237908   4.189   2.548   3.838 -0.3099  2.0213  0.4816
 5473TIP3   OH237909   2.858   5.509   5.600 -0.6315 -0.0930  0.2438
 5473TIP3    H137910   2.854   5.576   5.668 -2.1151  0.7425 -0.6144
 5473TIP3    H237911   2.916   5.546   5.534 -1.0671  0.1657 -0.0057
 5474TIP3   OH237912   4.360   0.496   4.416  0.6570  0.2249 -0.0075
 5474TIP3    H137913   4.391   0.577   4.375  2.3712 -0.4023 -0.0375
 5474TIP3    H237914   4.402   0.495   4.501  0.6029 -0.6105  0.0156
 5475TIP3   OH237915   1.988   2.489  14.033  0.3045  0.0659  0.2305
 5475TIP3    H137916   1.916   2.506  13.971 -1.4751  0.5074  2.3014
 5475TIP3    H237917   2.036   2.416  13.994  1.3184  2.3444 -3.2717
 5476TIP3   OH237918   5.610   2.409  12.263  0.2534 -0.6158 -0.0350
 5476TIP3    H137919   5.654   2.346  12.206  0.7192  0.6987 -1.2003
 5476TIP3    H237920   5.675   2.431  12.330  0.4169 -0.6844 -0.1703
 5477TIP3   OH237921   2.052   6.436  13.941 -1.0201 -0.2124  0.5643
 5477TIP3    H137922   1.959   6.422  13.954 -0.8239 -0.7272  1.5485
 5477TIP3    H237923   2.079   6.491  14.015 -0.4730 -0.4027  0.5153
 5478TIP3   OH237924   3.533   4.628   0.007  0.7622  0.2493 -0.4631
 5478TIP3    H137925   3.487   4.547  -0.010 -0.8883  0.9343  0.5590
 5478TIP3    H237926   3.502   4.658   0.092  0.0269  2.7876 -1.5095
 5479TIP3   OH237927   1.101   6.469  11.738 -0.8986  0.0033 -0.3830
 5479TIP3    H137928   1.146   6.401  11.787  2.5151  1.6683 -0.9341
 5479TIP3    H237929   1.031   6.499  11.796  0.2802 -1.0063  1.6310
 5480TIP3   OH237930   2.879   1.019  17.483 -0.6565 -0.0076 -0.4351
 5480TIP3    H137931   2.975   1.012  17.479 -0.5561  1.2011 -0.7627
 5480TIP3    H237932   2.847   0.930  17.473  0.4537 -0.4806  0.1082
 5481TIP3   OH237933   3.048   0.425  11.867  0.2888  0.4417  0.2849
 5481TIP3    H137934   3.010   0.499  11.820 -0.2026 -0.7651 -1.2977
 5481TIP3    H237935   2.973   0.374  11.898  0.5353 -1.0764 -1.4378
 5482TIP3   OH237936   5.154   0.327  12.745  0.3731 -0.2691  0.1943
 5482TIP3    H137937   5.082   0.368  12.698  1.2485 -0.3350 -1.2460
 5482TIP3    H237938   5.121   0.317  12.835 -1.2222  0.1295 -0.3136
 5483TIP3   OH237939   1.868   5.581  10.489 -0.4414  0.2799 -0.1337
 5483TIP3    H137940   1.955   5.601  10.453 -0.9033 -0.5233 -1.8089
 5483TIP3    H237941   1.882   5.502  10.542  0.1049  1.0289  0.8850
 5484TIP3   OH237942   4.714   3.886   6.141 -0.1048  0.3558 -0.7769
 5484TIP3    H137943   4.779   3.949   6.111 -1.0980  1.1419 -1.3570
 5484TIP3    H237944   4.756   3.801   6.131  0.6215  0.8082 -1.6898
 5485TIP3   OH237945   1.952   3.456   4.892  0.1672 -0.3856  0.1662
 5485TIP3    H137946   1.883   3.518   4.917  0.7908  1.3387 -2.0646
 5485TIP3    H237947   1.916   3.371   4.915 -2.3746  0.5078 -0.1255
 5486TIP3   OH237948   5.355   1.248  17.474 -0.3477 -0.2154 -0.1176
 5486TIP3    H137949   5.315   1.274  17.391  0.5982  0.6368 -0.3156
 5486TIP3    H237950   5.371   1.154  17.464 -0.0851 -0.0900 -0.9718
 5487TIP3   OH237951   1.236   1.460   0.804  1.0052  0.3302  0.0551
 5487TIP3    H137952   1.151   1.423   0.829  1.4021 -1.1597 -0.7239
 5487TIP3    H237953   1.228   1.553   0.825 -0.2059 -0.0748  1.6218
 5488TIP3   OH237954   3.995   2.173  17.461  0.5659  0.7700 -0.4011
 5488TIP3    H137955   3.951   2.197  17.380  0.2570 -0.6064 -0.6643
 5488TIP3    H237956   3.933   2.197  17.530 -0.7617 -1.3752 -0.7815
 5489TIP3   OH237957   6.441   0.062  15.607 -0.2986 -0.3288  0.3743
 5489TIP3    H137958   6.391   0.070  15.688  0.2462  0.3058  0.6599
 5489TIP3    H237959   6.533   0.061  15.636 -0.0561  0.8367 -0.2939
 5490TIP3   OH237960   2.955   2.188  13.443  0.1575 -0.8053 -0.4486
 5490TIP3    H137961   2.867   2.198  13.408 -0.7669  0.7919  2.0846
 5490TIP3    H237962   3.012   2.226  13.376 -1.5718  2.8554 -0.0696
 5491TIP3   OH237963   3.377   2.693   3.635  0.3385  0.7659 -0.1643
 5491TIP3    H137964   3.341   2.643   3.708 -1.3388 -0.3519 -1.6706
 5491TIP3    H237965   3.472   2.689   3.648  0.0980  1.1301  2.2299
 5492TIP3   OH237966   5.616   1.106   0.758  0.3727 -0.3540 -0.2095
 5492TIP3    H137967   5.657   1.193   0.760 -1.5646  0.6031  1.3542
 5492TIP3    H237968   5.582   1.097   0.669 -0.6533  1.1546 -0.0084
 5493TIP3   OH237969   6.612   5.283   2.931  0.1264  0.4780  0.4110
 5493TIP3    H137970   6.523   5.267   2.899  0.8405 -0.5040 -1.2342
 5493TIP3    H237971   6.635   5.369   2.896  0.4565 -0.0581 -0.7391
 5494TIP3   OH237972   1.221   1.387  14.761  0.0363  0.0690  0.4985
 5494TIP3    H137973   1.281   1.319  14.793 -0.7892 -0.8389  0.1896
 5494TIP3    H237974   1.177   1.420  14.839 -0.2604 -0.4504  0.5552
 5495TIP3   OH237975   6.712   6.440   4.218  0.1253  0.5009 -0.2369
 5495TIP3    H137976   6.779   6.393   4.170 -1.3409 -0.0221 -1.8610
 5495TIP3    H237977   6.722   6.532   4.192  0.6119  0.5363  0.0572
 5496TIP3   OH237978   4.972   3.737   1.213 -0.1819 -0.1689 -0.0431
 5496TIP3    H137979   4.970   3.652   1.256  0.1683 -1.3513 -2.2219
 5496TIP3    H237980   4.951   3.718   1.121  0.5903  1.9866 -0.7299
 5497TIP3   OH237981   2.413   3.389   2.334 -0.1832 -0.2439 -0.2171
 5497TIP3    H137982   2.358   3.356   2.405 -0.4599  1.7464  0.5576
 5497TIP3    H237983   2.493   3.419   2.377 -1.1731  2.8933 -0.3730
 5498TIP3   OH237984   2.779   5.286  14.733 -0.3296 -0.0344  0.0523
 5498TIP3    H137985   2.854   5.262  14.786 -0.1811  1.3625  0.5103
 5498TIP3    H237986   2.764   5.210  14.677  2.3970  0.2156 -1.1807
 5499TIP3   OH237987   1.010   1.998   2.657 -0.6202  0.0775  0.2478
 5499TIP3    H137988   1.074   2.018   2.726  0.9955 -0.2235 -1.0892
 5499TIP3    H237989   1.042   1.917   2.617 -0.0435  1.5177 -2.4472
 5500TIP3   OH237990   1.747   3.370   1.897  0.4163 -0.4806 -0.1995
 5500TIP3    H137991   1.764   3.332   1.982  1.1148  0.2203 -0.0109
 5500TIP3    H237992   1.682   3.438   1.913  1.7911  0.8319  0.1082
 5501TIP3   OH237993   6.707   2.002  16.892  0.1571 -0.4617  0.2478
 5501TIP3    H137994   6.624   1.958  16.910 -0.9640  1.3040 -0.3427
 5501TIP3    H237995   6.682   2.079  16.841  2.2984 -0.5407 -1.0125
 5502TIP3   OH237996   2.150   5.674  15.904  0.1890  0.3972  0.0458
 5502TIP3    H137997   2.077   5.692  15.964 -0.5938 -0.5665 -0.5819
 5502TIP3    H237998   2.215   5.628  15.957 -0.5013 -0.4572  0.1638
 5503TIP3   OH237999   1.169   0.663  14.869 -0.0921 -0.2014 -0.0806
 5503TIP3    H138000   1.207   0.667  14.782  0.2657  0.4031  0.0894
 5503TIP3    H238001   1.147   0.571  14.883 -2.8466  0.0615 -1.9263
 5504TIP3   OH238002   5.527   5.191  12.203 -0.3482 -0.1139  0.0388
 5504TIP3    H138003   5.573   5.149  12.276  0.5538  1.6276  0.5145
 5504TIP3    H238004   5.587   5.183  12.129  0.0165  0.6999  0.2408
 5505TIP3   OH238005   3.184   3.516   6.579 -0.2278 -0.2045 -0.5190
 5505TIP3    H138006   3.279   3.509   6.585 -0.2286  0.2330  0.1060
 5505TIP3    H238007   3.153   3.495   6.667 -0.6855  0.0045 -0.6293
 5506TIP3   OH238008   0.892   5.056   5.814  0.6189 -0.3297 -0.5019
 5506TIP3    H138009   0.964   5.087   5.869  0.2733  0.6128 -0.5506
 5506TIP3    H238010   0.836   5.133   5.803 -2.7391 -1.8989  3.1036
 5507TIP3   OH238011   5.016   0.265  13.933 -0.0185 -0.0415 -0.2167
 5507TIP3    H138012   5.057   0.221  14.007 -1.2256 -0.7901  0.0299
 5507TIP3    H238013   5.090   0.297  13.881  0.8756 -1.0380  0.3883
 5508TIP3   OH238014   4.211   1.776  14.419  0.6186 -0.3669  0.0929
 5508TIP3    H138015   4.120   1.805  14.427  0.4929 -0.7857  0.1702
 5508TIP3    H238016   4.216   1.694  14.467  0.9192 -0.5985 -0.3163
 5509TIP3   OH238017   4.416   2.872   4.021  0.1642 -0.3375 -0.0249
 5509TIP3    H138018   4.471   2.795   4.035  1.4623  0.5615  0.0411
 5509TIP3    H238019   4.331   2.849   4.057  0.4237 -1.8612 -0.3341
 5510TIP3   OH238020   3.191   2.786   1.828  0.3841 -0.3781  0.1551
 5510TIP3    H138021   3.162   2.839   1.902  1.6391  0.2979  0.1949
 5510TIP3    H238022   3.174   2.841   1.751 -0.9863 -1.1073 -0.0970
 5511TIP3   OH238023   3.839   0.583   1.241 -0.3207  0.1528 -0.6501
 5511TIP3    H138024   3.890   0.645   1.188  0.6030 -0.4353 -0.4650
 5511TIP3    H238025   3.791   0.531   1.176 -1.4354  1.3264 -0.7926
 5512TIP3   OH238026   4.927   5.560  14.859 -0.3659 -0.1581 -0.4092
 5512TIP3    H138027   4.854   5.499  14.845 -0.3312  0.0258 -1.5166
 5512TIP3    H238028   4.950   5.589  14.771  0.0106  1.0073  0.0611
 5513TIP3   OH238029   4.159   2.259  14.598  0.3252  0.4029 -0.4521
 5513TIP3    H138030   4.157   2.322  14.526 -0.7909  2.5938  1.3644
 5513TIP3    H238031   4.208   2.302  14.667 -0.4100 -0.7539  0.8554
 5514TIP3   OH238032   0.662   5.275  13.361  0.6406  0.9672  0.3490
 5514TIP3    H138033   0.594   5.301  13.424  1.9517  0.2502  2.1311
 5514TIP3    H238034   0.640   5.185  13.339  0.2439  1.1830 -0.1612
 5515TIP3   OH238035   2.342   4.628  13.694 -0.2477 -0.0829 -0.5394
 5515TIP3    H138036   2.307   4.542  13.717  0.1200 -0.3697 -1.0286
 5515TIP3    H238037   2.317   4.640  13.602 -1.2629  0.8238 -0.1668
 5516TIP3   OH238038   2.558   2.030  14.563  0.0075  0.2470 -0.0495
 5516TIP3    H138039   2.567   2.020  14.658 -1.1662  1.4466  0.2328
 5516TIP3    H238040   2.641   2.000  14.527  0.2265 -0.8432  1.3079
 5517TIP3   OH238041   5.468   1.212   4.866 -0.0684 -0.9694  0.1211
 5517TIP3    H138042   5.482   1.182   4.955  0.6051 -0.7470  0.0963
 5517TIP3    H238043   5.426   1.139   4.821 -0.3267 -1.1097  0.5948
 5518TIP3   OH238044   3.798   4.650   0.044  0.4279  0.2941 -0.0080
 5518TIP3    H138045   3.704   4.643   0.030  0.5797  0.7848 -1.4661
 5518TIP3    H238046   3.822   4.569   0.088 -0.3557 -0.8470 -1.5719
 5519TIP3   OH238047   4.879   3.416  13.588 -0.4901 -0.2314 -1.1125
 5519TIP3    H138048   4.816   3.384  13.523 -2.2776 -0.9943  0.8935
 5519TIP3    H238049   4.876   3.511  13.580 -2.1699 -0.2362 -0.8378
 5520TIP3   OH238050   2.307   0.878   6.738 -0.4707  0.2182  0.5069
 5520TIP3    H138051   2.307   0.970   6.713 -1.2552  0.3657  1.0110
 5520TIP3    H238052   2.395   0.863   6.772 -1.0187  1.4442  2.6566
 5521TIP3   OH238053   6.710   5.772   3.430  0.3311 -0.1293  0.1632
 5521TIP3    H138054   6.667   5.829   3.494  0.2683  1.6187 -1.3510
 5521TIP3    H238055   6.796   5.812   3.417  0.6882 -0.9873 -0.1705
 5522TIP3   OH238056   5.503   5.070  12.536  0.3342  0.0380 -0.1930
 5522TIP3    H138057   5.571   5.023  12.488 -1.3236 -1.6892 -0.9983
 5522TIP3    H238058   5.457   5.002  12.585 -1.8114  0.8492 -0.9529
 5523TIP3   OH238059   3.613   5.015   2.693 -0.0731  0.2106 -0.0309
 5523TIP3    H138060   3.609   5.090   2.752 -0.0578 -0.3088  0.6455
 5523TIP3    H238061   3.648   5.051   2.611  0.0500  0.9131  0.3204
 5524TIP3   OH238062   0.190   2.976   6.507  0.0332  0.4556  0.8328
 5524TIP3    H138063   0.284   2.984   6.519  0.3292  0.2789 -1.0817
 5524TIP3    H238064   0.164   2.907   6.568  1.0386  0.8793  1.7646
 5525TIP3   OH238065   4.912   3.605  13.275 -0.3086  0.0842 -0.2693
 5525TIP3    H138066   4.834   3.551  13.282 -0.2636  0.1677  1.1284
 5525TIP3    H238067   4.924   3.618  13.181 -1.4891 -0.6189 -0.5331
 5526TIP3   OH238068   6.026   3.120  14.260  0.2588 -0.0309 -0.0731
 5526TIP3    H138069   5.937   3.154  14.253 -1.0463 -3.0343  0.5647
 5526TIP3    H238070   6.079   3.183  14.211 -2.3570  1.2456 -1.4931
 5527TIP3   OH238071   0.781   3.594   5.666  0.0280 -0.7789 -0.3056
 5527TIP3    H138072   0.785   3.606   5.761  2.3565 -2.6216 -0.0577
 5527TIP3    H238073   0.810   3.677   5.629 -2.1328  0.3906  0.4957
 5528TIP3   OH238074   1.876   0.193  14.407  0.0420 -0.4441 -0.0718
 5528TIP3    H138075   1.861   0.162  14.317  0.8668  0.1651 -0.4298
 5528TIP3    H238076   1.813   0.264  14.419 -0.7126 -1.1342  0.1728
 5529TIP3   OH238077   2.249   0.135   3.824 -0.4756  0.3663  0.2846
 5529TIP3    H138078   2.202   0.211   3.790  0.8296  1.0458 -0.0575
 5529TIP3    H238079   2.196   0.060   3.795 -3.7886  1.0977  3.6229
 5530TIP3   OH238080   5.400   3.285  13.304  0.3561  0.2246  0.4157
 5530TIP3    H138081   5.392   3.194  13.331  2.9339 -0.0173  0.6152
 5530TIP3    H238082   5.486   3.312  13.336  0.2800  2.2819 -0.9201
 5531TIP3   OH238083   6.126   2.898   0.251  0.3491 -0.0343 -0.1219
 5531TIP3    H138084   6.170   2.936   0.174  0.2939  1.9578  0.7575
 5531TIP3    H238085   6.182   2.925   0.325 -0.5305 -0.3978  0.6857
 5532TIP3   OH238086   3.905   4.123   0.928  0.0864  0.5019  0.1955
 5532TIP3    H138087   3.853   4.203   0.933  1.3198  1.3429  0.0208
 5532TIP3    H238088   3.996   4.153   0.923  0.5914 -0.9120  0.2507
 5533TIP3   OH238089   3.933   2.446  10.613  0.2001 -0.8014 -0.0095
 5533TIP3    H138090   3.883   2.460  10.693 -1.7198  0.0845 -1.2617
 5533TIP3    H238091   4.023   2.464  10.637 -0.6208  2.1149  1.3820
 5534TIP3   OH238092   0.024   3.239  11.628  0.4091 -0.3808  0.1203
 5534TIP3    H138093   0.100   3.186  11.605 -0.1133 -0.1488 -2.4489
 5534TIP3    H238094   0.027   3.245  11.723  3.6576 -0.2914  0.1248
 5535TIP3   OH238095   5.482   0.790  16.484 -0.0280  0.1509  0.0092
 5535TIP3    H138096   5.433   0.730  16.539  0.5466  1.8715  2.5500
 5535TIP3    H238097   5.571   0.755  16.482 -0.0544  0.0780  0.1662
 5536TIP3   OH238098   3.714   5.270   3.381  0.2278  0.0172  0.5286
 5536TIP3    H138099   3.684   5.360   3.367 -0.3598 -0.3625 -0.7671
 5536TIP3    H238100   3.707   5.257   3.476 -0.8735  0.9293  0.5938
 5537TIP3   OH238101   4.317   1.693   1.683 -0.5648 -0.3777 -0.5076
 5537TIP3    H138102   4.385   1.665   1.621 -0.7809 -0.0037 -0.9141
 5537TIP3    H238103   4.363   1.698   1.767 -0.4320 -1.5773 -0.4956
 5538TIP3   OH238104   0.657   1.337   3.212  0.4966  0.8750 -0.2693
 5538TIP3    H138105   0.667   1.243   3.194  0.7227  0.5115  1.5191
 5538TIP3    H238106   0.627   1.340   3.303  2.6832  2.5786  0.4876
 5539TIP3   OH238107   1.379   1.020   0.587  0.6052  0.1193  0.2965
 5539TIP3    H138108   1.460   1.034   0.636  1.0696 -0.1544 -0.3823
 5539TIP3    H238109   1.334   1.105   0.589  1.4300  0.5816 -0.2609
 5540TIP3   OH238110   2.646   2.161  11.974  0.1219 -0.0409  0.1000
 5540TIP3    H138111   2.609   2.075  11.992  0.8444 -0.3681  0.0562
 5540TIP3    H238112   2.724   2.143  11.923  0.2764  0.6459  0.0871
 5541TIP3   OH238113   1.505   4.352  11.564 -0.2041  0.3550  0.0225
 5541TIP3    H138114   1.427   4.330  11.615 -0.7069  0.4551 -0.6941
 5541TIP3    H238115   1.478   4.344  11.473  0.8062 -0.2345 -0.2411
 5542TIP3   OH238116   5.226   4.206  12.316 -0.4035  0.0643 -0.9927
 5542TIP3    H138117   5.198   4.134  12.372 -2.1528 -0.1275 -2.0410
 5542TIP3    H238118   5.309   4.177  12.279  0.4719 -0.0607  0.9588
 5543TIP3   OH238119   3.250   3.359   5.762  0.3719  0.4062 -0.5530
 5543TIP3    H138120   3.191   3.418   5.715  0.9001  0.7931 -0.7512
 5543TIP3    H238121   3.217   3.271   5.742 -0.0404  0.6098 -0.7855
 5544TIP3   OH238122   1.247   5.536   3.357  0.2961  0.3090 -0.1851
 5544TIP3    H138123   1.248   5.620   3.313  0.5806  0.8744  0.8522
 5544TIP3    H238124   1.294   5.552   3.439  0.5968 -0.9315 -0.1022
 5545TIP3   OH238125   1.489   5.641   0.100 -0.1778  0.8249 -0.5000
 5545TIP3    H138126   1.419   5.647   0.034  0.4672  3.3201 -1.0673
 5545TIP3    H238127   1.447   5.669   0.181 -0.2669  0.5545 -0.4511
 5546TIP3   OH238128   0.682   0.734  14.794 -0.0563 -0.0238  0.1467
 5546TIP3    H138129   0.776   0.751  14.786 -0.3366  1.3779 -0.6129
 5546TIP3    H238130   0.669   0.710  14.885  1.5880 -4.2907 -0.5072
 5547TIP3   OH238131   4.745   2.605   1.492  0.0948  0.1658 -0.0183
 5547TIP3    H138132   4.696   2.572   1.568 -0.2908  0.5114 -0.1145
 5547TIP3    H238133   4.729   2.699   1.492  1.5070  0.4262  0.4840
 5548TIP3   OH238134   4.748   2.628   6.093  0.0189  0.4157  1.1539
 5548TIP3    H138135   4.677   2.684   6.123 -0.4054  0.4768  0.0518
 5548TIP3    H238136   4.714   2.583   6.016  1.5411  1.3544 -0.1474
 5549TIP3   OH238137   5.558   5.688   1.897 -0.6148 -0.1234 -0.1747
 5549TIP3    H138138   5.624   5.695   1.827 -0.9183  1.6513 -0.3173
 5549TIP3    H238139   5.474   5.692   1.851 -0.8235 -0.3387  0.1875
 5550TIP3   OH238140   0.149   3.117  16.253 -0.2518  0.2000 -0.2161
 5550TIP3    H138141   0.175   3.028  16.279  0.9155  0.7331  0.5704
 5550TIP3    H238142   0.147   3.115  16.158 -1.9649 -1.1161 -0.1954
 5551TIP3   OH238143   0.592   5.565  11.918 -0.2805  0.3358  0.2945
 5551TIP3    H138144   0.597   5.484  11.866  0.9696  0.9810 -0.6417
 5551TIP3    H238145   0.662   5.556  11.982 -0.8289  0.2245  0.8861
 5552TIP3   OH238146   5.314   3.556   5.877 -0.3636 -0.0901 -0.2652
 5552TIP3    H138147   5.221   3.570   5.858 -0.6244 -0.2566  0.7899
 5552TIP3    H238148   5.317   3.467   5.912  0.0769  0.1754  0.3851
 5553TIP3   OH238149   5.006   1.440   5.074 -0.0483  0.0067  0.7411
 5553TIP3    H138150   5.082   1.428   5.017  0.9666 -2.2461  2.3803
 5553TIP3    H238151   4.936   1.388   5.032 -0.1806  0.6818  0.1132
 5554TIP3   OH238152   0.478   2.259  15.570 -0.3121  0.4170 -0.5070
 5554TIP3    H138153   0.433   2.231  15.650  1.0867  0.2640  0.2635
 5554TIP3    H238154   0.488   2.178  15.519 -2.0982  0.6793 -1.3384
 5555TIP3   OH238155   0.657   3.323  12.763  0.2356  0.2874 -0.1141
 5555TIP3    H138156   0.726   3.326  12.829 -0.3225 -0.5928  0.5273
 5555TIP3    H238157   0.702   3.345  12.681  1.2315 -0.0554  0.3237
 5556TIP3   OH238158   3.315   5.479   2.131  0.1024 -0.5690  0.0768
 5556TIP3    H138159   3.337   5.534   2.206 -0.5246  0.4047 -0.4320
 5556TIP3    H238160   3.231   5.439   2.154  1.3353 -2.7145  1.1701
 5557TIP3   OH238161   0.870   3.440   3.201  0.3415 -0.2568 -0.4505
 5557TIP3    H138162   0.861   3.534   3.189 -0.2246 -0.4033 -1.2800
 5557TIP3    H238163   0.790   3.414   3.248  0.5849 -0.2947 -0.0564
 5558TIP3   OH238164   6.249   6.421   6.401 -0.0720  0.0143  0.7391
 5558TIP3    H138165   6.188   6.491   6.426 -1.4582 -1.0134  0.3830
 5558TIP3    H238166   6.238   6.412   6.307  1.4389  0.5060  0.4950
 5559TIP3   OH238167   2.851   3.715  17.127  0.6112 -0.4007  0.0929
 5559TIP3    H138168   2.944   3.709  17.152  0.2741 -1.3819  1.1978
 5559TIP3    H238169   2.803   3.695  17.207 -0.5439 -2.0566 -0.9473
 5560TIP3   OH238170   3.181   0.486  17.133  0.0216  0.6869 -0.2740
 5560TIP3    H138171   3.091   0.453  17.128  0.4252 -0.3667 -0.9717
 5560TIP3    H238172   3.185   0.533  17.216 -0.2644 -2.0362  1.3723
 5561TIP3   OH238173   1.630   4.095  11.469 -0.1522 -0.3526  0.1229
 5561TIP3    H138174   1.558   4.052  11.422 -0.3665 -0.0525  0.1739
 5561TIP3    H238175   1.598   4.184  11.485  0.4184 -0.0668 -0.2863
 5562TIP3   OH238176   3.984   1.458   5.060 -0.6832  0.0287 -0.1610
 5562TIP3    H138177   3.917   1.450   4.992 -0.4333  1.9733 -0.6805
 5562TIP3    H238178   3.935   1.471   5.141 -1.0980 -4.5747  0.5991
 5563TIP3   OH238179   4.384   4.813   4.310  0.2505  0.0001 -0.0807
 5563TIP3    H138180   4.302   4.825   4.357 -0.3388 -1.9491 -0.5122
 5563TIP3    H238181   4.430   4.745   4.360  1.2498  0.4722 -0.3196
 5564TIP3   OH238182   3.908   1.051  15.083 -0.1499  0.3774 -0.4631
 5564TIP3    H138183   3.940   1.111  15.016  0.4400  1.9990  1.1624
 5564TIP3    H238184   3.976   1.052  15.151 -1.4970  0.2305  0.9647
 5565TIP3   OH238185   5.360   3.759  13.232  0.1429  0.5636  0.4556
 5565TIP3    H138186   5.409   3.757  13.314  0.4963  2.7540  0.3688
 5565TIP3    H238187   5.270   3.776  13.258 -0.2483 -1.3415  0.4908
 5566TIP3   OH238188   5.268   3.778  15.841  0.5537 -0.3227 -0.2771
 5566TIP3    H138189   5.199   3.832  15.801  0.1774 -0.4179  0.2380
 5566TIP3    H238190   5.221   3.709  15.887  0.9865 -0.3318  0.1624
 5567TIP3   OH238191   2.741   2.630   2.769 -0.2125 -0.8213 -0.7371
 5567TIP3    H138192   2.669   2.689   2.748 -0.9192 -2.0958 -2.0462
 5567TIP3    H238193   2.781   2.610   2.684  2.1634  0.3951  0.0021
 5568TIP3   OH238194   4.210   5.694   5.078  0.1739 -0.1701 -0.2330
 5568TIP3    H138195   4.154   5.654   5.146 -0.3714 -1.3108 -1.3177
 5568TIP3    H238196   4.148   5.737   5.019  0.7089  1.6668  0.4817
 5569TIP3   OH238197   6.088   0.121  14.309  0.2203  0.5662 -0.2684
 5569TIP3    H138198   6.178   0.113  14.342  0.4539  2.8700 -0.2028
 5569TIP3    H238199   6.078   0.214  14.288 -0.3400 -0.3797 -5.4964
 5570TIP3   OH238200   0.811   6.013  16.559 -0.4036 -0.3377  0.3261
 5570TIP3    H138201   0.745   5.945  16.575 -2.0138  0.9502 -0.5789
 5570TIP3    H238202   0.808   6.068  16.638  1.9630 -2.0291  1.7449
 5571TIP3   OH238203   1.612   0.263   3.759 -0.0640 -0.0742  0.6448
 5571TIP3    H138204   1.688   0.224   3.715 -0.0176 -0.3988  1.0054
 5571TIP3    H238205   1.542   0.199   3.746 -0.2588  0.1877  0.3825
 5572TIP3   OH238206   1.016   2.763   3.540  0.1800  0.4926  0.1556
 5572TIP3    H138207   0.983   2.849   3.514  1.2732  0.5504 -1.1245
 5572TIP3    H238208   1.110   2.777   3.556  0.2904 -0.3803  0.3164
 5573TIP3   OH238209   0.016   1.378   1.887 -0.0305  0.5258  0.1584
 5573TIP3    H138210   0.104   1.393   1.853  0.4971 -0.2194  1.1303
 5573TIP3    H238211   0.007   1.443   1.958 -0.0410  0.2363  0.4257
 5574TIP3   OH238212   6.063   4.926  13.237 -0.0517  0.3421 -0.2632
 5574TIP3    H138213   5.987   4.882  13.200 -1.8673  2.1816  1.0150
 5574TIP3    H238214   6.127   4.929  13.166 -1.6624 -0.1350 -1.8003
 5575TIP3   OH238215   1.563   0.475   0.908  0.5916  0.2065 -0.2217
 5575TIP3    H138216   1.653   0.443   0.918 -0.0088 -1.5506 -0.1549
 5575TIP3    H238217   1.561   0.516   0.822  1.3737 -0.0250 -0.3549
 5576TIP3   OH238218   3.214   6.020  13.876  0.0585  0.7240  0.5963
 5576TIP3    H138219   3.145   6.083  13.857  1.0868  1.9767  0.8369
 5576TIP3    H238220   3.172   5.935  13.867 -1.5047  1.4379  0.7274
 5577TIP3   OH238221   0.709   0.730   4.096 -0.2090 -0.9504 -0.2726
 5577TIP3    H138222   0.658   0.811   4.100  2.0481  0.5902  3.7138
 5577TIP3    H238223   0.769   0.743   4.023 -1.0486  0.1596 -0.8006
 5578TIP3   OH238224   5.143   4.099   2.005 -0.3039 -0.9561  0.4359
 5578TIP3    H138225   5.071   4.044   2.037 -1.7529  0.8211  0.4031
 5578TIP3    H238226   5.111   4.133   1.922 -0.1252  1.1237  1.1707
 5579TIP3   OH238227   3.791   4.114  11.957  0.0267  0.0853 -0.5688
 5579TIP3    H138228   3.787   4.132  11.864  0.5994  0.8709 -0.4588
 5579TIP3    H238229   3.757   4.194  11.999 -0.2755 -0.2762 -0.1094
 5580TIP3   OH238230   4.918   4.389  16.065 -0.1536 -0.2102  0.0842
 5580TIP3    H138231   4.961   4.386  15.979 -2.0812  0.5022 -0.9606
 5580TIP3    H238232   4.882   4.302  16.077 -2.9311  0.6028 -1.5520
 5581TIP3   OH238233   1.673   0.249  13.143  0.7921 -0.3612 -0.7283
 5581TIP3    H138234   1.725   0.320  13.181  0.0868  0.2761 -0.9330
 5581TIP3    H238235   1.668   0.184  13.212  1.6755 -0.3432 -0.6292
 5582TIP3   OH238236   3.360   1.158   5.777  0.4305 -0.2209 -0.6572
 5582TIP3    H138237   3.437   1.165   5.834 -0.1020  2.1932 -0.1035
 5582TIP3    H238238   3.396   1.138   5.691  1.6298  0.2328 -0.2840
 5583TIP3   OH238239   6.102   6.492  11.104 -0.3927 -0.1112  0.0565
 5583TIP3    H138240   6.106   6.585  11.083 -1.2523 -0.3346 -1.2369
 5583TIP3    H238241   6.057   6.453  11.029 -1.5028 -1.3403  1.3115
 5584TIP3   OH238242   5.340   5.627  17.040  0.1776  0.0153  0.1836
 5584TIP3    H138243   5.314   5.539  17.016 -3.1195  0.8948  0.1111
 5584TIP3    H238244   5.311   5.682  16.967  1.3528  1.2932  0.6311
 5585TIP3   OH238245   3.904   4.750   4.847 -0.2899  0.5111  0.0276
 5585TIP3    H138246   3.864   4.751   4.934 -0.0431  0.0556  0.1532
 5585TIP3    H238247   3.952   4.667   4.844 -1.2405 -0.0368 -0.9699
 5586TIP3   OH238248   4.653   0.621  11.938  0.3169 -0.2008 -0.4074
 5586TIP3    H138249   4.658   0.611  11.843 -1.6155 -0.9309 -0.4773
 5586TIP3    H238250   4.572   0.670  11.953 -0.1230 -1.2473  0.9000
 5587TIP3   OH238251   0.425   5.634  16.362 -0.3718  0.1221 -0.1957
 5587TIP3    H138252   0.341   5.595  16.338 -0.1207 -0.3710 -0.2828
 5587TIP3    H238253   0.460   5.669  16.281 -0.0400 -0.5551 -0.3557
 5588TIP3   OH238254   1.880   3.508   0.391  0.5370 -0.0806 -0.1291
 5588TIP3    H138255   1.793   3.485   0.359 -0.0527  0.5268  1.0185
 5588TIP3    H238256   1.883   3.475   0.480  1.4426  0.0171 -0.1122
 5589TIP3   OH238257   2.859   5.006  11.129  0.2929  0.0939  0.0551
 5589TIP3    H138258   2.953   4.992  11.116  0.2068 -0.5067  0.0665
 5589TIP3    H238259   2.827   5.035  11.043  0.7695  1.9712  0.4562
 5590TIP3   OH238260   3.616   1.669   3.203  0.2027 -0.0332 -0.2385
 5590TIP3    H138261   3.553   1.697   3.136  0.6805 -0.1752 -0.7613
 5590TIP3    H238262   3.594   1.721   3.280 -0.6543 -0.1981 -0.3633
 5591TIP3   OH238263   6.032   3.223  15.028 -0.3592  0.2476  0.0282
 5591TIP3    H138264   6.047   3.284  14.956  0.0431  1.3807  1.0252
 5591TIP3    H238265   6.118   3.212  15.068 -0.0727 -2.3307 -1.0994
 5592TIP3   OH238266   2.206   6.561  16.883  0.4142 -0.2544 -0.0683
 5592TIP3    H138267   2.130   6.598  16.838 -0.4477 -1.2547  0.5354
 5592TIP3    H238268   2.280   6.586  16.827 -0.4894 -0.3836 -1.3736
 5593TIP3   OH238269   1.573   0.834   3.823  0.4629 -0.3036 -0.4173
 5593TIP3    H138270   1.537   0.883   3.897  0.8068 -0.9705  0.2056
 5593TIP3    H238271   1.652   0.793   3.858  0.0668 -1.4836 -0.8493
 5594TIP3   OH238272   4.233   2.274   1.296 -0.3610 -0.3440  0.0760
 5594TIP3    H138273   4.243   2.361   1.257  0.4231 -0.9059 -1.0289
 5594TIP3    H238274   4.322   2.238   1.297 -0.6303 -1.0287  0.8094
 5595TIP3   OH238275   2.438   5.096   5.295 -0.0284  0.1689 -0.3084
 5595TIP3    H138276   2.396   5.015   5.324 -1.6158  0.5050 -1.4828
 5595TIP3    H238277   2.418   5.100   5.201  2.8754  0.2732 -1.0084
 5596TIP3   OH238278   3.626   6.502   0.869  0.0733  0.3836 -0.7808
 5596TIP3    H138279   3.631   6.492   0.964  0.5982 -2.4399 -1.0247
 5596TIP3    H238280   3.713   6.533   0.844  0.2060  0.2957 -0.4378
 5597TIP3   OH238281   2.161   1.733   6.304  0.0339  0.1063 -0.0500
 5597TIP3    H138282   2.120   1.819   6.312 -0.7476  0.0477 -2.4806
 5597TIP3    H238283   2.102   1.673   6.350  0.5514  0.8277  1.6027
 5598TIP3   OH238284   6.703   5.536   6.155  0.0885 -0.0073  0.8673
 5598TIP3    H138285   6.676   5.568   6.069 -0.3743  0.4460  1.1740
 5598TIP3    H238286   6.763   5.602   6.188 -0.8455  0.5574  1.4884
 5599TIP3   OH238287   1.194   2.429   5.875  0.3261 -0.1334 -0.4235
 5599TIP3    H138288   1.183   2.365   5.805  1.0249 -0.1521 -0.5156
 5599TIP3    H238289   1.288   2.435   5.888  0.2385  0.4893 -0.0539
 5600TIP3   OH238290   2.310   1.574  12.791  0.2238 -0.2434  0.1389
 5600TIP3    H138291   2.232   1.519  12.789  1.2477 -2.0879  3.1211
 5600TIP3    H238292   2.291   1.641  12.856  0.1326  1.1313 -1.2475
 5601TIP3   OH238293   3.227   4.673   6.610  0.3199  0.0905  0.0069
 5601TIP3    H138294   3.255   4.586   6.637  0.8011  0.2287 -0.0412
 5601TIP3    H238295   3.222   4.723   6.692 -0.7882 -0.2082  0.1384
 5602TIP3   OH238296   1.516   2.819  14.417  0.4317  0.2270 -0.1835
 5602TIP3    H138297   1.465   2.806  14.497  1.9238 -0.0574  0.7808
 5602TIP3    H238298   1.463   2.780  14.347 -0.3193 -0.7243  0.8830
 5603TIP3   OH238299   1.799   6.138   2.281 -0.0797 -0.2371  0.2538
 5603TIP3    H138300   1.844   6.127   2.197  0.4947 -1.7930  0.7327
 5603TIP3    H238301   1.847   6.082   2.342 -0.0344  1.3813  1.8223
 5604TIP3   OH238302   6.173   0.306   0.808 -0.2378 -0.3512 -0.1930
 5604TIP3    H138303   6.224   0.271   0.882 -0.3670 -0.9441 -0.3800
 5604TIP3    H238304   6.087   0.266   0.817  0.4818 -2.5646 -2.1364
 5605TIP3   OH238305   6.585   3.796  15.847 -0.9006 -0.0226 -0.1946
 5605TIP3    H138306   6.551   3.783  15.936  0.6975 -1.2059  0.2910
 5605TIP3    H238307   6.629   3.881  15.850 -1.0424  0.0419  0.0899
 5606TIP3   OH238308   1.009   6.000   2.250  0.7502 -0.2256 -0.0146
 5606TIP3    H138309   0.986   5.991   2.342  2.6131  0.6712  0.5827
 5606TIP3    H238310   1.098   5.965   2.244  0.4573 -0.7945 -1.5959
 5607TIP3   OH238311   3.474   3.677   4.933  0.4184  0.0011  0.2129
 5607TIP3    H138312   3.447   3.740   5.000  2.2617 -0.3592  1.3626
 5607TIP3    H238313   3.491   3.597   4.982 -1.0712 -1.1964 -1.1204
 5608TIP3   OH238314   6.696   5.002   4.725  0.1182 -0.7247 -0.2556
 5608TIP3    H138315   6.662   5.091   4.720  0.1217 -0.6547  0.8773
 5608TIP3    H238316   6.630   4.949   4.680  0.3396 -0.1103 -1.3548
 5609TIP3   OH238317   1.280   1.729  16.098  0.0683  0.3030 -0.5135
 5609TIP3    H138318   1.211   1.755  16.160 -0.2002 -0.0152 -0.6784
 5609TIP3    H238319   1.243   1.655  16.051  1.0257 -0.7400  0.3300
 5610TIP3   OH238320   6.597   0.157  13.989  0.0898  0.0947  0.1064
 5610TIP3    H138321   6.650   0.079  14.001 -3.4086 -2.3994  0.7128
 5610TIP3    H238322   6.535   0.134  13.920 -0.5430  2.6916 -0.3173
 5611TIP3   OH238323   0.824   3.580  16.437  0.3876  0.2183  0.5180
 5611TIP3    H138324   0.857   3.493  16.412  0.7765  0.0696  1.4983
 5611TIP3    H238325   0.902   3.635  16.442  0.2442  0.4027  0.7621
 5612TIP3   OH238326   6.473   6.541   4.600 -0.2362  0.5049 -0.0488
 5612TIP3    H138327   6.394   6.533   4.546  0.1104  1.8417 -0.8247
 5612TIP3    H238328   6.503   6.631   4.584  2.0455 -0.2846 -0.6359
 5613TIP3   OH238329   4.130   4.529   5.533  0.1655 -0.6063  0.0219
 5613TIP3    H138330   4.185   4.467   5.581  0.4739 -2.3955 -2.4399
 5613TIP3    H238331   4.043   4.490   5.533 -0.1806  0.1554  0.4457
 5614TIP3   OH238332   5.806   6.556   2.688 -0.4352 -0.2021 -0.6928
 5614TIP3    H138333   5.793   6.532   2.597  1.4946 -0.5844 -0.9071
 5614TIP3    H238334   5.721   6.590   2.716 -2.0164 -2.9276 -1.7252
 5615TIP3   OH238335   5.787   1.301  16.896  0.1521 -0.0989 -0.1927
 5615TIP3    H138336   5.716   1.322  16.956  0.8011  0.1479  0.5127
 5615TIP3    H238337   5.745   1.260  16.821 -0.9800  2.0787 -0.8291
 5616TIP3   OH238338   6.591   6.157  12.644  0.0762  0.2133  0.2714
 5616TIP3    H138339   6.543   6.239  12.659  1.1884  0.8401  0.5228
 5616TIP3    H238340   6.680   6.185  12.624  0.5190 -0.9566  0.5380
 5617TIP3   OH238341   1.660   1.057   3.105 -0.7062  0.3539 -0.3654
 5617TIP3    H138342   1.716   1.058   3.027  1.5632  2.1501  1.1449
 5617TIP3    H238343   1.638   0.964   3.118  0.1028 -0.1502 -2.2604
 5618TIP3   OH238344   6.333   2.198   5.484 -0.0546  0.1669 -0.2841
 5618TIP3    H138345   6.305   2.287   5.464  1.4271  1.0223  1.1660
 5618TIP3    H238346   6.374   2.167   5.403  2.9178  2.3226  0.2168
 5619TIP3   OH238347   3.833   1.639   0.023 -0.5408  0.1747  0.5139
 5619TIP3    H138348   3.776   1.561   0.025  0.9165 -0.9417  2.3421
 5619TIP3    H238349   3.831   1.668  -0.068 -2.8975 -0.6416  0.2186
 5620TIP3   OH238350   4.105   2.109  13.309 -0.9335 -0.0652 -0.3642
 5620TIP3    H138351   4.021   2.077  13.344 -1.9522  1.5566 -1.2410
 5620TIP3    H238352   4.112   2.069  13.223 -0.3325 -0.9022  0.0480
 5621TIP3   OH238353   0.496   1.442  16.323  0.1320 -0.8638 -0.5060
 5621TIP3    H138354   0.544   1.444  16.405 -1.2126  0.7540  0.3086
 5621TIP3    H238355   0.510   1.528  16.284 -1.1866 -0.7321 -0.7553
 5622TIP3   OH238356   4.866   5.258  16.242 -0.7393 -0.1993 -0.1199
 5622TIP3    H138357   4.839   5.334  16.293  3.1263  0.9897  0.4699
 5622TIP3    H238358   4.929   5.292  16.178  0.8991 -2.8163 -0.0572
 5623TIP3   OH238359   0.430   1.512   0.432 -0.1004  0.1585 -0.0272
 5623TIP3    H138360   0.355   1.564   0.459 -0.7585  0.1099 -1.6427
 5623TIP3    H238361   0.394   1.426   0.412  0.4862 -0.0557 -0.1881
 5624TIP3   OH238362   4.038   0.579  17.120 -0.3958  0.0153  0.6827
 5624TIP3    H138363   3.948   0.609  17.110 -0.4062 -0.0581  0.5433
 5624TIP3    H238364   4.086   0.622  17.048  0.1897  1.9954  2.1841
 5625TIP3   OH238365   0.136   4.400  12.846  0.3393  0.5810 -0.3188
 5625TIP3    H138366   0.201   4.344  12.803  0.0366 -0.8425  0.9965
 5625TIP3    H238367   0.062   4.401  12.786  0.6713  0.2769 -0.7476
 5626TIP3   OH238368   0.021   4.210   5.043  0.4742  0.1775  0.1437
 5626TIP3    H138369  -0.040   4.169   5.104 -0.6179  2.4147  0.6869
 5626TIP3    H238370   0.069   4.274   5.096  0.2720  1.4075 -1.0934
 5627TIP3   OH238371   3.211   0.987  15.661 -0.1821  0.3212 -0.7801
 5627TIP3    H138372   3.282   0.945  15.711 -0.6944  0.4680  0.1042
 5627TIP3    H238373   3.166   0.914  15.618 -1.2314 -0.1228  0.9651
 5628TIP3   OH238374   3.195   0.681   4.287 -0.4924  0.1004  0.2523
 5628TIP3    H138375   3.136   0.721   4.222  1.3450 -3.0008 -3.7312
 5628TIP3    H238376   3.136   0.636   4.347 -2.3237  0.5798 -1.0804
 5629TIP3   OH238377   3.171   2.291  15.759 -0.0577  0.2008  0.2537
 5629TIP3    H138378   3.257   2.330  15.776  1.3830 -2.6756  0.0787
 5629TIP3    H238379   3.110   2.364  15.768  2.4728  2.6550 -0.8445
 5630TIP3   OH238380   2.070   4.800   0.981 -0.0891 -0.5381  0.5792
 5630TIP3    H138381   2.014   4.775   0.908 -0.9378 -0.0886  1.0516
 5630TIP3    H238382   2.159   4.778   0.953 -0.6964 -3.5312  0.7451
 5631TIP3   OH238383   0.159   0.178  13.504  0.4112 -0.1578 -0.2853
 5631TIP3    H138384   0.091   0.129  13.549  0.8442  0.8783  1.5963
 5631TIP3    H238385   0.113   0.245  13.453 -0.0079  0.2491  0.6191
 5632TIP3   OH238386   4.909   4.925   4.964 -0.4508 -0.3127 -0.5151
 5632TIP3    H138387   4.999   4.944   4.991 -1.0026  2.5716 -0.3768
 5632TIP3    H238388   4.859   4.924   5.046 -0.6940 -1.1427 -0.6587
 5633TIP3   OH238389   3.935   1.408   1.724 -0.9813 -0.2609  0.5427
 5633TIP3    H138390   3.955   1.490   1.679 -0.3463 -1.4330 -1.4607
 5633TIP3    H238391   3.948   1.427   1.817 -0.6991  1.8370  0.1215
 5634TIP3   OH238392   3.603   6.189   4.159 -0.5371  0.5443  0.0478
 5634TIP3    H138393   3.688   6.168   4.120 -1.4989 -1.7351 -1.0069
 5634TIP3    H238394   3.546   6.208   4.085 -1.1324  1.4612  0.7060
 5635TIP3   OH238395   6.339   3.671  13.004  0.0111 -0.0854 -0.7171
 5635TIP3    H138396   6.422   3.701  13.041 -0.2920  1.3889 -1.1698
 5635TIP3    H238397   6.360   3.646  12.914 -0.0114  0.1325 -0.7816
 5636TIP3   OH238398   0.326   5.579   0.970 -0.4318  0.1636 -0.5151
 5636TIP3    H138399   0.300   5.658   1.017  0.5123  1.6486 -2.3314
 5636TIP3    H238400   0.416   5.563   0.998 -0.9262 -0.8937  0.5742
 5637TIP3   OH238401   5.705   0.862  11.867 -0.1883 -0.0413  0.3032
 5637TIP3    H138402   5.727   0.827  11.781 -1.7005  0.3668 -0.2869
 5637TIP3    H238403   5.734   0.953  11.865 -1.5837  0.4132 -0.3650
 5638TIP3   OH238404   1.851   1.767  12.177  0.3711 -0.0500 -0.0106
 5638TIP3    H138405   1.945   1.752  12.164  0.2658 -0.3189 -0.4898
 5638TIP3    H238406   1.838   1.859  12.152  0.5538  0.0795  0.3525
 5639TIP3   OH238407   2.030   5.663  11.589 -0.7594 -0.0917 -0.2484
 5639TIP3    H138408   1.953   5.659  11.532 -0.6546  0.2316 -0.4134
 5639TIP3    H238409   1.994   5.678  11.676 -0.9263 -0.6844 -0.2088
 5640TIP3   OH238410   0.409   3.648  15.474  0.1415 -0.1814 -0.1747
 5640TIP3    H138411   0.397   3.742  15.471 -0.8714 -0.2275  1.6167
 5640TIP3    H238412   0.365   3.615  15.395  0.0434  0.7766 -0.5260
 5641TIP3   OH238413   0.857   5.886   2.466 -0.4912  0.4269 -0.1905
 5641TIP3    H138414   0.933   5.886   2.523 -0.0606  0.5230 -0.7645
 5641TIP3    H238415   0.801   5.956   2.500  0.5266  1.6116 -0.9025
 5642TIP3   OH238416   2.221   3.519   4.898 -0.5991  0.6675  0.6837
 5642TIP3    H138417   2.246   3.440   4.944 -1.1561  0.0574 -0.0349
 5642TIP3    H238418   2.132   3.502   4.866 -0.3417  1.1620 -0.3659
 5643TIP3   OH238419   4.672   4.456  12.071  0.6258  0.1223  0.4188
 5643TIP3    H138420   4.586   4.478  12.034  1.0322 -0.6866 -1.1203
 5643TIP3    H238421   4.703   4.537  12.111 -0.4876  0.6495  0.2554
 5644TIP3   OH238422   5.117   2.195   2.270 -0.4688 -0.5693 -0.7075
 5644TIP3    H138423   5.121   2.108   2.229 -2.1255 -0.6042 -0.8505
 5644TIP3    H238424   5.037   2.193   2.322 -0.4168  0.8152 -0.5465
 5645TIP3   OH238425   1.109   2.599   5.646  0.2465 -0.2139  0.4482
 5645TIP3    H138426   1.177   2.572   5.584  0.9286  1.4771  0.4140
 5645TIP3    H238427   1.140   2.569   5.731 -1.0087 -3.1564  0.0076
 5646TIP3   OH238428   1.078   4.733   0.196 -0.2712  0.2121 -0.2346
 5646TIP3    H138429   1.106   4.753   0.285 -1.4191  2.0951 -0.2347
 5646TIP3    H238430   1.016   4.661   0.205 -1.1797  1.0808  0.6356
 5647TIP3   OH238431   3.947   1.940   1.099 -0.4553  0.2432 -0.3927
 5647TIP3    H138432   4.038   1.954   1.123 -0.3295 -1.6254  0.3472
 5647TIP3    H238433   3.945   1.949   1.003  0.4005  0.6773 -0.3790
 5648TIP3   OH238434   3.849   3.823   4.265 -0.2884 -0.3066  0.3801
 5648TIP3    H138435   3.788   3.897   4.260  1.1396  0.8702 -0.6640
 5648TIP3    H238436   3.922   3.855   4.319  0.1303 -1.1320  0.3298
 5649TIP3   OH238437   6.445   5.899  12.359 -0.1075  0.4076  0.0658
 5649TIP3    H138438   6.526   5.950  12.355 -0.6001  1.1618 -0.8123
 5649TIP3    H238439   6.452   5.838  12.285 -1.5840  2.4921 -1.9645
 5650TIP3   OH238440   0.021   3.633  12.740 -0.0304 -0.3647 -0.2349
 5650TIP3    H138441  -0.060   3.684  12.737 -1.2942 -2.2502  0.1312
 5650TIP3    H238442   0.011   3.567  12.671  1.5368 -0.1791 -0.6770
 5651TIP3   OH238443   4.437   2.657   4.499  0.2301  0.5053  0.2599
 5651TIP3    H138444   4.439   2.641   4.593 -0.1411  0.0868  0.1986
 5651TIP3    H238445   4.522   2.697   4.479  1.1352 -1.2338  0.4464
 5652TIP3   OH238446   4.599   5.089   6.610 -0.1029  0.2600 -0.1928
 5652TIP3    H138447   4.520   5.136   6.638 -1.1359 -1.2786 -0.4018
 5652TIP3    H238448   4.669   5.153   6.619 -1.4704  1.8839 -0.6234
 5653TIP3   OH238449   1.905   6.429  11.068 -0.3484  0.2817 -0.4662
 5653TIP3    H138450   1.896   6.418  10.973  0.6581  1.0227 -0.6639
 5653TIP3    H238451   1.949   6.350  11.098 -1.1601 -0.2028 -0.5243
 5654TIP3   OH238452   2.116   6.271   6.013  0.0542 -0.3598  0.2529
 5654TIP3    H138453   2.063   6.218   5.954  0.1830 -0.5406  0.2983
 5654TIP3    H238454   2.195   6.218   6.029  0.3141 -0.0297  0.0723
 5655TIP3   OH238455   0.863   5.531   5.370  0.0292  0.1227  0.0278
 5655TIP3    H138456   0.827   5.469   5.307 -1.4653  0.7355  0.2351
 5655TIP3    H238457   0.950   5.553   5.335 -0.1995 -0.6062 -1.0554
 5656TIP3   OH238458   0.686   0.733   2.780  0.4473 -0.1409 -0.2366
 5656TIP3    H138459   0.771   0.708   2.745  0.6198  0.3448 -0.1757
 5656TIP3    H238460   0.698   0.730   2.875  0.6409  0.7181 -0.2262
 5657TIP3   OH238461   5.420   4.591  16.044  0.9803  0.7258 -0.1052
 5657TIP3    H138462   5.334   4.622  16.015 -0.9206 -1.7411  2.3466
 5657TIP3    H238463   5.468   4.575  15.963 -0.7193  2.4852 -1.5602
 5658TIP3   OH238464   6.599   5.770  13.782  0.4417  0.2057  0.3665
 5658TIP3    H138465   6.590   5.815  13.866  2.4944  0.4346  0.4984
 5658TIP3    H238466   6.612   5.678  13.804 -1.4283 -0.1527  0.1703
 5659TIP3   OH238467   3.689   6.318   4.375  0.4242 -0.0943 -0.1486
 5659TIP3    H138468   3.710   6.388   4.314  1.8244 -1.4269 -1.2847
 5659TIP3    H238469   3.651   6.249   4.320  0.0999 -0.6656  0.7584
 5660TIP3   OH238470   4.259   3.452   1.914 -0.1729 -0.1700  0.1529
 5660TIP3    H138471   4.197   3.486   1.849  2.0453  0.0169 -1.9952
 5660TIP3    H238472   4.243   3.505   1.992 -2.3665  0.1578 -0.4359
 5661TIP3   OH238473   5.488   1.448  16.621 -0.2000  0.4233 -0.4335
 5661TIP3    H138474   5.403   1.453  16.664 -0.0041  0.9851 -0.0903
 5661TIP3    H238475   5.485   1.517  16.555  0.4966  1.4254  0.5422
 5662TIP3   OH238476   4.506   2.183  13.720 -0.0613  0.1137 -0.2863
 5662TIP3    H138477   4.429   2.224  13.680 -0.4487  1.4712  1.7360
 5662TIP3    H238478   4.511   2.220  13.807  1.2595 -2.0700  0.6620
 5663TIP3   OH238479   4.695   4.832  10.679 -0.1849 -0.0619 -0.3502
 5663TIP3    H138480   4.760   4.765  10.657  0.2063 -0.2981  1.3587
 5663TIP3    H238481   4.651   4.798  10.757 -1.6573  0.5904 -0.8505
 5664TIP3   OH238482   6.508   1.921   3.683 -0.0459  0.0545  0.1544
 5664TIP3    H138483   6.503   1.830   3.652  1.5746  0.7930 -2.6178
 5664TIP3    H238484   6.420   1.955   3.672 -0.6303 -1.0942  1.0374
 5665TIP3   OH238485   0.551   2.771   1.047  0.1785  0.6141  0.1808
 5665TIP3    H138486   0.500   2.690   1.042  2.4019 -1.0183  1.8655
 5665TIP3    H238487   0.498   2.829   1.102 -1.5600  0.4586 -1.2456
 5666TIP3   OH238488   5.846   1.751   2.129 -0.1078 -0.3163 -0.0117
 5666TIP3    H138489   5.790   1.765   2.052 -0.8615  1.6107  0.8365
 5666TIP3    H238490   5.925   1.802   2.110  0.3002 -0.9539 -0.0751
 5667TIP3   OH238491   3.719   5.837   3.440  1.3564  0.2847 -0.4643
 5667TIP3    H138492   3.781   5.778   3.484  1.3096 -0.5961 -1.5433
 5667TIP3    H238493   3.773   5.909   3.408  1.9199 -0.6347 -1.6726
 5668TIP3   OH238494   5.746   4.986   1.620 -0.2356  0.2802  0.3836
 5668TIP3    H138495   5.652   4.984   1.606  0.0778  1.4684 -2.9072
 5668TIP3    H238496   5.779   4.909   1.574  0.4416 -0.1656  1.5543
 5669TIP3   OH238497   2.047   5.436  12.115  0.7220 -0.0083  0.1832
 5669TIP3    H138498   1.962   5.433  12.072 -0.3180  0.0139  2.1557
 5669TIP3    H238499   2.036   5.385  12.195  2.6068 -0.0966  0.4363
 5670TIP3   OH238500   5.466   1.142   5.129 -0.1926 -0.0357 -0.3722
 5670TIP3    H138501   5.517   1.062   5.118  0.5367  0.4858 -0.8869
 5670TIP3    H238502   5.375   1.112   5.140 -0.2733 -0.8744 -2.6973
 5671TIP3   OH238503   4.868   0.165   0.387 -0.6843  0.2862 -0.0201
 5671TIP3    H138504   4.860   0.200   0.298 -0.5941 -0.6426 -0.4101
 5671TIP3    H238505   4.779   0.167   0.422 -1.1903 -1.5910 -1.0388
 5672TIP3   OH238506   5.751   2.646   6.000  0.1732  0.1893  0.2965
 5672TIP3    H138507   5.771   2.724   5.948 -0.2639 -0.5250 -1.0097
 5672TIP3    H238508   5.836   2.608   6.020  0.4632  1.6152  2.0027
 5673TIP3   OH238509   2.381   2.423   1.570  0.2577 -0.5166 -0.3604
 5673TIP3    H138510   2.328   2.469   1.634  0.0733  0.6399 -1.3139
 5673TIP3    H238511   2.446   2.375   1.622 -0.6780 -0.6285  0.7268
 5674TIP3   OH238512   2.487   6.642   1.349 -0.0159 -0.0332  0.2626
 5674TIP3    H138513   2.468   6.710   1.414 -0.6762  2.1181 -2.0421
 5674TIP3    H238514   2.410   6.584   1.353  0.3466 -0.4560  1.9408
 5675TIP3   OH238515   4.965   1.389  14.654  0.8035  0.7170  0.5226
 5675TIP3    H138516   4.994   1.478  14.673  1.9154  0.5008 -0.0444
 5675TIP3    H238517   5.015   1.334  14.714  1.0017  0.3898  0.0656
 5676TIP3   OH238518   4.751   4.339   5.787  0.1943  0.2238 -0.4920
 5676TIP3    H138519   4.731   4.257   5.832  1.8669  0.7040  1.2676
 5676TIP3    H238520   4.693   4.403   5.827 -0.1814  0.1464 -0.9158
 5677TIP3   OH238521   0.413   4.409  15.859  0.5320 -0.1764 -0.4137
 5677TIP3    H138522   0.480   4.353  15.898  0.5628 -0.7005 -1.2032
 5677TIP3    H238523   0.387   4.364  15.779  0.3983  0.8273 -0.9547
 5678TIP3   OH238524   5.049   3.775   2.762 -0.3369  0.2330 -0.0278
 5678TIP3    H138525   5.001   3.854   2.738 -0.8333 -0.5831 -1.8573
 5678TIP3    H238526   5.118   3.767   2.696  1.6889  0.7558  1.8940
 5679TIP3   OH238527   3.811   6.022   6.550 -0.4066 -0.5383  0.0671
 5679TIP3    H138528   3.871   5.951   6.573  0.5180 -0.7084 -2.4462
 5679TIP3    H238529   3.869   6.089   6.512 -1.6488 -0.1033 -1.1219
 5680TIP3   OH238530   2.069   5.979   1.936  0.0540  0.0488  0.5589
 5680TIP3    H138531   2.128   5.943   1.869  0.6368  0.3157  0.9223
 5680TIP3    H238532   2.092   6.072   1.940 -0.9388  0.3287  0.1452
 5681TIP3   OH238533   1.189   6.120  15.602  0.3389  0.3944 -0.2192
 5681TIP3    H138534   1.258   6.076  15.652 -0.1087  0.1926  0.2325
 5681TIP3    H238535   1.224   6.128  15.514  1.3042  1.0839  0.2029
 5682TIP3   OH238536   6.373   2.034   1.910 -0.1564 -0.0666 -0.1595
 5682TIP3    H138537   6.325   2.116   1.900  1.8789  1.2212 -0.0643
 5682TIP3    H238538   6.390   2.028   2.004  0.1932 -0.2806 -0.2336
 5683TIP3   OH238539   5.320   6.481  17.350 -0.1754  0.6256 -0.1221
 5683TIP3    H138540   5.305   6.487  17.255  0.3721 -0.0299 -0.2584
 5683TIP3    H238541   5.414   6.493  17.360 -0.0752 -0.3890  0.2327
 5684TIP3   OH238542   1.317   3.550   0.945  0.1022 -0.2362 -0.2208
 5684TIP3    H138543   1.338   3.600   0.866  0.0784  0.8503  0.4276
 5684TIP3    H238544   1.230   3.514   0.928 -0.4416  1.0094 -0.2484
 5685TIP3   OH238545   2.521   0.458  15.973 -0.5313  0.2897  0.5264
 5685TIP3    H138546   2.522   0.552  15.994 -4.3843  1.1481 -1.9815
 5685TIP3    H238547   2.447   0.423  16.023 -1.4305 -0.5075 -1.2509
 5686TIP3   OH238548   1.595   6.588  15.357  0.6859 -0.1886  0.0298
 5686TIP3    H138549   1.643   6.524  15.305  0.7701 -0.6764  0.6955
 5686TIP3    H238550   1.629   6.673  15.328  0.2846 -0.4062 -1.1441
 5687TIP3   OH238551   5.711   2.049  16.787 -0.1311 -0.3005  0.1348
 5687TIP3    H138552   5.659   2.016  16.714  2.2732  1.0473 -2.3970
 5687TIP3    H238553   5.657   2.119  16.825 -0.7425  0.2063 -1.5735
 5688TIP3   OH238554   0.020   3.497   6.600  0.0770  0.4677  0.1624
 5688TIP3    H138555   0.089   3.489   6.667 -1.1146  1.5920  1.5862
 5688TIP3    H238556  -0.041   3.426   6.621 -1.1323  1.7955  1.3554
 5689TIP3   OH238557   3.373   5.334  12.895  0.8787 -0.3399 -0.1409
 5689TIP3    H138558   3.339   5.292  12.816  1.0629 -0.5668 -0.0981
 5689TIP3    H238559   3.416   5.264  12.944  2.4049  0.1436 -0.7314
 5690TIP3   OH238560   4.034   2.434  15.094  0.4388  0.1122 -0.6064
 5690TIP3    H138561   4.021   2.396  15.181 -2.7394  2.7951  0.3175
 5690TIP3    H238562   4.123   2.470  15.096  1.6418 -2.6503  0.2446
 5691TIP3   OH238563   5.405   0.300  12.361  0.6781  0.1276  0.1690
 5691TIP3    H138564   5.468   0.366  12.333 -0.9271  1.6903  0.0452
 5691TIP3    H238565   5.397   0.241  12.286 -1.1752  2.4206 -1.5734
 5692TIP3   OH238566   6.057   3.342  13.231 -0.7255  0.1321 -0.1805
 5692TIP3    H138567   6.110   3.285  13.287  0.1815  1.6143  0.5755
 5692TIP3    H238568   6.114   3.363  13.157 -0.6367  0.8917  0.0944
 5693TIP3   OH238569   6.318   3.516   4.641  0.1244  0.1382 -0.2285
 5693TIP3    H138570   6.308   3.598   4.689 -0.9698 -0.3642  0.4255
 5693TIP3    H238571   6.372   3.540   4.565  0.8342  1.2032  0.5710
 5694TIP3   OH238572   5.489   2.714  11.362  0.6669 -0.1678 -0.8132
 5694TIP3    H138573   5.428   2.756  11.422  0.8433  1.6427 -1.8307
 5694TIP3    H238574   5.433   2.663  11.303  0.3205 -0.1689 -0.4886
 5695TIP3   OH238575   1.605   5.172  11.190 -0.3612  0.1518  0.2898
 5695TIP3    H138576   1.600   5.124  11.107 -1.1286  1.0653 -0.2142
 5695TIP3    H238577   1.665   5.121  11.244 -0.4322 -0.8618 -0.5621
 5696TIP3   OH238578   1.383   1.006  14.630 -0.4147  0.2458 -0.4391
 5696TIP3    H138579   1.321   1.046  14.569 -1.2568  0.8547  0.7738
 5696TIP3    H238580   1.330   0.984  14.707  1.0263  1.6777  1.0400
 5697TIP3   OH238581   1.305   2.025  12.927 -0.1724  0.6664  0.8171
 5697TIP3    H138582   1.347   2.035  13.012  1.7667  1.5333 -0.1560
 5697TIP3    H238583   1.355   2.083  12.869  0.8438 -2.4155 -1.6672
 5698TIP3   OH238584   6.162   3.842   2.112 -0.3879 -0.8174  0.2208
 5698TIP3    H138585   6.247   3.801   2.098  1.0729  2.0157  0.1419
 5698TIP3    H238586   6.174   3.898   2.189 -1.3901  1.4839 -1.1789
 5699TIP3   OH238587   2.271   0.542   6.855 -0.1617  0.0745 -0.4484
 5699TIP3    H138588   2.250   0.633   6.835 -0.2892 -0.0317 -0.7931
 5699TIP3    H238589   2.332   0.515   6.785 -2.3642 -1.0077 -2.0637
 5700TIP3   OH238590   3.548   5.353   0.238  0.2871  0.0901 -0.5726
 5700TIP3    H138591   3.497   5.328   0.315 -0.5512  1.4776 -0.6485
 5700TIP3    H238592   3.483   5.357   0.168  1.3385 -3.4555 -2.0096
 5701TIP3   OH238593   5.175   2.744   3.339 -0.1155 -0.4406  0.2702
 5701TIP3    H138594   5.083   2.720   3.329 -0.4362  1.3880 -1.7920
 5701TIP3    H238595   5.175   2.839   3.338  1.8042 -0.4080  0.2969
 5702TIP3   OH238596   1.697   6.285   5.529  0.1251 -0.1394  0.5868
 5702TIP3    H138597   1.729   6.375   5.530  0.5432 -0.2688 -0.1135
 5702TIP3    H238598   1.664   6.270   5.618  1.2002  0.3005  1.0877
 5703TIP3   OH238599   2.732   0.097  16.589 -0.0119 -0.0407  0.1721
 5703TIP3    H138600   2.641   0.106  16.615 -0.1586  0.8526 -0.5714
 5703TIP3    H238601   2.751   0.004  16.597 -0.2123  0.0753  2.7947
 5704TIP3   OH238602   5.404   1.970  16.828 -0.3463 -0.3949 -1.0009
 5704TIP3    H138603   5.463   1.977  16.902  0.1907 -0.2830 -1.4303
 5704TIP3    H238604   5.433   2.039  16.768 -1.7208  0.5149 -0.6689
 5705TIP3   OH238605   5.321   6.641  17.125  0.5014 -0.3465  0.5702
 5705TIP3    H138606   5.357   6.696  17.195 -0.5475  1.4340 -0.2271
 5705TIP3    H238607   5.232   6.673  17.113  0.7299 -0.4189 -1.7670
 5706TIP3   OH238608   4.210   2.096  13.897  0.1556  0.1410  0.4272
 5706TIP3    H138609   4.254   2.015  13.871 -1.5896 -0.5067 -0.7708
 5706TIP3    H238610   4.219   2.154  13.821  0.5200  0.6795  0.8803
 5707TIP3   OH238611   0.349   4.258  16.974  0.0994 -0.4086 -0.1162
 5707TIP3    H138612   0.418   4.196  16.951  1.0967  0.6299 -0.0218
 5707TIP3    H238613   0.393   4.343  16.978 -0.7876  0.0285  1.7928
 5708TIP3   OH238614   0.197   6.526   0.847 -0.6644  0.1192 -0.2605
 5708TIP3    H138615   0.163   6.517   0.935  0.5481 -0.3335  0.1890
 5708TIP3    H238616   0.283   6.567   0.858 -0.2262 -0.5070 -1.1623
 5709TIP3   OH238617   0.692   4.171   3.389 -0.0896  0.4905  0.5355
 5709TIP3    H138618   0.709   4.100   3.452  1.5357  1.6741  1.4981
 5709TIP3    H238619   0.662   4.244   3.443 -0.6956  0.8848 -0.3193
 5710TIP3   OH238620   3.906   6.355   1.505 -0.7844  0.3239 -0.0886
 5710TIP3    H138621   3.918   6.439   1.459  0.7991  1.8008  2.7064
 5710TIP3    H238622   3.905   6.379   1.597  3.8706 -2.9338  1.2089
 5711TIP3   OH238623   3.506   2.942  15.674 -0.2128  0.1361  0.0751
 5711TIP3    H138624   3.597   2.966  15.694 -0.5222  1.3485  0.1007
 5711TIP3    H238625   3.512   2.852  15.642  0.7213 -0.6593  2.2694
 5712TIP3   OH238626   3.425   5.868   3.399  0.0608 -0.3238 -0.2634
 5712TIP3    H138627   3.430   5.963   3.392  0.3858 -0.2180  1.0336
 5712TIP3    H238628   3.514   5.841   3.419  0.2634 -1.0654 -2.0362
 5713TIP3   OH238629   5.183   0.540   4.654 -0.1295 -0.5235  0.6282
 5713TIP3    H138630   5.135   0.460   4.633  1.4034 -1.4145  0.3703
 5713TIP3    H238631   5.215   0.525   4.743  1.8431 -1.0973 -0.1319
 5714TIP3   OH238632   1.578   0.856   5.327 -0.3269 -0.6020  0.6970
 5714TIP3    H138633   1.550   0.917   5.394  1.5321  1.0972  0.0462
 5714TIP3    H238634   1.671   0.840   5.346 -0.1486 -1.2600 -0.5837
 5715TIP3   OH238635   3.025   6.422  14.261 -0.4188 -0.3505 -0.5930
 5715TIP3    H138636   2.974   6.356  14.307 -0.3154 -1.0355 -1.4319
 5715TIP3    H238637   3.096   6.372  14.219  0.6922  0.5153  0.1851
 5716TIP3   OH238638   5.162   0.477   0.680  0.3168 -0.5001  0.0808
 5716TIP3    H138639   5.173   0.571   0.665  0.3359 -0.7108 -1.4495
 5716TIP3    H238640   5.141   0.470   0.773 -1.3145  1.1781 -0.0912
 5717TIP3   OH238641   3.694   6.548  11.409  0.2300  0.1797  0.4960
 5717TIP3    H138642   3.789   6.545  11.398  0.3579  0.8185  1.2995
 5717TIP3    H238643   3.659   6.535  11.321  1.0378 -0.7218  0.2858
 5718TIP3   OH238644   6.349   2.615   5.050 -0.0851  0.1404  0.3382
 5718TIP3    H138645   6.443   2.598   5.051 -0.0428  0.3025 -0.3794
 5718TIP3    H238646   6.309   2.528   5.053  0.0792  0.0808  0.9033
 5719TIP3   OH238647   0.467   3.027  16.675  0.5226  0.5106 -0.3983
 5719TIP3    H138648   0.414   2.948  16.679 -0.3066  1.1088  1.4190
 5719TIP3    H238649   0.517   3.018  16.594 -0.1709 -1.4558 -0.6645
 5720TIP3   OH238650   1.310   2.792  14.617 -0.1357 -0.4894 -0.1555
 5720TIP3    H138651   1.242   2.825  14.559  0.6236 -0.7115 -1.2040
 5720TIP3    H238652   1.319   2.859  14.684 -0.3847  0.2202 -0.8127
 5721TIP3   OH238653   0.194   3.553  12.110  0.6346 -0.0416 -0.0446
 5721TIP3    H138654   0.150   3.485  12.059  0.4330 -1.7114  2.2111
 5721TIP3    H238655   0.287   3.539  12.095  0.5929 -0.8417  0.3735
 5722TIP3   OH238656   5.286   5.886   5.815  0.5135  0.3198  0.2985
 5722TIP3    H138657   5.297   5.807   5.762  0.6061  0.4767  0.0827
 5722TIP3    H238658   5.214   5.933   5.773 -0.4278 -0.2733  1.1864
 5723TIP3   OH238659   4.007   0.377   0.344 -0.8962  0.5289 -0.9104
 5723TIP3    H138660   4.017   0.367   0.439  1.0468 -2.8985 -1.3062
 5723TIP3    H238661   3.995   0.471   0.331  0.6757  1.3914  2.5960
 5724TIP3   OH238662   3.406   2.918   5.676 -0.0318 -0.1994  0.1355
 5724TIP3    H138663   3.452   2.917   5.592 -0.2157  0.9585  0.0032
 5724TIP3    H238664   3.439   2.841   5.722  0.9170 -0.2254 -0.5497
 5725TIP3   OH238665   6.329   1.096   3.475  0.1551 -0.4108 -0.0234
 5725TIP3    H138666   6.400   1.134   3.526  0.0779  0.0519 -0.2606
 5725TIP3    H238667   6.262   1.074   3.540 -0.0295  0.3648  0.0607
 5726TIP3   OH238668   5.844   2.755  16.579 -0.0668 -0.3247 -0.0617
 5726TIP3    H138669   5.845   2.772  16.485 -2.6911 -0.2042 -0.1166
 5726TIP3    H238670   5.790   2.825  16.616  0.9642 -0.3386  1.5845
 5727TIP3   OH238671   0.121   4.307   0.885 -0.2117  0.2853  0.0392
 5727TIP3    H138672   0.182   4.327   0.956 -0.2125 -0.0581  0.1399
 5727TIP3    H238673   0.090   4.392   0.855  0.1498  0.4535  0.1340
 5728TIP3   OH238674   5.193   3.854   0.937 -0.5604  0.1716 -0.2333
 5728TIP3    H138675   5.281   3.841   0.901  0.3338  0.4305  1.7401
 5728TIP3    H238676   5.177   3.948   0.926  0.5152  0.6359  1.6211
 5729TIP3   OH238677   4.070   4.501   4.163 -0.2759 -0.2207 -0.3063
 5729TIP3    H138678   4.160   4.477   4.141 -0.0665  1.5105 -1.6064
 5729TIP3    H238679   4.020   4.420   4.154  1.0296 -1.0488 -0.3028
 5730TIP3   OH238680   2.844   0.035  12.937 -0.0765 -0.1460 -0.3746
 5730TIP3    H138681   2.936   0.014  12.956  0.5422  1.8385 -0.9530
 5730TIP3    H238682   2.844   0.128  12.918 -2.3037 -0.0294 -0.0528
 5731TIP3   OH238683   2.954   6.468  11.974 -0.8210 -0.0217  0.1048
 5731TIP3    H138684   2.929   6.399  11.911  3.0638  0.4060 -2.2604
 5731TIP3    H238685   2.948   6.549  11.923  0.1217  0.6457  1.0275
 5732TIP3   OH238686   3.640   0.957  16.472 -0.4748  0.2839  0.3744
 5732TIP3    H138687   3.618   0.970  16.380  2.9493  0.9560 -0.4732
 5732TIP3    H238688   3.599   1.031  16.517  0.6029  1.8899 -1.1610
 5733TIP3   OH238689   1.931   2.246  12.803 -0.2878  0.1905 -0.4272
 5733TIP3    H138690   1.968   2.334  12.807  1.1520 -0.2962 -2.0350
 5733TIP3    H238691   1.913   2.223  12.894  2.5421  0.8277  0.3638
 5734TIP3   OH238692   5.790   6.274   2.223  0.3368 -0.7333  0.2037
 5734TIP3    H138693   5.791   6.335   2.150  0.4113  0.3700  1.1028
 5734TIP3    H238694   5.866   6.218   2.209 -0.2653 -1.2482 -1.1344
 5735TIP3   OH238695   4.323   1.691  16.014  0.0652 -0.0979 -0.2746
 5735TIP3    H138696   4.324   1.626  15.945  0.8288 -0.5676  0.1586
 5735TIP3    H238697   4.415   1.701  16.039 -0.1387  0.4744  0.2868
 5736TIP3   OH238698   5.343   3.079   4.486  0.4697 -0.1756  0.3090
 5736TIP3    H138699   5.306   2.991   4.477  0.5247 -0.1710  0.0479
 5736TIP3    H238700   5.277   3.137   4.449  0.9739 -0.2138 -0.6971
 5737TIP3   OH238701   1.161   2.490   5.263  0.8180 -0.1579  0.2313
 5737TIP3    H138702   1.216   2.503   5.340 -0.3205 -2.9054  1.6340
 5737TIP3    H238703   1.147   2.396   5.259 -2.5409  0.2629 -0.9143
 5738TIP3   OH238704   4.925   2.450  17.601  0.2238 -0.1623  0.2737
 5738TIP3    H138705   4.987   2.444  17.528 -0.1405  0.8042 -0.1364
 5738TIP3    H238706   4.976   2.484  17.674  0.8548 -2.1850  0.8275
 5739TIP3   OH238707   1.865   4.917  15.818  0.4941 -0.1176 -0.0167
 5739TIP3    H138708   1.914   4.861  15.758 -1.8834 -1.1870 -1.0951
 5739TIP3    H238709   1.871   5.004  15.780  0.1213 -0.5547 -1.1290
 5740TIP3   OH238710   0.753   1.737  12.932 -0.2346 -0.1700  0.2612
 5740TIP3    H138711   0.795   1.742  12.846  0.4590  0.7602  0.6443
 5740TIP3    H238712   0.729   1.827  12.953 -2.1503 -0.6166  0.2120
 5741TIP3   OH238713   0.144   2.291   2.786 -0.4416 -0.5008 -0.2392
 5741TIP3    H138714   0.095   2.233   2.845 -0.9636  0.8208  0.6792
 5741TIP3    H238715   0.204   2.338   2.844  0.5239 -0.6592 -1.0804
 5742TIP3   OH238716   1.812   5.425   3.651  0.0259 -0.7817 -0.1746
 5742TIP3    H138717   1.759   5.349   3.674 -1.2058  0.1564  0.2128
 5742TIP3    H238718   1.902   5.393   3.652 -0.2275 -1.6356  2.5150
 5743TIP3   OH238719   5.575   1.336   4.224 -0.0531 -0.5850  0.2835
 5743TIP3    H138720   5.486   1.318   4.253  0.1857  1.4428  2.5633
 5743TIP3    H238721   5.625   1.350   4.305  1.9342  0.0628 -0.9777
 5744TIP3   OH238722   2.770   1.138   2.399 -0.3396 -0.4864 -0.1602
 5744TIP3    H138723   2.746   1.190   2.475 -1.8986  0.1487 -1.0428
 5744TIP3    H238724   2.777   1.049   2.433  1.8672  0.1540  1.2665
 5745TIP3   OH238725   6.355   3.864  13.536 -0.1033  0.0847 -0.0271
 5745TIP3    H138726   6.442   3.901  13.546 -1.1169  2.2242  1.8264
 5745TIP3    H238727   6.359   3.779  13.579  2.0775 -1.9321 -3.6766
 5746TIP3   OH238728   1.240   1.702   4.423  0.5170 -0.2920  0.2221
 5746TIP3    H138729   1.305   1.637   4.396 -0.5461 -0.7633 -1.4040
 5746TIP3    H238730   1.177   1.704   4.350 -0.4624  1.2427  1.0557
 5747TIP3   OH238731   5.984   2.949   6.202 -0.1073 -0.4132  0.2469
 5747TIP3    H138732   5.988   2.869   6.255  1.2859 -0.2864  0.3824
 5747TIP3    H238733   5.963   3.018   6.265 -2.1840 -0.7634 -0.0131
 5748TIP3   OH238734   3.279   5.919  11.833 -0.1614 -0.4022 -0.4906
 5748TIP3    H138735   3.263   5.972  11.911  0.1496 -0.1298 -0.6089
 5748TIP3    H238736   3.214   5.951  11.770  0.5928  0.4740 -0.8597
 5749TIP3   OH238737   6.141   4.420  14.795 -0.2661 -0.6356  0.0291
 5749TIP3    H138738   6.062   4.372  14.820  0.5710 -0.8463  2.6141
 5749TIP3    H238739   6.117   4.512  14.803 -1.3770 -0.4987 -3.3021
 5750TIP3   OH238740   1.139   1.274   5.339 -0.5649 -0.5598  0.5593
 5750TIP3    H138741   1.126   1.184   5.310 -3.3354  0.0762 -0.4483
 5750TIP3    H238742   1.118   1.273   5.433 -1.7363 -0.7772  0.3051
 5751TIP3   OH238743   5.839   5.998   5.075  0.0565  0.2114  0.6375
 5751TIP3    H138744   5.822   5.941   5.149 -1.6532 -2.5122 -1.6363
 5751TIP3    H238745   5.770   6.063   5.077 -1.7529 -1.5744 -0.0177
 5752TIP3   OH238746   3.570   2.057  12.939  0.6455  0.2892 -0.0071
 5752TIP3    H138747   3.608   2.076  13.025 -0.1072  0.8979  0.2101
 5752TIP3    H238748   3.610   2.120  12.880  1.3960 -0.3337 -0.1731
 5753TIP3   OH238749   3.146   0.270   4.724 -0.4652 -0.2454  0.0266
 5753TIP3    H138750   3.093   0.198   4.759 -0.4291 -1.5011 -2.2285
 5753TIP3    H238751   3.235   0.235   4.721 -0.2029  0.3995  0.1643
 5754TIP3   OH238752   5.022   0.042   3.856 -0.7712 -0.6706  0.2797
 5754TIP3    H138753   5.044   0.135   3.866  0.8213 -0.8970 -0.7940
 5754TIP3    H238754   4.970   0.037   3.776  0.2396 -0.8332 -0.3879
 5755TIP3   OH238755   4.434   0.031   6.558  0.3519  0.1330  0.0353
 5755TIP3    H138756   4.436  -0.012   6.643 -0.1164 -1.8420 -0.9027
 5755TIP3    H238757   4.342   0.056   6.546  0.2855 -0.1996 -0.1664
 5756TIP3   OH238758   0.496   1.838   1.235  0.4515  0.1267  0.0426
 5756TIP3    H138759   0.586   1.820   1.210 -0.4162 -1.6883 -2.1050
 5756TIP3    H238760   0.453   1.753   1.235 -1.1491  0.8580  1.6691
 5757TIP3   OH238761   4.212   2.840   5.355 -0.3627 -0.1826  0.5211
 5757TIP3    H138762   4.235   2.778   5.425  1.1079  0.7150  0.8792
 5757TIP3    H238763   4.119   2.827   5.341 -0.1908 -2.1735  0.8907
 5758TIP3   OH238764   5.230   5.706   5.110 -0.1584  0.0823  0.3092
 5758TIP3    H138765   5.196   5.664   5.031  2.5011 -0.6864 -0.5330
 5758TIP3    H238766   5.324   5.715   5.094  0.4167  0.2960  3.2291
 5759TIP3   OH238767   1.455   0.029  12.569 -0.0914 -0.0488 -0.3631
 5759TIP3    H138768   1.432   0.021  12.477 -0.0564  1.0805 -0.4820
 5759TIP3    H238769   1.537   0.079  12.569 -0.3656  0.4209  0.2930
 5760TIP3   OH238770   3.329   2.483  14.006 -0.0371  0.7439  0.5192
 5760TIP3    H138771   3.414   2.525  13.995 -0.5879  2.0134  0.8878
 5760TIP3    H238772   3.319   2.428  13.928  1.0748  0.6429  0.4330
 5761TIP3   OH238773   1.782   4.972  11.035 -0.0474  0.4358  0.7198
 5761TIP3    H138774   1.774   4.930  10.949 -1.0228  2.1436 -0.0765
 5761TIP3    H238775   1.867   5.017  11.032 -0.6361  1.5464  0.1239
 5762TIP3   OH238776   5.006   6.263  17.156 -0.1407  0.2626 -0.7559
 5762TIP3    H138777   5.098   6.239  17.171  0.2003  0.6801 -2.0445
 5762TIP3    H238778   4.958   6.182  17.172  0.4600  0.0057 -0.1804
 5763TIP3   OH238779   5.485   0.660  17.577  0.1437 -0.2492  0.3628
 5763TIP3    H138780   5.476   0.755  17.590  1.2994 -0.2604  1.5625
 5763TIP3    H238781   5.403   0.633  17.538  0.3691  1.4858 -1.5079
 5764TIP3   OH238782   5.124   5.398   4.146  1.2066 -0.3727  0.2960
 5764TIP3    H138783   5.051   5.418   4.203  0.1439 -0.0501 -1.1324
 5764TIP3    H238784   5.100   5.315   4.104  2.0988 -0.7574  0.5164
 5765TIP3   OH238785   2.196   1.857  16.791  0.4176  0.2785 -1.0953
 5765TIP3    H138786   2.283   1.858  16.751  0.9555  1.1982  0.0015
 5765TIP3    H238787   2.206   1.913  16.869 -0.7123 -0.9415 -0.0247
 5766TIP3   OH238788   1.469   3.042  12.594  0.5842  0.6497 -0.0402
 5766TIP3    H138789   1.556   3.053  12.632  0.2127  0.3893  0.9367
 5766TIP3    H238790   1.426   3.127  12.604  0.8548  0.8959 -0.8924
 5767TIP3   OH238791   5.242   3.441  14.719  0.1584  0.2313 -0.2015
 5767TIP3    H138792   5.178   3.446  14.648 -2.1710 -1.2257  1.6406
 5767TIP3    H238793   5.281   3.354  14.710  0.9967  0.6228 -0.5349
 5768TIP3   OH238794   5.371   1.552   5.860 -0.5024  0.2475 -0.2616
 5768TIP3    H138795   5.463   1.529   5.846 -0.2549  0.6671  0.5869
 5768TIP3    H238796   5.373   1.619   5.928 -1.4300  0.4122 -0.3772
 5769TIP3   OH238797   0.979   1.519   6.490 -0.2289 -0.1298  0.4962
 5769TIP3    H138798   0.927   1.569   6.426 -0.0967  0.9536  1.2110
 5769TIP3    H238799   0.978   1.573   6.569  0.0636 -1.1953  1.2484
 5770TIP3   OH238800   5.577   6.259   1.668 -0.3244 -0.3518  0.3888
 5770TIP3    H138801   5.511   6.294   1.609  0.7018 -1.0612 -1.2764
 5770TIP3    H238802   5.648   6.323   1.665 -0.3120 -0.3363  0.9561
 5771TIP3   OH238803   4.322   0.743   3.152 -0.2014  0.5654 -0.6821
 5771TIP3    H138804   4.412   0.736   3.120 -0.8072 -0.3056 -2.3467
 5771TIP3    H238805   4.270   0.757   3.073 -1.7991 -1.6848 -0.1407
 5772TIP3   OH238806   3.148   3.670   2.442  0.1809  0.9327 -0.3762
 5772TIP3    H138807   3.152   3.579   2.471 -0.4799  0.5425 -1.4490
 5772TIP3    H238808   3.064   3.702   2.475  0.8252  1.4749  0.8225
 5773TIP3   OH238809   0.882   3.860  15.913 -0.0906 -0.0000 -0.3139
 5773TIP3    H138810   0.825   3.937  15.911  1.0544  0.9077  0.8845
 5773TIP3    H238811   0.827   3.791  15.952 -0.0263  1.1908  2.0170
 5774TIP3   OH238812   4.415   5.421   4.001  0.3348 -0.4348  0.1203
 5774TIP3    H138813   4.487   5.437   4.063  1.4101 -3.0812 -0.2950
 5774TIP3    H238814   4.459   5.412   3.916 -0.3399 -2.6781 -0.0502
 5775TIP3   OH238815   2.991   0.874  15.823  0.2654 -0.1039  0.0358
 5775TIP3    H138816   2.961   0.956  15.783 -0.3598 -0.8456 -1.0338
 5775TIP3    H238817   2.911   0.830  15.851  0.5630 -0.5981  0.1190
 5776TIP3   OH238818   4.110   6.241   2.605 -0.0725  0.2930  0.2950
 5776TIP3    H138819   4.119   6.254   2.510  1.0616 -0.6678  0.2467
 5776TIP3    H238820   4.026   6.196   2.614 -0.5213  1.0134 -0.1752
 5777TIP3   OH238821   0.277   6.506  10.407 -0.1088  0.0767  1.4660
 5777TIP3    H138822   0.206   6.521  10.469 -1.3792 -0.3125  0.1563
 5777TIP3    H238823   0.310   6.419  10.429 -2.2518 -1.1853  0.0627
 5778TIP3   OH238824   5.508   0.524  17.136  0.0231 -0.7228 -0.4640
 5778TIP3    H138825   5.467   0.437  17.138  1.5088 -1.4664 -0.1283
 5778TIP3    H238826   5.435   0.585  17.130 -1.1586 -1.9229  0.7910
 5779TIP3   OH238827   2.076   0.360   6.303 -0.4992 -0.2755  0.0738
 5779TIP3    H138828   2.170   0.375   6.318 -0.4883  0.8394 -0.9478
 5779TIP3    H238829   2.053   0.289   6.363  1.1220 -0.9334 -0.0377
 5780TIP3   OH238830   3.427   0.312  13.755 -0.2490 -0.3897 -0.0364
 5780TIP3    H138831   3.353   0.309  13.816 -0.7036 -3.2357 -0.5756
 5780TIP3    H238832   3.399   0.259  13.681  1.0155  1.4322 -1.9197
 5781TIP3   OH238833   6.578   4.687   2.405 -0.1407 -0.1186  0.1479
 5781TIP3    H138834   6.554   4.734   2.485 -0.2836  1.6053 -0.8789
 5781TIP3    H238835   6.562   4.749   2.334  3.2001 -0.3556 -0.9891
 5782TIP3   OH238836   5.279   2.198   4.478 -0.1993  0.2740 -0.1238
 5782TIP3    H138837   5.292   2.270   4.415 -0.7892  0.6465  0.1677
 5782TIP3    H238838   5.201   2.152   4.445 -0.2049  0.1594  0.0519
 5783TIP3   OH238839   3.608   5.420  16.594 -0.2909 -0.6635  0.5288
 5783TIP3    H138840   3.585   5.425  16.687 -1.5837 -3.2838  0.4461
 5783TIP3    H238841   3.525   5.434  16.548  0.6776  3.0626 -0.4848
 5784TIP3   OH238842   0.621   2.769   4.106  0.2647 -0.3580 -0.3448
 5784TIP3    H138843   0.539   2.818   4.119  0.6043  0.2340 -0.3948
 5784TIP3    H238844   0.652   2.751   4.195  1.4898  1.8380 -0.2620
 5785TIP3   OH238845   0.521   1.706   3.972  0.0397  0.0333  0.5804
 5785TIP3    H138846   0.517   1.658   4.054  0.7454 -1.4228 -0.1939
 5785TIP3    H238847   0.611   1.693   3.941 -0.2104  0.5568 -0.4187
 5786TIP3   OH238848   4.096   1.161  14.229  0.3209  0.6248  0.2035
 5786TIP3    H138849   4.129   1.147  14.140 -1.8832  0.0399 -0.5604
 5786TIP3    H238850   4.166   1.212  14.271  1.7521  0.2862 -1.5997
 5787TIP3   OH238851   3.901   4.607  16.755  0.2100  0.0512 -0.0533
 5787TIP3    H138852   3.853   4.659  16.819 -1.5185 -1.0316 -0.4147
 5787TIP3    H238853   3.945   4.672  16.699  0.8268  1.0240  1.4878
 5788TIP3   OH238854   1.801   1.580   0.953 -0.0333 -0.1740 -0.3151
 5788TIP3    H138855   1.713   1.609   0.975  0.1018 -0.2095  0.2710
 5788TIP3    H238856   1.805   1.489   0.983 -0.8013 -1.2184 -3.0341
 5789TIP3   OH238857   2.140   4.267  12.718 -0.9895 -0.0165  0.2172
 5789TIP3    H138858   2.061   4.298  12.763 -0.0498  0.2297  1.7812
 5789TIP3    H238859   2.213   4.303  12.769  0.2614  2.7712 -3.1771
 5790TIP3   OH238860   1.464   4.229   6.922 -0.4529  0.4354  0.0856
 5790TIP3    H138861   1.500   4.190   6.842 -0.7395  0.2593  0.0381
 5790TIP3    H238862   1.391   4.171   6.945  0.6825 -0.5249  1.4412
 5791TIP3   OH238863   4.987   6.575   5.629 -0.4225 -0.4536  0.7744
 5791TIP3    H138864   4.938   6.626   5.694  0.1024 -0.4333  1.1637
 5791TIP3    H238865   4.997   6.635   5.555  0.1525  0.0000  1.2117
 5792TIP3   OH238866   6.268   5.792  11.837 -0.2397  0.0208 -0.1577
 5792TIP3    H138867   6.212   5.719  11.811 -1.2397  0.3377  1.0360
 5792TIP3    H238868   6.223   5.869  11.803  0.7892  0.1244 -1.3703
 5793TIP3   OH238869   3.903   2.573   3.195 -0.6753 -0.2012 -0.0888
 5793TIP3    H138870   3.816   2.596   3.230 -0.8569 -0.2832 -0.4829
 5793TIP3    H238871   3.904   2.477   3.196 -0.6247 -0.2012 -0.1739
 5794TIP3   OH238872   6.705   0.047   3.108  0.4524 -0.3028 -0.1191
 5794TIP3    H138873   6.772   0.043   3.040 -0.3597 -1.5172 -0.8711
 5794TIP3    H238874   6.755   0.047   3.191  1.3710 -2.9310 -0.5926
 5795TIP3   OH238875   0.190   0.206   5.473 -0.0117 -0.4811 -0.1564
 5795TIP3    H138876   0.180   0.198   5.568  0.5597  1.5904  0.1374
 5795TIP3    H238877   0.116   0.260   5.446  1.2420  1.1567 -0.4508
 5796TIP3   OH238878   3.439   4.898  15.431 -0.4497  0.3485  0.3908
 5796TIP3    H138879   3.482   4.860  15.507 -1.5361 -0.7775  0.4708
 5796TIP3    H238880   3.472   4.849  15.356 -1.0304 -0.0431  0.3807
 5797TIP3   OH238881   2.917   3.032   6.119  0.4405  0.5614 -0.6520
 5797TIP3    H138882   2.972   3.008   6.193 -2.6621 -1.6869  1.1802
 5797TIP3    H238883   2.892   2.948   6.080 -1.2730  1.4895 -1.6698
 5798TIP3   OH238884   2.737   4.655  14.035  0.4630 -0.5718  0.0959
 5798TIP3    H138885   2.657   4.685  13.992 -0.5830 -0.4207  2.0427
 5798TIP3    H238886   2.796   4.731  14.031 -0.6338  0.3811  1.3090
 5799TIP3   OH238887   2.409   0.575   3.655  0.0928  0.3383 -0.1176
 5799TIP3    H138888   2.431   0.600   3.744 -1.1868 -0.1313  0.3560
 5799TIP3    H238889   2.391   0.658   3.610  1.4094  0.6300 -0.1620
 5800TIP3   OH238890   3.363   1.613  16.226 -0.4026  0.0921  0.1560
 5800TIP3    H138891   3.312   1.535  16.206 -0.1307  0.1960 -1.0368
 5800TIP3    H238892   3.393   1.644  16.140  3.5673 -1.2535  0.8236
 5801TIP3   OH238893   3.406   0.493   3.939  0.7773  0.0625  0.6111
 5801TIP3    H138894   3.346   0.567   3.943 -1.7258 -1.8700  1.8226
 5801TIP3    H238895   3.445   0.489   4.026 -1.6385 -1.8757  1.7140
 5802TIP3   OH238896   2.960   3.083  14.389 -0.1672 -0.4963  0.3578
 5802TIP3    H138897   3.051   3.099  14.413 -0.3077 -0.6232  0.9735
 5802TIP3    H238898   2.927   3.024  14.457 -0.0878 -2.2298 -1.0188
 5803TIP3   OH238899   0.926   4.527   2.497  0.6509 -0.1098 -0.5017
 5803TIP3    H138900   0.871   4.451   2.518  0.1772  0.2043 -0.5873
 5803TIP3    H238901   0.926   4.579   2.577  1.4639 -0.4904 -0.2480
 5804TIP3   OH238902   5.822   4.878   1.941 -0.4803  0.2983 -0.1648
 5804TIP3    H138903   5.728   4.876   1.955 -0.4571  1.0879  0.2209
 5804TIP3    H238904   5.838   4.961   1.896  0.1147  0.6014  0.5745
 5805TIP3   OH238905   0.328   0.489  12.299 -0.2598  0.0927 -0.0188
 5805TIP3    H138906   0.255   0.549  12.318  0.5414  1.1559 -0.2636
 5805TIP3    H238907   0.333   0.486  12.204  1.1374  1.4432 -0.0216
 5806TIP3   OH238908   2.206   4.476  17.152 -0.6456  0.1990  0.3506
 5806TIP3    H138909   2.209   4.438  17.065 -0.6454  1.2693 -0.1387
 5806TIP3    H238910   2.127   4.530  17.152 -1.3376 -0.7590  1.4463
 5807TIP3   OH238911   3.989   6.122   1.048 -0.2282  0.2265  0.1319
 5807TIP3    H138912   3.942   6.136   1.131 -0.4153  1.0069 -0.1043
 5807TIP3    H238913   3.998   6.027   1.042  1.2185  0.1885  1.8456
 5808TIP3   OH238914   5.802   3.850  17.499 -0.0958 -0.3999 -0.1820
 5808TIP3    H138915   5.789   3.845  17.594  0.3449 -1.1364 -0.1553
 5808TIP3    H238916   5.755   3.774  17.465 -1.7281  0.7905 -0.7365
 5809TIP3   OH238917   6.257   6.146   6.061 -0.5539  0.7304 -0.7090
 5809TIP3    H138918   6.166   6.150   6.030 -0.8244  3.9438  0.1405
 5809TIP3    H238919   6.309   6.170   5.984 -0.3464 -1.3738 -1.2677
 5810TIP3   OH238920   3.595   0.680  17.413  0.0318 -0.2886 -0.3049
 5810TIP3    H138921   3.687   0.667  17.433  0.0987  0.6431  0.0513
 5810TIP3    H238922   3.571   0.605  17.359  0.9827 -0.5550 -0.3702
 5811TIP3   OH238923   4.235   1.466  15.420  0.2578 -0.0254  0.1527
 5811TIP3    H138924   4.227   1.396  15.356  1.7764 -0.1236  0.0379
 5811TIP3    H238925   4.168   1.446  15.486 -0.5515 -0.5475 -0.8048
 5812TIP3   OH238926   6.191   0.993   6.651 -0.0896 -0.5939  0.4149
 5812TIP3    H138927   6.177   0.935   6.726  0.5586 -2.1728 -0.6375
 5812TIP3    H238928   6.199   0.934   6.576 -0.0519  0.9070 -0.8107
 5813TIP3   OH238929   5.100   5.382   0.718 -0.0046  0.3879 -0.3355
 5813TIP3    H138930   5.147   5.396   0.800 -0.5396 -1.0004  0.2384
 5813TIP3    H238931   5.169   5.373   0.652  0.4150  2.4052 -0.2472
 5814TIP3   OH238932   5.808   4.452   1.969 -0.2136  0.4909  0.0548
 5814TIP3    H138933   5.773   4.368   1.996 -1.1960  1.4393  1.9053
 5814TIP3    H238934   5.740   4.516   1.990  0.8515  1.8655 -0.4340
 5815TIP3   OH238935   0.541   0.376   1.354  0.0462  0.1726  0.2356
 5815TIP3    H138936   0.593   0.296   1.352  0.0489  0.1627  0.5870
 5815TIP3    H238937   0.598   0.443   1.317  0.1251  0.0575  0.1485
 5816TIP3   OH238938   1.571   4.028   5.720 -0.0121  0.2728  0.3615
 5816TIP3    H138939   1.562   4.119   5.691 -0.3411  0.9699  2.4674
 5816TIP3    H238940   1.488   3.987   5.697 -0.8731  1.2188  1.6040
 5817TIP3   OH238941   6.418   4.023   4.283  0.5703  1.1327  0.6162
 5817TIP3    H138942   6.453   4.017   4.194 -0.0481 -1.7584  0.4665
 5817TIP3    H238943   6.460   4.100   4.320  2.9312  0.8891 -1.2982
 5818TIP3   OH238944   1.974   1.914  17.237  0.1933  0.1468 -0.0466
 5818TIP3    H138945   1.952   1.979  17.170  0.5733  0.3856  0.0579
 5818TIP3    H238946   2.053   1.872  17.204  1.4400  1.4911  1.0809
 5819TIP3   OH238947   5.931   2.725   5.704  0.4412  0.2375 -0.2966
 5819TIP3    H138948   5.878   2.646   5.708 -1.3235  1.3718 -0.3239
 5819TIP3    H238949   5.954   2.735   5.612 -1.1790  0.8883 -0.6576
 5820TIP3   OH238950   5.899   2.681   5.425 -0.2253 -0.2379 -0.0241
 5820TIP3    H138951   5.873   2.644   5.341  0.4215 -1.9656  0.4807
 5820TIP3    H238952   5.817   2.692   5.473 -0.3849 -2.4339  0.3123
 5821TIP3   OH238953   1.634   5.615   0.443  0.0306 -0.1929  0.1139
 5821TIP3    H138954   1.570   5.681   0.415  0.2633 -0.4039 -0.9650
 5821TIP3    H238955   1.649   5.562   0.365  0.0725 -1.3568  0.8907
 5822TIP3   OH238956   5.699   5.887  10.893  0.2084 -0.2574  0.3735
 5822TIP3    H138957   5.683   5.929  10.809  1.7150  3.7968  1.8442
 5822TIP3    H238958   5.619   5.900  10.943 -0.4703 -2.1349 -0.1468
 5823TIP3   OH238959   1.586   3.938  12.718 -0.0389 -0.0214 -0.4451
 5823TIP3    H138960   1.509   3.965  12.669 -0.0109 -1.2115 -1.1668
 5823TIP3    H238961   1.594   3.844  12.702  1.6509  0.0965 -0.5184
 5824TIP3   OH238962   0.034   4.824   0.020 -0.4811  0.5223 -0.4458
 5824TIP3    H138963  -0.029   4.801   0.088 -0.8643 -0.2824 -1.0562
 5824TIP3    H238964   0.116   4.784   0.048 -0.1986  1.6321  0.3880
 5825TIP3   OH238965   3.653   0.539  13.633 -0.2521 -0.0675  0.3833
 5825TIP3    H138966   3.696   0.454  13.623  1.2029  0.2558  2.9198
 5825TIP3    H238967   3.720   0.603  13.607 -0.8936  0.3447 -0.2786
 5826TIP3   OH238968   3.936   2.316   1.361  0.4204  0.5438  1.0601
 5826TIP3    H138969   3.870   2.280   1.421 -1.1479  2.2157  0.4368
 5826TIP3    H238970   3.957   2.402   1.397  1.5378  0.4470  0.6817
 5827TIP3   OH238971   2.865   0.815   2.306  0.1727  0.5118 -0.1435
 5827TIP3    H138972   2.958   0.794   2.302  0.8421  3.2781 -1.4527
 5827TIP3    H238973   2.855   0.867   2.386 -0.1307  0.6443 -0.2643
 5828TIP3   OH238974   1.190   3.268   2.461 -0.8609 -0.2544 -0.1617
 5828TIP3    H138975   1.134   3.190   2.454 -1.7396  0.4390 -1.2237
 5828TIP3    H238976   1.252   3.259   2.389  0.1190 -0.7800  0.7243
 5829TIP3   OH238977   1.090   0.922  16.679  0.2850  0.1208  0.2267
 5829TIP3    H138978   1.050   0.987  16.621  0.2625 -0.3155 -0.2605
 5829TIP3    H238979   1.087   0.840  16.628  0.9560 -0.1082  0.5507
 5830TIP3   OH238980   6.627   6.559  17.325 -0.1105 -0.2450 -0.1251
 5830TIP3    H138981   6.705   6.612  17.305 -0.8527  1.6226  1.6011
 5830TIP3    H238982   6.568   6.620  17.369 -1.2966 -2.3849  1.3955
 5831TIP3   OH238983   5.478   2.725  12.634  0.5265  0.8829 -0.2961
 5831TIP3    H138984   5.441   2.688  12.554 -1.2834  1.0423  0.4257
 5831TIP3    H238985   5.403   2.759  12.682  1.0911 -2.0493  3.0241
 5832TIP3   OH238986   1.761   5.662   1.440  0.4696  0.3510  0.1693
 5832TIP3    H138987   1.742   5.609   1.362 -1.0993 -0.8222  1.2738
 5832TIP3    H238988   1.840   5.711   1.417  0.4472 -0.4694 -1.8966
 5833TIP3   OH238989   0.171   3.234   4.829  0.5853  0.0761  1.0518
 5833TIP3    H138990   0.197   3.318   4.789 -1.2652 -0.8137 -2.3641
 5833TIP3    H238991   0.249   3.179   4.821  0.5671  0.2294 -0.6656
 5834TIP3   OH238992   2.440   2.879   5.057 -0.3803 -0.0195 -0.1226
 5834TIP3    H138993   2.500   2.878   5.132 -0.9728  2.2816  0.4815
 5834TIP3    H238994   2.387   2.800   5.066  0.5200 -0.5038  1.0798
 5835TIP3   OH238995   2.208   4.888   2.720  0.0907  0.4751  0.3729
 5835TIP3    H138996   2.170   4.811   2.763  1.6860 -0.6375 -0.0782
 5835TIP3    H238997   2.184   4.878   2.628  0.8399  0.1409  0.2047
 5836TIP3   OH238998   0.869   3.863  14.177  0.3917  0.3220  0.3708
 5836TIP3    H138999   0.914   3.926  14.120 -0.3167  2.6555  2.2000
 5836TIP3    H239000   0.939   3.823  14.228  0.7916  0.3122 -0.1768
 5837TIP3   OH239001   6.644   1.552   1.687 -0.4018  0.5332 -0.1201
 5837TIP3    H139002   6.677   1.486   1.748  0.4490  0.6222 -0.4724
 5837TIP3    H239003   6.592   1.611   1.741 -0.5624 -0.0118  0.3242
 5838TIP3   OH239004   4.510   0.188   5.334  0.4777 -0.0428 -0.2879
 5838TIP3    H139005   4.471   0.129   5.399 -1.6268  0.4162 -1.0489
 5838TIP3    H239006   4.599   0.156   5.323  0.0502 -1.7679  0.8723
 5839TIP3   OH239007   3.761   2.432  11.787  0.1074 -0.0405 -0.4951
 5839TIP3    H139008   3.786   2.525  11.788  2.5990 -0.6394 -0.5534
 5839TIP3    H239009   3.703   2.424  11.712 -0.6692  1.5568 -0.1312
 5840TIP3   OH239010   2.338   5.606  13.623  0.2591 -0.0449 -0.1749
 5840TIP3    H139011   2.295   5.633  13.704 -0.1849  0.5808 -0.6057
 5840TIP3    H239012   2.312   5.672  13.559 -1.0223 -1.5941 -1.3371
 5841TIP3   OH239013   4.060   5.141  16.798  0.2981 -0.0087 -0.0052
 5841TIP3    H139014   4.129   5.161  16.735  1.2492 -0.1085  0.9769
 5841TIP3    H239015   4.001   5.082  16.751  0.6050  0.4779 -1.0241
 5842TIP3   OH239016   6.181   3.800   0.347 -0.7030 -0.5644  0.0695
 5842TIP3    H139017   6.174   3.741   0.272 -0.7461  1.0230 -1.2069
 5842TIP3    H239018   6.090   3.819   0.370 -0.7028 -1.5173  0.9449
 5843TIP3   OH239019   1.941   5.968  12.782  0.1204  0.4131  0.7473
 5843TIP3    H139020   1.986   5.891  12.817 -1.1339  0.4154  2.4677
 5843TIP3    H239021   1.851   5.939  12.769 -0.0324  1.1843 -0.0192
 5844TIP3   OH239022   3.234   4.320   3.224 -0.0034  0.0142  0.1630
 5844TIP3    H139023   3.224   4.369   3.142 -0.6814  1.9137  1.3305
 5844TIP3    H239024   3.299   4.252   3.203  0.3786  0.8982 -1.7392
 5845TIP3   OH239025   0.339   1.517   6.606 -0.4804  0.1664 -0.0766
 5845TIP3    H139026   0.400   1.459   6.652  1.1891  2.5052  0.7832
 5845TIP3    H239027   0.378   1.529   6.520 -0.5397  0.4634 -0.0601
 5846TIP3   OH239028   1.398   4.463  15.999  0.4379  0.7694  0.3671
 5846TIP3    H139029   1.437   4.439  16.083 -1.0908 -1.3267  0.5748
 5846TIP3    H239030   1.324   4.403  15.990  0.7514  0.6974 -2.6482
 5847TIP3   OH239031   0.256   5.400  14.694  0.0410  0.3378  0.4538
 5847TIP3    H139032   0.235   5.478  14.744  2.2578  1.7727 -0.6900
 5847TIP3    H239033   0.242   5.425  14.603 -0.7608 -1.1641  0.1187
 5848TIP3   OH239034   2.952   2.978  14.146  0.0773  0.0101  0.0704
 5848TIP3    H139035   2.945   3.027  14.228 -1.1411  1.1899 -0.6991
 5848TIP3    H239036   2.864   2.944  14.130 -0.3472  1.7775 -1.8796
 5849TIP3   OH239037   2.057   4.538   5.594 -0.2667 -0.1586  0.3525
 5849TIP3    H139038   1.987   4.602   5.588  1.1649  1.4706  0.3881
 5849TIP3    H239039   2.117   4.560   5.523  1.3088 -0.1151  1.6423
 5850TIP3   OH239040   2.311   3.763  14.538  0.3688  0.3211  0.4580
 5850TIP3    H139041   2.375   3.699  14.506 -1.0671 -0.8696 -0.1145
 5850TIP3    H239042   2.295   3.820  14.463  0.8729  0.7490  0.6631
 5851TIP3   OH239043   2.120   3.280  13.247 -0.0256 -0.6010  0.5632
 5851TIP3    H139044   2.033   3.305  13.280 -0.2465 -0.6970  0.0561
 5851TIP3    H239045   2.127   3.324  13.163 -1.0068 -3.3454 -1.0713
 5852TIP3   OH239046   2.918   0.179  14.254 -0.7684 -0.1429 -0.0135
 5852TIP3    H139047   2.929   0.087  14.231 -1.7444 -0.4804  0.7977
 5852TIP3    H239048   2.861   0.178  14.331  1.8072  0.9403  2.0592
 5853TIP3   OH239049   5.430   1.521   2.424  0.1279 -0.4335 -0.2135
 5853TIP3    H139050   5.455   1.437   2.463  2.0199  0.1211 -0.1006
 5853TIP3    H239051   5.342   1.537   2.456  0.4944 -1.4163  1.4382
 5854TIP3   OH239052   1.538   6.308   1.217  0.0674 -0.1173 -0.3075
 5854TIP3    H139053   1.553   6.254   1.294 -1.2558  0.5896  0.4699
 5854TIP3    H239054   1.564   6.397   1.244 -2.2188  0.5035  0.0028
 5855TIP3   OH239055   6.707   4.459   2.303 -0.0397 -0.0704  0.3826
 5855TIP3    H139056   6.639   4.391   2.294  0.6254 -0.5860 -1.1580
 5855TIP3    H239057   6.658   4.541   2.313 -0.8632 -0.6459  1.2581
 5856TIP3   OH239058   1.465   6.329   6.651  0.1895 -0.4770 -0.3206
 5856TIP3    H139059   1.500   6.380   6.578 -1.6684  0.6048 -0.5258
 5856TIP3    H239060   1.436   6.247   6.610  1.0815 -0.7594 -0.4027
 5857TIP3   OH239061   4.401   4.413   1.213  0.0710 -0.1453 -0.3066
 5857TIP3    H139062   4.418   4.363   1.293 -0.7427 -0.5247 -0.3534
 5857TIP3    H239063   4.400   4.504   1.241  1.6298 -0.1369 -0.2293
 5858TIP3   OH239064   3.837   1.757   4.925 -0.1835 -0.1284 -0.6699
 5858TIP3    H139065   3.857   1.816   4.998  1.0711  0.3277 -1.3582
 5858TIP3    H239066   3.769   1.698   4.960 -2.7282  2.6938 -0.4276
 5859TIP3   OH239067   2.623   6.203   6.126 -0.4861 -0.4110  0.2820
 5859TIP3    H139068   2.549   6.238   6.077 -1.2563  0.3741  1.9410
 5859TIP3    H239069   2.584   6.148   6.194  0.3655  0.5284  1.5950
 5860TIP3   OH239070   0.439   3.540  16.161 -0.3579 -0.6772  0.1024
 5860TIP3    H139071   0.477   3.452  16.156  1.0936 -0.0145 -1.6390
 5860TIP3    H239072   0.465   3.582  16.079  1.9282  2.5309  2.2264
 5861TIP3   OH239073   1.710   1.350   1.974  0.0267 -0.0492  0.1144
 5861TIP3    H139074   1.618   1.376   1.970 -0.6446 -2.2336 -0.3672
 5861TIP3    H239075   1.713   1.285   2.045  0.9478 -0.7860 -0.5629
 5862TIP3   OH239076   5.280   4.646  11.612 -0.0386  0.4515 -0.0494
 5862TIP3    H139077   5.274   4.688  11.698  2.0697  0.4119  0.1662
 5862TIP3    H239078   5.247   4.557  11.626  0.6238  0.3277  0.8205
 5863TIP3   OH239079   0.563   3.052   6.122  0.2888  0.2100 -0.2749
 5863TIP3    H139080   0.625   2.996   6.167  2.0668  0.2840 -2.4740
 5863TIP3    H239081   0.553   3.128   6.179 -0.4906 -1.3257  1.7191
 5864TIP3   OH239082   1.368   0.823   5.148  0.1529  0.4297  0.0040
 5864TIP3    H139083   1.451   0.820   5.196  0.1296 -1.5945  0.0061
 5864TIP3    H239084   1.393   0.841   5.057  0.4993  0.7945  0.1698
 5865TIP3   OH239085   3.577   3.078   2.579 -0.0009  0.6446 -0.5318
 5865TIP3    H139086   3.590   3.069   2.673 -0.9827  2.2733 -0.1984
 5865TIP3    H239087   3.654   3.037   2.540  1.1228  1.1733  1.0343
 5866TIP3   OH239088   3.740   4.150   5.605 -0.3250 -0.3795  0.0183
 5866TIP3    H139089   3.692   4.116   5.529  0.5223 -0.7173 -0.3831
 5866TIP3    H239090   3.712   4.095   5.678  0.3948 -1.4239 -0.4618
 5867TIP3   OH239091   3.032   2.474   2.484  0.2280 -0.0062  0.4012
 5867TIP3    H139092   3.063   2.551   2.438 -1.6755 -0.2808 -1.4568
 5867TIP3    H239093   3.086   2.402   2.450  0.9244  0.2349  0.9628
 5868TIP3   OH239094   1.387   1.413  14.097  0.3199  0.3755 -0.2994
 5868TIP3    H139095   1.432   1.357  14.160 -0.5510  0.5542  0.5029
 5868TIP3    H239096   1.407   1.375  14.012  0.2935 -0.7507  0.1853
 5869TIP3   OH239097   5.914   3.713  11.387 -0.5432  0.8215  0.7095
 5869TIP3    H139098   5.948   3.719  11.477  0.6987 -2.2213  0.5770
 5869TIP3    H239099   5.990   3.731  11.331 -0.8517  0.8782  0.3053
 5870TIP3   OH239100   0.504   4.580  13.210 -0.2390 -0.7867  0.2859
 5870TIP3    H139101   0.509   4.526  13.131 -0.8553  0.5377 -0.6979
 5870TIP3    H239102   0.490   4.517  13.281  0.1332 -1.9927 -0.6674
 5871TIP3   OH239103   3.902   4.339   5.462 -0.1966  0.1664  0.3356
 5871TIP3    H139104   3.982   4.290   5.442 -1.0621 -1.3194  0.3224
 5871TIP3    H239105   3.841   4.273   5.495 -0.4678  1.7178  3.2850
 5872TIP3   OH239106   4.459   0.301   4.241  0.1591  0.5215  0.1652
 5872TIP3    H139107   4.385   0.248   4.211  0.7248 -0.7562  0.9115
 5872TIP3    H239108   4.426   0.345   4.320 -0.6523  2.1808 -1.0596
 5873TIP3   OH239109   3.511   1.764  16.736  0.4298  0.1129 -0.3980
 5873TIP3    H139110   3.580   1.702  16.760  0.5884  0.8747  1.3034
 5873TIP3    H239111   3.542   1.848  16.769 -0.7241  0.7077 -0.7672
 5874TIP3   OH239112   3.146   1.838   1.237  0.3051 -0.2265  0.4415
 5874TIP3    H139113   3.058   1.849   1.200  0.1562 -1.7287  0.3233
 5874TIP3    H239114   3.203   1.889   1.179 -0.5642  1.4943  1.0146
 5875TIP3   OH239115   2.239   1.485  13.238 -0.0937  0.7118 -0.2856
 5875TIP3    H139116   2.238   1.507  13.331  0.0391  1.7562 -0.5137
 5875TIP3    H239117   2.176   1.546  13.198  1.4233  1.7939 -1.1686
 5876TIP3   OH239118   1.831   4.250   3.294 -0.2276  0.5840  0.7514
 5876TIP3    H139119   1.794   4.204   3.369  1.2854  0.9066  1.7273
 5876TIP3    H239120   1.866   4.180   3.238 -1.0243  0.3678  0.5128
 5877TIP3   OH239121   0.171   1.847  12.213 -0.1928  0.0176  0.6136
 5877TIP3    H139122   0.262   1.855  12.241  0.7231 -1.2054 -1.7083
 5877TIP3    H239123   0.145   1.936  12.191  0.7628  0.2700  0.4397
 5878TIP3   OH239124   3.380   1.901  11.949 -0.1469 -0.1868  0.0717
 5878TIP3    H139125   3.296   1.920  11.991  0.0078  0.5716  0.0589
 5878TIP3    H239126   3.362   1.828  11.890 -0.7022 -0.2936  0.3666
 5879TIP3   OH239127   5.330   0.002  15.474  0.1859 -0.3267  1.0165
 5879TIP3    H139128   5.293   0.017  15.387 -0.0247 -0.6233  1.0523
 5879TIP3    H239129   5.262  -0.048  15.520  1.2501 -2.2381  0.5918
 5880TIP3   OH239130   2.780   2.953  13.032  0.2838  0.4825 -0.0035
 5880TIP3    H139131   2.822   2.988  13.110  0.5422  2.4141 -0.9605
 5880TIP3    H239132   2.842   2.888  12.998  0.9070  0.8248  0.4795
 5881TIP3   OH239133   3.775   1.599   0.299  0.2624  0.1543 -0.5832
 5881TIP3    H139134   3.723   1.672   0.333 -0.0759 -0.3940  0.0933
 5881TIP3    H239135   3.852   1.641   0.260 -0.7490  0.9751 -1.7507
 5882TIP3   OH239136   4.945   0.880  12.377 -0.3777 -0.5145  0.2140
 5882TIP3    H139137   4.949   0.785  12.367 -1.0731 -0.4163 -1.1835
 5882TIP3    H239138   5.018   0.913  12.325 -0.4044 -0.2532  0.3397
 5883TIP3   OH239139   0.741   2.803   5.081  0.1064  0.2906 -0.0941
 5883TIP3    H139140   0.817   2.754   5.051  0.4275  1.6809 -1.6623
 5883TIP3    H239141   0.696   2.742   5.140  1.2693 -1.3323 -0.7885
 5884TIP3   OH239142   1.864   3.198   6.071 -0.2505 -0.3166 -0.9976
 5884TIP3    H139143   1.789   3.251   6.097  1.6681  1.4432  1.4683
 5884TIP3    H239144   1.834   3.107   6.080 -2.0941  0.3347 -0.2181
 5885TIP3   OH239145   1.029   1.851   5.075 -0.3893  0.0572  0.4604
 5885TIP3    H139146   1.057   1.883   5.161 -0.2447 -0.7751  0.7259
 5885TIP3    H239147   0.934   1.860   5.077 -0.2437  3.3242 -0.6116
 5886TIP3   OH239148   1.981   5.204   5.921  0.4991  0.0546  0.3413
 5886TIP3    H139149   2.018   5.222   5.835  0.9838  0.8332  0.7053
 5886TIP3    H239150   2.056   5.184   5.976  0.1624 -0.7996  0.5145
 5887TIP3   OH239151   3.627   4.706  14.659 -0.5448 -0.4703  0.3314
 5887TIP3    H139152   3.626   4.796  14.628 -0.3703 -1.5195 -3.1188
 5887TIP3    H239153   3.540   4.692  14.697 -0.7567  0.9601  0.4082
 5888TIP3   OH239154   2.305   0.964  13.767 -0.2409 -0.4696  0.0525
 5888TIP3    H139155   2.380   0.987  13.712  0.0959 -0.5578  0.4763
 5888TIP3    H239156   2.324   1.004  13.851  0.3197 -2.2108  0.7961
 5889TIP3   OH239157   2.714   0.334  15.849 -0.3950 -0.2766 -0.4416
 5889TIP3    H139158   2.677   0.248  15.826 -0.1181 -0.2798 -0.8847
 5889TIP3    H239159   2.648   0.373  15.906 -0.5270 -0.7844 -0.2344
 5890TIP3   OH239160   4.016   5.630   3.277  0.2886 -0.0998 -0.3394
 5890TIP3    H139161   4.092   5.572   3.272  2.0922  2.1547 -0.6240
 5890TIP3    H239162   3.967   5.612   3.196 -0.5276 -2.8262  0.6688
 5891TIP3   OH239163   2.957   6.562  11.156  0.0001 -0.1650  0.7521
 5891TIP3    H139164   2.891   6.494  11.170 -0.7650  0.8310  2.2679
 5891TIP3    H239165   2.921   6.640  11.198  1.1099  1.0491 -0.4432
 5892TIP3   OH239166   0.476   2.555   0.822  0.1356 -0.1686  0.3419
 5892TIP3    H139167   0.384   2.547   0.797  0.1341  0.2703  0.1918
 5892TIP3    H239168   0.486   2.495   0.895 -0.1190 -0.6849 -0.0436
 5893TIP3   OH239169   3.490   2.686   0.835 -0.0501 -0.1115  0.1197
 5893TIP3    H139170   3.471   2.595   0.855  5.3068 -1.6763 -0.4002
 5893TIP3    H239171   3.511   2.725   0.920  1.1733 -0.4853  0.0132
 5894TIP3   OH239172   1.627   2.605  16.123 -0.3210 -0.5183  0.5537
 5894TIP3    H139173   1.630   2.565  16.210  0.9987  0.6231  1.0609
 5894TIP3    H239174   1.705   2.572  16.079 -0.3194 -0.1125  0.2467
 5895TIP3   OH239175   0.831   4.645   0.970  0.4367  0.2459  0.3899
 5895TIP3    H139176   0.824   4.613   1.060  0.1507  0.7813  0.5632
 5895TIP3    H239177   0.896   4.715   0.975 -0.0839  0.7417  0.3128
 5896TIP3   OH239178   5.804   3.941   5.061  0.7887 -0.1638  0.0896
 5896TIP3    H139179   5.751   3.919   4.985  1.4253  0.8039 -0.6478
 5896TIP3    H239180   5.861   4.012   5.032  1.8012 -0.5072  1.1522
 5897TIP3   OH239181   4.622   1.376   5.246  0.4359 -0.0930 -0.3774
 5897TIP3    H139182   4.689   1.442   5.264 -0.2882  0.5728 -0.0950
 5897TIP3    H239183   4.645   1.303   5.304  1.3648 -0.1854 -0.8447
 5898TIP3   OH239184   1.771   2.470   4.942  0.1348 -0.6909  0.8783
 5898TIP3    H139185   1.814   2.548   4.908 -1.2715 -0.0021  0.5861
 5898TIP3    H239186   1.779   2.477   5.037  1.9672 -1.3776  0.8081
 5899TIP3   OH239187   5.565   3.692   4.526 -0.1970 -0.1370  0.8384
 5899TIP3    H139188   5.660   3.707   4.519 -0.2640  1.0391  2.0370
 5899TIP3    H239189   5.554   3.650   4.611 -0.7782 -0.0861  0.7913
 5900TIP3   OH239190   2.231   4.513   1.282 -0.3891 -0.1032 -0.3457
 5900TIP3    H139191   2.157   4.567   1.253  0.4289 -0.3086 -3.1335
 5900TIP3    H239192   2.305   4.546   1.231  0.7517 -1.9405  0.0525
 5901TIP3   OH239193   6.141   6.225  11.656 -0.7099  0.2346  0.4739
 5901TIP3    H139194   6.211   6.186  11.603 -1.9047 -0.3732 -0.7382
 5901TIP3    H239195   6.171   6.217  11.746  0.5480 -0.4884  0.0110
 5902TIP3   OH239196   4.557   0.159   3.976 -1.1582  0.2447 -0.3791
 5902TIP3    H139197   4.517   0.189   3.895 -1.9090 -0.0441 -0.1214
 5902TIP3    H239198   4.555   0.236   4.034 -0.8140  0.3909 -0.5582
 5903TIP3   OH239199   3.348   4.302   5.263  0.0741  0.0915 -0.1921
 5903TIP3    H139200   3.255   4.281   5.264 -0.1247  0.0914  4.2533
 5903TIP3    H239201   3.354   4.386   5.219 -2.0327  0.0804 -0.5939
 5904TIP3   OH239202   4.421   2.361   0.098 -0.0441 -0.9269 -0.0887
 5904TIP3    H139203   4.505   2.352   0.053 -0.0065  0.5687 -0.3699
 5904TIP3    H239204   4.440   2.334   0.188  0.1704 -2.7723 -0.6592
 5905TIP3   OH239205   1.653   5.261   2.372 -0.5417  0.0982  0.2642
 5905TIP3    H139206   1.687   5.335   2.422 -1.8651  2.2235 -1.7598
 5905TIP3    H239207   1.731   5.216   2.339  0.3061  1.3218  0.5507
 5906TIP3   OH239208   1.221   5.950  15.203  0.7378 -0.2625 -0.0736
 5906TIP3    H139209   1.163   5.995  15.141  1.8042  0.0257 -0.9051
 5906TIP3    H239210   1.206   5.994  15.286 -0.1069 -0.0814 -0.3131
 5907TIP3   OH239211   3.968   4.331  13.422 -0.0391  0.2156 -0.1393
 5907TIP3    H139212   3.982   4.314  13.516  0.3939 -0.0990 -0.2575
 5907TIP3    H239213   3.898   4.271  13.397  1.4680 -1.4549 -0.5468
 5908TIP3   OH239214   4.404   5.836  16.216  0.2433 -0.1722 -0.4926
 5908TIP3    H139215   4.373   5.749  16.191 -1.1102 -0.0018  0.4488
 5908TIP3    H239216   4.383   5.892  16.141 -1.6362 -0.1080  0.0323
 5909TIP3   OH239217   4.366   6.585  16.137  0.0083 -0.3446  0.5422
 5909TIP3    H139218   4.442   6.568  16.081 -0.1192 -2.2663  0.8972
 5909TIP3    H239219   4.364   6.680  16.146  1.7569 -0.1864 -0.3177
 5910TIP3   OH239220   3.957   3.086  15.259 -0.0581  0.2049 -0.1430
 5910TIP3    H139221   3.872   3.052  15.289  0.2431 -2.4421 -1.9391
 5910TIP3    H239222   3.936   3.140  15.183 -0.1301 -0.9732 -0.9812
 5911TIP3   OH239223   6.549   6.103   2.207 -0.4024  0.3760  0.4839
 5911TIP3    H139224   6.459   6.136   2.214  0.1573  2.0371  0.1042
 5911TIP3    H239225   6.551   6.057   2.123 -1.3320 -1.1716  1.2622
 5912TIP3   OH239226   5.046   3.460   1.077 -0.2154  0.0626  0.2323
 5912TIP3    H139227   5.006   3.540   1.044 -1.2234 -0.1735  0.8510
 5912TIP3    H239228   5.080   3.417   0.998  1.7488  1.8111  0.0484
 5913TIP3   OH239229   2.527   3.608   5.654 -0.0858 -0.6102  0.5065
 5913TIP3    H139230   2.512   3.695   5.690  1.0597  1.2441 -2.9753
 5913TIP3    H239231   2.621   3.593   5.664  0.1449 -0.3243 -0.9433
 5914TIP3   OH239232   1.344   0.709   4.374  0.3151 -0.1736 -0.5046
 5914TIP3    H139233   1.387   0.629   4.342  0.6587  0.9029 -2.9803
 5914TIP3    H239234   1.259   0.708   4.331  0.6991  1.2215 -1.3548
 5915TIP3   OH239235   4.194   2.931   1.007 -0.5062 -0.6017  0.2670
 5915TIP3    H139236   4.191   2.939   0.912  0.8315 -0.1948  0.2349
 5915TIP3    H239237   4.138   3.002   1.039  0.8694  0.7606 -0.2108
 5916TIP3   OH239238   6.704   1.949   0.923 -0.5321 -0.0371 -0.4416
 5916TIP3    H139239   6.644   1.882   0.891  0.5818 -0.8151 -0.9579
 5916TIP3    H239240   6.734   1.994   0.843  0.0516 -0.0759 -0.2472
 5917TIP3   OH239241   3.857   5.636  11.742  0.4212 -0.3261  0.3894
 5917TIP3    H139242   3.914   5.595  11.807  2.5215  0.5179 -0.8327
 5917TIP3    H239243   3.834   5.721  11.780  0.5953 -0.3542  0.5568
 5918TIP3   OH239244   5.553   3.090  15.368  0.3080  0.4565 -0.1404
 5918TIP3    H139245   5.630   3.146  15.376  1.3198 -0.5511 -2.0956
 5918TIP3    H239246   5.487   3.146  15.327  0.9097  0.5768 -0.9722
 5919TIP3   OH239247   1.312   6.141  15.366  0.1943  0.1524 -0.5903
 5919TIP3    H139248   1.400   6.122  15.400 -0.3267  0.0678  0.7955
 5919TIP3    H239249   1.327   6.177  15.279  1.6765  1.1932  0.0524
 5920TIP3   OH239250   0.932   4.901  16.398 -0.4610 -0.0752  0.3232
 5920TIP3    H139251   0.956   4.973  16.340 -0.5659  0.0360  0.4180
 5920TIP3    H239252   1.015   4.869  16.433 -0.2195 -1.3594 -1.3242
 5921TIP3   OH239253   5.302   4.095  15.118 -0.0387  0.4441  0.1230
 5921TIP3    H139254   5.351   4.177  15.115 -2.3731  2.1278 -4.8893
 5921TIP3    H239255   5.364   4.028  15.090  1.0992  1.1269  0.9721
 5922TIP3   OH239256   4.684   5.020   1.735  0.0103 -0.0486 -0.1150
 5922TIP3    H139257   4.745   5.092   1.716 -0.9122  0.9753  0.7170
 5922TIP3    H239258   4.624   5.055   1.800 -2.2492 -0.6082 -1.7658
 5923TIP3   OH239259   3.673   3.181   0.331  0.2269  0.4819  0.6472
 5923TIP3    H139260   3.746   3.228   0.371  2.1438 -2.0683  0.3728
 5923TIP3    H239261   3.628   3.139   0.404 -0.4350  1.2625  0.7120
 5924TIP3   OH239262   3.450   1.399   1.315  0.4047  0.4445  0.4214
 5924TIP3    H139263   3.370   1.368   1.356  0.5155  0.6699  0.8088
 5924TIP3    H239264   3.437   1.493   1.306  1.2068  0.7117  1.8027
 5925TIP3   OH239265   5.728   3.991  14.197 -0.0201 -0.4532  0.3104
 5925TIP3    H139266   5.736   4.085  14.186  0.0665 -0.4484  0.4095
 5925TIP3    H239267   5.797   3.968  14.259 -0.6946 -0.4243  1.0953
 5926TIP3   OH239268   3.170   2.692   2.416  0.2527  0.7896 -0.1772
 5926TIP3    H139269   3.263   2.668   2.425  0.2266  0.2980 -1.1574
 5926TIP3    H239270   3.170   2.788   2.414  0.5118  0.8987  2.0940
 5927TIP3   OH239271   1.511   2.611   4.026 -0.2601 -0.7531 -0.5601
 5927TIP3    H139272   1.448   2.669   3.982  0.2053  0.6751  0.6007
 5927TIP3    H239273   1.568   2.580   3.955 -0.5711  0.1456 -1.2280
 5928TIP3   OH239274   0.292   0.584  14.785 -0.2038 -0.3779 -0.3152
 5928TIP3    H139275   0.316   0.565  14.876 -2.5015 -1.4693  0.1212
 5928TIP3    H239276   0.260   0.675  14.788  2.8797  0.8456 -0.7758
 5929TIP3   OH239277   5.204   4.161   0.475 -0.1032  0.1360 -0.2544
 5929TIP3    H139278   5.187   4.245   0.518 -0.4215  0.4228 -0.9324
 5929TIP3    H239279   5.232   4.184   0.387 -2.1352 -0.4971 -1.1164
 5930TIP3   OH239280   0.434   0.485   6.388  0.2255 -0.2837 -0.2755
 5930TIP3    H139281   0.481   0.403   6.371 -1.4074 -0.8120 -2.8256
 5930TIP3    H239282   0.342   0.462   6.376 -0.3540  1.6919  0.1284
 5931TIP3   OH239283   1.748   3.050  17.641  0.0746 -0.1435  0.2397
 5931TIP3    H139284   1.810   2.978  17.647  0.4311 -0.0213 -1.4882
 5931TIP3    H239285   1.694   3.030  17.565 -0.4156  0.9499  0.2716
 5932TIP3   OH239286   5.595   1.235  14.410 -0.2111  0.2603 -0.0553
 5932TIP3    H139287   5.648   1.170  14.365  0.8437  0.3234  1.0427
 5932TIP3    H239288   5.505   1.215  14.386  0.0815 -1.6631  0.3309
 5933TIP3   OH239289   1.289   4.980  15.820  0.1789  0.5375  0.1630
 5933TIP3    H139290   1.337   4.904  15.854  1.4091  1.1410 -0.1658
 5933TIP3    H239291   1.265   4.956  15.731  1.6200  0.9554 -0.3680
 5934TIP3   OH239292   5.395   2.704   4.530  0.5585 -0.3089  0.4917
 5934TIP3    H139293   5.401   2.639   4.599 -2.6816 -0.2502  1.0092
 5934TIP3    H239294   5.364   2.656   4.454 -0.5982  0.3456  0.5155
 5935TIP3   OH239295   4.834   3.115   5.494 -0.3791 -0.2479  0.3103
 5935TIP3    H139296   4.807   3.199   5.458  0.5687 -0.3178 -0.6495
 5935TIP3    H239297   4.761   3.056   5.475  0.1975 -0.3489 -1.8521
 5936TIP3   OH239298   4.122   3.556   0.803 -0.3043 -0.0177  0.4455
 5936TIP3    H139299   4.097   3.498   0.874  1.6521 -2.5014 -0.7370
 5936TIP3    H239300   4.074   3.523   0.727  1.6723 -0.8932 -0.4845
 5937TIP3   OH239301   1.886   5.635  12.893  0.0164 -0.1729  0.6236
 5937TIP3    H139302   1.884   5.547  12.930  1.0818 -1.3912 -2.0120
 5937TIP3    H239303   1.979   5.659  12.891 -0.2389  0.9413  1.0690
 5938TIP3   OH239304   4.092   3.066  13.453 -0.0380 -0.8150 -0.5897
 5938TIP3    H139305   4.089   3.160  13.474  3.3953 -0.4352 -1.2228
 5938TIP3    H239306   4.076   3.023  13.537  1.5983  0.4570  0.4473
 5939TIP3   OH239307   3.630   0.543   5.903  0.1325 -0.0285  0.4005
 5939TIP3    H139308   3.693   0.514   5.969  0.4157 -0.6151 -0.1246
 5939TIP3    H239309   3.595   0.462   5.866  1.3842  0.2649 -1.5265
 5940TIP3   OH239310   4.519   4.012   5.977 -0.1710 -0.1036  0.3976
 5940TIP3    H139311   4.591   3.979   6.030 -0.3284  0.6968  1.1328
 5940TIP3    H239312   4.485   3.935   5.931  1.1156 -0.4899  0.0773
 5941TIP3   OH239313   3.588   2.581  13.912  0.5559 -0.0273  0.1040
 5941TIP3    H139314   3.643   2.518  13.956  1.4450  0.7308  0.1039
 5941TIP3    H239315   3.623   2.586  13.823 -0.1566 -0.2881 -0.2030
 5942TIP3   OH239316   1.481   5.327  16.125  0.2189  0.0661  0.7733
 5942TIP3    H139317   1.494   5.314  16.219  0.7135  0.5278  0.7705
 5942TIP3    H239318   1.487   5.239  16.088 -2.0814 -0.4333  1.3978
 5943TIP3   OH239319   6.019   3.145  12.791 -0.0702  0.2016 -0.1828
 5943TIP3    H139320   5.944   3.191  12.753 -1.1072 -0.3666  1.1236
 5943TIP3    H239321   6.095   3.193  12.757 -1.0334  1.4038 -0.7468
 5944TIP3   OH239322   4.132   3.576   5.008  0.2606 -0.0403 -0.0754
 5944TIP3    H139323   4.067   3.635   4.971  1.2848  0.2474 -1.5082
 5944TIP3    H239324   4.155   3.615   5.092  0.9590  1.6654 -1.0124
 5945TIP3   OH239325   1.553   1.018  12.987 -0.4582  0.4995  0.3069
 5945TIP3    H139326   1.645   1.042  13.001  0.5741 -0.2710 -3.6883
 5945TIP3    H239327   1.555   0.969  12.904 -4.3704 -0.4960  0.6453
 5946TIP3   OH239328   4.328   1.908   1.373 -0.6470 -0.6623 -0.1743
 5946TIP3    H139329   4.375   1.977   1.325 -3.0744 -0.8748 -3.0898
 5946TIP3    H239330   4.273   1.956   1.435 -0.2083 -0.1767 -0.1485
 5947TIP3   OH239331   4.125   4.222   0.857 -0.0431 -0.0411  0.0984
 5947TIP3    H139332   4.148   4.233   0.949 -0.4813  1.4587  0.0613
 5947TIP3    H239333   4.194   4.269   0.810 -0.5292  0.3219 -0.2612
 5948TIP3   OH239334   2.161   5.049   7.217  0.2053 -0.2034  0.1018
 5948TIP3    H139335   2.256   5.050   7.206  0.6235  1.9036  2.6949
 5948TIP3    H239336   2.138   5.141   7.228 -2.0083 -0.7599  0.5233
 5949TIP3   OH239337   3.406   1.042   2.957 -0.1933 -0.0271 -0.0173
 5949TIP3    H139338   3.365   0.963   2.992 -0.6245  0.0919 -0.2557
 5949TIP3    H239339   3.346   1.073   2.890 -0.0108  0.4881  0.0538
 5950TIP3   OH239340   1.144   0.046  13.506 -0.8787 -0.1159  0.3539
 5950TIP3    H139341   1.209  -0.007  13.459  0.8174  0.8188  1.5306
 5950TIP3    H239342   1.064   0.038  13.453  0.7908  0.6415 -2.5404
 5951TIP3   OH239343   5.948   1.345  14.321 -0.1274  0.2048 -0.7385
 5951TIP3    H139344   5.997   1.267  14.347 -0.3687  0.7956  1.7292
 5951TIP3    H239345   5.859   1.327  14.351  0.3392  2.4303  2.4061
 5952TIP3   OH239346   6.618   4.274  17.078 -0.6739 -0.5956 -0.6637
 5952TIP3    H139347   6.617   4.350  17.019 -1.9753 -0.5109 -0.5595
 5952TIP3    H239348   6.663   4.305  17.157 -1.3385  0.1238 -0.5576
 5953TIP3   OH239349   0.216   5.784   1.097 -0.1477  0.0371 -0.3321
 5953TIP3    H139350   0.187   5.770   1.187 -1.3968  2.0181 -0.3672
 5953TIP3    H239351   0.239   5.877   1.093 -0.6132  0.1227 -2.1792
 5954TIP3   OH239352   4.850   5.626   5.774 -0.3085  0.3994  0.0001
 5954TIP3    H139353   4.765   5.613   5.730 -0.4997 -5.5741  1.3225
 5954TIP3    H239354   4.915   5.601   5.709 -0.0200 -0.6098  0.6594
 5955TIP3   OH239355   0.908   6.695   3.865 -0.1168  0.1384  0.0804
 5955TIP3    H139356   0.937   6.736   3.947  2.1839  2.1440 -1.6114
 5955TIP3    H239357   0.827   6.741   3.843 -1.1659 -0.9246  1.5310
 5956TIP3   OH239358   3.744   3.611  11.630  0.2905  0.4963  0.0269
 5956TIP3    H139359   3.696   3.591  11.550  2.3097  1.5688 -1.5393
 5956TIP3    H239360   3.721   3.702  11.651 -0.4681  0.1247  0.8719
 5957TIP3   OH239361   2.709   1.769   2.666  0.2927 -0.0436 -0.0913
 5957TIP3    H139362   2.803   1.787   2.657  0.1283  1.3101  0.7681
 5957TIP3    H239363   2.687   1.720   2.586  1.5254  0.4610 -0.7671
 5958TIP3   OH239364   1.867   3.829   4.490  0.4004  0.0241 -0.2627
 5958TIP3    H139365   1.958   3.856   4.504  0.1063  0.7443  0.2711
 5958TIP3    H239366   1.816   3.909   4.497 -0.1894 -0.2281 -1.5044
 5959TIP3   OH239367   6.079   1.652   2.377 -0.4818  0.1637 -0.8691
 5959TIP3    H139368   6.040   1.739   2.372 -1.2775 -0.0791  0.6307
 5959TIP3    H239369   6.088   1.625   2.285 -1.3844  1.3082 -1.3203
 5960TIP3   OH239370   2.712   4.258   4.955 -0.1893 -0.3603  0.4277
 5960TIP3    H139371   2.733   4.348   4.979  1.9672 -1.2021  1.9464
 5960TIP3    H239372   2.708   4.259   4.859  0.8746  1.1332  0.3715
 5961TIP3   OH239373   5.326   0.124   4.172 -0.7059  0.2099 -0.3380
 5961TIP3    H139374   5.381   0.177   4.230 -0.7687 -0.0484 -0.0408
 5961TIP3    H239375   5.372   0.041   4.164 -0.1529  0.6113 -1.5286
 5962TIP3   OH239376   1.327   0.446  12.718  0.4924  0.0415  0.2016
 5962TIP3    H139377   1.379   0.511  12.764 -0.1282 -0.1270  1.1622
 5962TIP3    H239378   1.367   0.362  12.740  0.6085  0.0090 -0.1266
 5963TIP3   OH239379   5.271   0.642   5.590  0.3052 -0.2750 -0.4479
 5963TIP3    H139380   5.321   0.561   5.576 -0.5040 -0.8931  0.1623
 5963TIP3    H239381   5.332   0.700   5.637  1.4474  0.1029 -2.2916
 5964TIP3   OH239382   4.054   3.909   1.937  0.4085  0.2645 -0.3142
 5964TIP3    H139383   3.967   3.902   1.976  1.5934  0.9275  2.6531
 5964TIP3    H239384   4.086   3.994   1.964  2.6101 -0.6088  0.0365
 5965TIP3   OH239385   3.991   3.922  12.032 -0.5485 -0.0268 -0.4072
 5965TIP3    H139386   3.915   3.979  12.016 -0.5686  0.3044  0.7636
 5965TIP3    H239387   4.017   3.892  11.945 -0.8108  1.4269 -1.0230
 5966TIP3   OH239388   1.520   0.501   4.744 -0.1620 -0.2684  0.0804
 5966TIP3    H139389   1.540   0.593   4.724  0.7445 -0.5847 -0.5256
 5966TIP3    H239390   1.533   0.494   4.838  1.9828 -0.2822 -0.1777
 5967TIP3   OH239391   3.723   4.513  15.169  0.1007 -0.4431  0.7387
 5967TIP3    H139392   3.692   4.461  15.095 -1.8428  1.0847  0.4133
 5967TIP3    H239393   3.819   4.507  15.163  0.0222 -0.3040 -1.9552
 5968TIP3   OH239394   3.530   5.596  14.553  0.3143  0.2529  0.4822
 5968TIP3    H139395   3.584   5.657  14.601 -1.8287  1.3604  1.6173
 5968TIP3    H239396   3.502   5.644  14.475 -0.0487  0.1277  0.5329
 5969TIP3   OH239397   2.741   6.019  12.841  0.0925 -0.6680 -0.4220
 5969TIP3    H139398   2.777   5.995  12.756 -1.0162 -0.4915 -0.9574
 5969TIP3    H239399   2.807   6.079  12.878  0.4485 -0.5039 -1.2840
 5970TIP3   OH239400   3.388   5.612   6.784  0.3876 -0.0068  0.6922
 5970TIP3    H139401   3.406   5.678   6.850  1.3467 -0.6827  1.1391
 5970TIP3    H239402   3.386   5.529   6.833 -0.3721 -0.3522  0.0900
 5971TIP3   OH239403   5.932   4.363   6.224  0.5163  0.8180  0.1651
 5971TIP3    H139404   5.880   4.330   6.297  0.7376 -0.9419 -0.4366
 5971TIP3    H239405   5.937   4.458   6.240 -0.3630  0.6314  1.8143
 5972TIP3   OH239406   0.517   1.812  15.734  0.0440 -0.2426 -0.4736
 5972TIP3    H139407   0.581   1.880  15.715  0.2987  0.2699  1.9086
 5972TIP3    H239408   0.567   1.742  15.775 -0.5633 -0.9431 -0.8953
 5973TIP3   OH239409   3.352   0.087   1.943 -0.0798 -0.0980 -0.8807
 5973TIP3    H139410   3.305   0.100   1.861  0.6912 -0.3418 -1.3754
 5973TIP3    H239411   3.288   0.107   2.011 -1.4568 -2.1982 -1.4810
 5974TIP3   OH239412   3.702   5.606  11.483  0.2946  0.0448 -0.4871
 5974TIP3    H139413   3.760   5.653  11.424 -2.7053  2.7441 -1.6091
 5974TIP3    H239414   3.731   5.631  11.571  1.3262  0.5915 -0.9686
 5975TIP3   OH239415   5.442   4.437  15.812  0.0517  0.0374 -0.2018
 5975TIP3    H139416   5.526   4.392  15.822  0.4993  0.5953 -1.2788
 5975TIP3    H239417   5.386   4.397  15.879  1.3564  0.1251  1.0184
 5976TIP3   OH239418   2.786   6.398   0.223  0.2305  0.0022  0.5194
 5976TIP3    H139419   2.754   6.326   0.169  1.0139  0.4873 -0.6280
 5976TIP3    H239420   2.874   6.371   0.250  0.9208  0.9014 -0.7171
 5977TIP3   OH239421   0.954   5.147   6.721  0.1518  0.4156 -0.1203
 5977TIP3    H139422   0.989   5.059   6.706 -0.1069 -0.0254  1.6384
 5977TIP3    H239423   0.982   5.197   6.644 -0.4386 -1.3929 -1.5811
 5978TIP3   OH239424   2.323   4.673   0.886 -0.2959 -0.0660  0.1208
 5978TIP3    H139425   2.331   4.616   0.810 -0.5058 -0.4563  0.3899
 5978TIP3    H239426   2.343   4.761   0.852 -0.8799 -0.1588 -0.4939
 5979TIP3   OH239427   4.255   4.271   5.461  0.4326  0.3567  0.8648
 5979TIP3    H139428   4.341   4.242   5.430 -0.4032 -0.6661 -0.6240
 5979TIP3    H239429   4.271   4.301   5.551  2.1590 -0.7103  0.9649
 5980TIP3   OH239430   3.584   3.062  17.049  0.4319  0.2176  0.2764
 5980TIP3    H139431   3.670   3.025  17.070  0.0942  0.3233  1.9761
 5980TIP3    H239432   3.557   3.017  16.969  2.1278  0.3018 -0.3854
 5981TIP3   OH239433   6.528   2.154  16.212  0.5414  0.2980 -0.0788
 5981TIP3    H139434   6.583   2.084  16.176  0.8856  0.3240  0.3982
 5981TIP3    H239435   6.449   2.152  16.157 -0.4624 -1.9770  1.2996
 5982TIP3   OH239436   5.884   3.101  11.755  1.0816  0.3498 -0.5181
 5982TIP3    H139437   5.880   3.023  11.700  0.0946 -0.2207  0.3287
 5982TIP3    H239438   5.917   3.070  11.839 -1.5973  0.3078  0.6158
 5983TIP3   OH239439   0.988   0.730   6.299 -0.1643 -0.0553 -0.0018
 5983TIP3    H139440   0.980   0.819   6.265 -0.7596  0.0960  0.5103
 5983TIP3    H239441   0.916   0.682   6.258 -1.0893  0.2061  1.2353
 5984TIP3   OH239442   0.780   6.633  16.848  0.2774 -0.0477 -0.4782
 5984TIP3    H139443   0.798   6.658  16.757  0.5890  0.5327 -0.2587
 5984TIP3    H239444   0.828   6.697  16.900 -0.0924 -0.2376  0.0994
 5985TIP3   OH239445   3.518   5.695  16.359  0.0706  0.1040  0.2754
 5985TIP3    H139446   3.498   5.760  16.292 -1.5132 -0.9723 -0.3494
 5985TIP3    H239447   3.599   5.654  16.330  0.6076  1.1625  0.2225
 5986TIP3   OH239448   0.197   4.119  12.450  0.6651  0.2005  0.1883
 5986TIP3    H139449   0.155   4.100  12.366  0.8210  0.1168  0.1271
 5986TIP3    H239450   0.174   4.044  12.505  1.4691 -0.2900 -0.1233
 5987TIP3   OH239451   6.677   1.475  14.174  0.4111 -0.2370 -0.6555
 5987TIP3    H139452   6.672   1.513  14.086  1.8951 -0.2000 -0.7600
 5987TIP3    H239453   6.623   1.532  14.229  0.0263  0.1387 -1.4079
 5988TIP3   OH239454   6.399   1.077  12.135 -0.1187  0.6639 -0.4394
 5988TIP3    H139455   6.461   1.150  12.136  0.2024  0.4077 -1.0075
 5988TIP3    H239456   6.454   1.000  12.152 -0.1781  0.3660 -1.5535
 5989TIP3   OH239457   4.541   1.415   1.369 -0.1472 -0.0448  0.2661
 5989TIP3    H139458   4.508   1.501   1.395 -0.9411 -0.3500  0.2845
 5989TIP3    H239459   4.553   1.368   1.452  1.5984  0.4891  0.3668
 5990TIP3   OH239460   2.554   1.362   1.392  0.0230  0.4232 -0.0111
 5990TIP3    H139461   2.569   1.456   1.397  0.5249  0.3576 -0.2151
 5990TIP3    H239462   2.637   1.322   1.419 -0.1071  0.0406 -0.1608
 5991TIP3   OH239463   3.567   4.094   2.521 -0.2474 -0.1091  0.0203
 5991TIP3    H139464   3.655   4.131   2.516 -0.2928  0.2978  1.6530
 5991TIP3    H239465   3.521   4.131   2.446  0.0761  2.1927  0.9012
 5992TIP3   OH239466   0.490   0.522  11.595 -0.7631 -0.2643 -0.6687
 5992TIP3    H139467   0.576   0.531  11.554 -1.6019  0.4845 -2.3392
 5992TIP3    H239468   0.476   0.427  11.601  0.1117 -0.3873 -0.5169
 5993TIP3   OH239469   5.576   0.481   5.105  0.4091 -0.1826  0.9275
 5993TIP3    H139470   5.648   0.464   5.044 -0.0008  0.1236  0.3538
 5993TIP3    H239471   5.571   0.577   5.109 -0.3548 -0.1993  0.4950
 5994TIP3   OH239472   3.376   3.786   2.688  0.2852 -0.5061 -0.4150
 5994TIP3    H139473   3.432   3.786   2.611  0.2580 -3.3290 -0.5203
 5994TIP3    H239474   3.409   3.858   2.742  2.5554 -0.6754 -1.4871
 5995TIP3   OH239475   0.733   2.652   3.280 -0.6418 -0.8166 -0.7214
 5995TIP3    H139476   0.717   2.712   3.208  1.4890  1.2507  0.4093
 5995TIP3    H239477   0.703   2.699   3.358  1.1964 -1.1096  0.2138
 5996TIP3   OH239478   3.736   5.567  14.999  0.3101 -0.0229 -0.1145
 5996TIP3    H139479   3.680   5.552  15.076 -0.5422  0.4811 -0.6133
 5996TIP3    H239480   3.731   5.661  14.984  0.7176 -0.0770 -0.6073
 5997TIP3   OH239481   0.206   0.352  11.323  0.1475 -0.4872 -0.2187
 5997TIP3    H139482   0.289   0.369  11.280 -0.7081  0.9133 -1.4045
 5997TIP3    H239483   0.148   0.320  11.253 -0.4906 -0.8663  0.4592
 5998TIP3   OH239484   2.820   1.449  12.957  0.1508  0.0819 -0.2445
 5998TIP3    H139485   2.844   1.377  13.015  0.1710  1.4252  1.5054
 5998TIP3    H239486   2.732   1.428  12.927  1.0670 -1.8683 -1.8208
 5999TIP3   OH239487   1.062   5.317   1.417  0.0431 -0.1136  0.2447
 5999TIP3    H139488   1.012   5.324   1.336 -1.3522 -0.6233  1.0282
 5999TIP3    H239489   1.107   5.233   1.411  2.0255  0.9638 -1.0877
 6000TIP3   OH239490   5.321   6.201  13.927 -0.2898  1.0728  0.6396
 6000TIP3    H139491   5.227   6.200  13.944 -0.9247  0.5985 -2.2816
 6000TIP3    H239492   5.354   6.124  13.974 -1.4073  1.0138  1.3772
 6001TIP3   OH239493   0.796   1.513  13.887  0.3295 -0.1169 -0.1129
 6001TIP3    H139494   0.785   1.607  13.870 -0.7808 -0.2897 -0.4224
 6001TIP3    H239495   0.855   1.483  13.818  1.2144  0.4653  0.3678
 6002TIP3   OH239496   5.192   4.504   6.003 -0.0293 -0.3867  0.0441
 6002TIP3    H139497   5.250   4.504   6.079  0.2325 -0.5649 -0.1505
 6002TIP3    H239498   5.201   4.592   5.966 -1.4677  0.2672  1.1893
 6003TIP3   OH239499   5.740   3.614   0.320 -0.2096  0.3794 -0.3049
 6003TIP3    H139500   5.778   3.696   0.287 -0.5150  1.0234  0.9030
 6003TIP3    H239501   5.770   3.548   0.258  1.2189  1.1799 -0.5266
 6004TIP3   OH239502   5.617   0.260  14.597  0.4956  0.0330 -0.4569
 6004TIP3    H139503   5.596   0.296  14.511 -0.4239  1.1605  0.2035
 6004TIP3    H239504   5.533   0.228  14.630  0.8415 -0.3867  0.0234
 6005TIP3   OH239505   4.938   1.796  16.326  0.5526  0.0296 -0.4058
 6005TIP3    H139506   5.027   1.831  16.319  0.4447  0.6039  0.9520
 6005TIP3    H239507   4.914   1.775  16.235  2.5484 -1.3683 -0.6664
 6006TIP3   OH239508   2.993   4.577  14.092  0.3927 -0.1511 -0.1904
 6006TIP3    H139509   2.905   4.582  14.055  0.2821 -0.1166  0.0707
 6006TIP3    H239510   3.052   4.579  14.017  0.2742  2.0314 -0.2772
 6007TIP3   OH239511   4.330   2.490  16.444  0.4102  0.0409 -0.1322
 6007TIP3    H139512   4.284   2.519  16.523  2.4013  2.3116  0.3315
 6007TIP3    H239513   4.381   2.414  16.472 -0.5274 -0.4917  0.1740
 6008TIP3   OH239514   5.204   4.915  14.577  0.4101  0.4195  0.0909
 6008TIP3    H139515   5.191   4.843  14.516 -2.8144  1.9516 -1.2484
 6008TIP3    H239516   5.242   4.985  14.524  0.5057  0.7581  0.6003
 6009TIP3   OH239517   5.026   6.203  12.493  0.1752  0.4122 -0.2635
 6009TIP3    H139518   4.938   6.238  12.479  0.7059  1.8411 -0.2040
 6009TIP3    H239519   5.084   6.279  12.485  1.5927 -0.7516 -2.0054
 6010TIP3   OH239520   6.164   5.580  15.128 -0.0955  0.0105 -0.0453
 6010TIP3    H139521   6.239   5.605  15.074  1.2082 -0.5813  1.4500
 6010TIP3    H239522   6.160   5.646  15.197 -1.3365  0.3703 -0.4232
 6011TIP3   OH239523   3.655   0.945  15.316 -0.4642 -0.1918  0.0952
 6011TIP3    H139524   3.634   0.995  15.238 -1.0029 -1.0968 -0.3533
 6011TIP3    H239525   3.575   0.947  15.368  0.3579  1.7436  1.4056
 6012TIP3   OH239526   3.946   1.576  12.723 -0.1445 -0.6541  0.5461
 6012TIP3    H139527   3.946   1.666  12.691  1.0216 -1.2111 -1.1376
 6012TIP3    H239528   3.931   1.584  12.817  1.4903  1.3957  0.6978
 6013TIP3   OH239529   6.499   5.204  11.296  0.1940  0.3417 -0.0212
 6013TIP3    H139530   6.591   5.182  11.283  0.6390  1.1995  1.3735
 6013TIP3    H239531   6.499   5.298  11.316 -0.6831 -0.0881  2.3474
 6014TIP3   OH239532   2.163   3.747  15.242  0.2273  0.0074 -0.2251
 6014TIP3    H139533   2.218   3.757  15.320 -0.4744  0.0040  0.2703
 6014TIP3    H239534   2.200   3.809  15.179  0.7287  0.0867  0.1419
 6015TIP3   OH239535   0.517   2.605  11.663  0.4889 -0.1968  0.1369
 6015TIP3    H139536   0.509   2.590  11.569  0.6278 -0.3168  0.1455
 6015TIP3    H239537   0.601   2.567  11.687 -0.0615 -1.1947  0.5278
 6016TIP3   OH239538   4.276   3.809  12.351  0.0936  0.5007 -0.3885
 6016TIP3    H139539   4.317   3.751  12.286  1.4370  0.9574  0.0207
 6016TIP3    H239540   4.285   3.897  12.313 -0.3898  0.6238 -0.2214
 6017TIP3   OH239541   1.972   3.036  13.990 -0.4723  0.0504  0.0176
 6017TIP3    H139542   1.949   2.965  14.049  2.4242 -1.1240 -0.1201
 6017TIP3    H239543   2.012   2.992  13.915 -2.9196  1.5682 -2.3878
 6018TIP3   OH239544   6.478   6.436  17.070 -0.0050  0.1987  0.4410
 6018TIP3    H139545   6.392   6.441  17.111 -0.7810  0.7714 -1.1779
 6018TIP3    H239546   6.529   6.505  17.113 -0.3405 -0.1065  1.3674
 6019TIP3   OH239547   6.105   0.422  13.053 -0.0127  0.0761  0.2730
 6019TIP3    H139548   6.159   0.401  13.129 -0.3036  0.4952  0.5979
 6019TIP3    H239549   6.143   0.502  13.018 -0.5292  0.4840  0.6186
 6020TIP3   OH239550   3.378   2.203  11.889  0.0024  0.5507 -0.0306
 6020TIP3    H139551   3.297   2.201  11.941  0.9484  1.7433  1.6066
 6020TIP3    H239552   3.360   2.146  11.815 -2.1475  0.3482  0.5595
 6021TIP3   OH239553   2.333   5.094  10.807 -0.1266  0.2714 -0.6171
 6021TIP3    H139554   2.369   5.182  10.803  0.8879 -0.0777  0.5508
 6021TIP3    H239555   2.396   5.043  10.857 -1.5261 -0.7180  0.2233
 6022TIP3   OH239556   5.283   0.775   1.378 -0.3212 -0.0573  0.3592
 6022TIP3    H139557   5.340   0.785   1.454 -0.0088 -1.3156  0.3211
 6022TIP3    H239558   5.238   0.691   1.393  0.3378 -0.7296 -1.2048
 6023TIP3   OH239559   2.768   3.929   2.835 -0.1099 -0.1377  0.2624
 6023TIP3    H139560   2.784   3.836   2.822  1.8657  0.4604 -2.5889
 6023TIP3    H239561   2.851   3.971   2.812 -1.7005  2.4432 -1.2140
 6024TIP3   OH239562   0.778   6.172   1.476  0.1032  0.2828  0.2920
 6024TIP3    H139563   0.689   6.183   1.509 -0.3629  0.3145 -0.9560
 6024TIP3    H239564   0.798   6.080   1.493 -0.6021 -0.0209 -0.4514
 6025TIP3   OH239565   5.203   0.016  12.794 -0.4186  0.1963 -0.0696
 6025TIP3    H139566   5.211   0.015  12.699 -0.0402 -0.8108 -0.0378
 6025TIP3    H239567   5.174   0.105  12.815 -1.0703  0.2544 -1.1669
 6026TIP3   OH239568   1.673   1.062  11.402 -0.3325 -0.2103  0.1284
 6026TIP3    H139569   1.601   1.098  11.454  0.2797 -0.0333  0.8810
 6026TIP3    H239570   1.652   0.969  11.393 -0.3501 -0.2866  0.8778
 6027TIP3   OH239571   0.698   2.413   4.303 -0.1364  0.2588  0.3765
 6027TIP3    H139572   0.670   2.333   4.260  0.4172  0.3510 -0.1743
 6027TIP3    H239573   0.698   2.392   4.396  1.7764 -0.9758  0.1566
 6028TIP3   OH239574   3.372   0.191   0.687  0.0388  0.3637 -0.0099
 6028TIP3    H139575   3.390   0.120   0.625  1.8872 -0.4793  1.3864
 6028TIP3    H239576   3.457   0.210   0.727 -0.4575  3.1737 -0.0775
 6029TIP3   OH239577   0.262   6.275   3.292  0.4560  0.2106 -0.0610
 6029TIP3    H139578   0.212   6.322   3.359  1.6162  0.6370  0.5362
 6029TIP3    H239579   0.345   6.322   3.287  0.7475 -0.3920 -1.1378
 6030TIP3   OH239580   3.693   1.714  12.803  0.0755  0.1518  0.2027
 6030TIP3    H139581   3.662   1.663  12.728  0.9259 -0.0706 -0.0147
 6030TIP3    H239582   3.721   1.648  12.867  1.5758  0.3078 -0.2423
 6031TIP3   OH239583   6.719   4.089  16.230 -0.0857 -0.3663  0.2178
 6031TIP3    H139584   6.740   4.148  16.158 -0.6847 -0.9417 -0.4502
 6031TIP3    H239585   6.629   4.112  16.254  0.2863  0.1770  1.1490
 6032TIP3   OH239586   2.030   5.869   0.655  0.1434  0.0535 -0.6102
 6032TIP3    H139587   1.943   5.843   0.626  0.1255 -0.4174 -0.1564
 6032TIP3    H239588   2.038   5.832   0.743  0.9357 -0.2175 -0.7873
 6033TIP3   OH239589   6.007   6.656   0.449  0.0551 -0.0667  0.0929
 6033TIP3    H139590   6.029   6.748   0.465  0.9822 -0.2428 -0.0626
 6033TIP3    H239591   5.985   6.621   0.535 -1.8200  0.6598 -0.0583
 6034TIP3   OH239592   6.678   5.906   2.741  0.2507  0.0049  0.3555
 6034TIP3    H139593   6.692   5.980   2.683  0.9878 -0.0116  0.5036
 6034TIP3    H239594   6.668   5.945   2.828 -2.5534  0.1754  0.0517
 6035TIP3   OH239595   1.604   1.892   5.876  0.0820  0.1476 -0.8591
 6035TIP3    H139596   1.568   1.900   5.788  0.5699  0.6239 -1.0218
 6035TIP3    H239597   1.646   1.806   5.877 -1.6143 -0.7128 -0.4444
 6036TIP3   OH239598   2.941   2.636   4.063 -0.0064  0.0061 -0.1593
 6036TIP3    H139599   2.990   2.718   4.061 -0.2628  0.1532 -0.5388
 6036TIP3    H239600   2.850   2.663   4.072 -0.1130 -0.2262 -0.5038
 6037TIP3   OH239601   5.534   1.569  15.636 -0.0628 -0.1864  0.2468
 6037TIP3    H139602   5.444   1.596  15.654 -0.4621 -0.7380 -0.8630
 6037TIP3    H239603   5.526   1.487  15.588  0.9449  0.8170 -1.7538
 6038TIP3   OH239604   3.913   3.638   2.205  0.4665 -0.5447  0.3291
 6038TIP3    H139605   3.829   3.595   2.222  2.0891 -3.3992  1.9516
 6038TIP3    H239606   3.898   3.730   2.228 -2.8038 -0.3235 -1.8701
 6039TIP3   OH239607   6.039   2.581  16.675  0.3312 -0.1226 -0.3362
 6039TIP3    H139608   6.098   2.576  16.599 -0.2263 -1.1783 -0.7138
 6039TIP3    H239609   5.952   2.593  16.637 -0.6482 -4.8657 -0.2497
 6040TIP3   OH239610   6.017   4.968   1.673 -0.2257 -0.1819 -0.4782
 6040TIP3    H139611   5.941   4.996   1.623 -3.1942 -1.6076  2.8070
 6040TIP3    H239612   6.035   5.041   1.732 -1.7245 -1.2181  1.4048
 6041TIP3   OH239613   3.844   4.966   3.356  0.0285 -0.7776  0.5934
 6041TIP3    H139614   3.772   4.908   3.332 -0.8920  0.3258  0.6218
 6041TIP3    H239615   3.802   5.041   3.398  1.2210 -0.2636  0.9151
 6042TIP3   OH239616   5.918   6.000   1.459  0.1084  0.2165 -0.7143
 6042TIP3    H139617   5.940   6.078   1.409 -0.2265  0.8279  0.0545
 6042TIP3    H239618   5.929   5.927   1.398 -0.5723  0.9558 -1.7565
 6043TIP3   OH239619   1.797   3.178  15.981 -0.3458  0.4805  0.6386
 6043TIP3    H139620   1.883   3.218  15.992 -0.2206  1.3987 -2.6672
 6043TIP3    H239621   1.745   3.211  16.054  2.2201 -0.7608  3.2285
 6044TIP3   OH239622   0.678   1.976  14.254  0.0163 -0.0313  0.2230
 6044TIP3    H139623   0.607   2.025  14.296 -0.6709 -1.3985  0.7215
 6044TIP3    H239624   0.699   1.906  14.316  0.0807 -1.1375 -1.0036
 6045TIP3   OH239625   0.224   1.510  15.308  0.0941 -0.0383 -0.3716
 6045TIP3    H139626   0.259   1.437  15.256 -0.3582  0.1089 -0.8905
 6045TIP3    H239627   0.130   1.507  15.293 -0.0168  0.1641  0.2483
 6046TIP3   OH239628   3.879   4.761  15.002 -0.2941 -0.4103  0.3662
 6046TIP3    H139629   3.965   4.778  14.962  1.3560  1.6819  4.2823
 6046TIP3    H239630   3.895   4.689  15.064 -1.6876 -0.7741  0.3347
 6047TIP3   OH239631   1.851   0.063   3.824 -0.2139 -0.3024 -0.2783
 6047TIP3    H139632   1.844   0.069   3.920 -2.6855  0.8709 -0.4521
 6047TIP3    H239633   1.809  -0.020   3.802  1.1271 -0.9944 -0.3347
 6048TIP3   OH239634   4.059   5.331   0.003  0.2934 -0.3113  0.1756
 6048TIP3    H139635   4.065   5.345  -0.091 -0.0522  0.1128  0.2147
 6048TIP3    H239636   4.003   5.402   0.035  2.2804  0.9611  1.0158
 6049TIP3   OH239637   5.750   5.615   0.045 -0.1160 -0.4240 -0.2128
 6049TIP3    H139638   5.749   5.543   0.108  3.3812 -1.3115 -0.9649
 6049TIP3    H239639   5.767   5.693   0.098  0.4047 -0.8073  0.1914
 6050TIP3   OH239640   4.031   0.579  14.018 -0.2040  0.5466  0.2047
 6050TIP3    H139641   4.099   0.590  14.085 -1.4289 -0.6020  1.7209
 6050TIP3    H239642   3.982   0.661  14.021 -0.6698  0.2438  1.2336
 6051TIP3   OH239643   5.735   2.328   0.780  0.8841  0.3590 -0.9311
 6051TIP3    H139644   5.765   2.389   0.847  0.9547 -1.4071  0.7426
 6051TIP3    H239645   5.747   2.241   0.819 -2.3513 -0.6518 -1.8272
 6052TIP3   OH239646   2.190   1.138   5.529  0.0919 -0.4276  0.2487
 6052TIP3    H139647   2.240   1.144   5.610 -0.2954  0.2831  0.4504
 6052TIP3    H239648   2.138   1.219   5.528  0.9573  0.1558 -1.2774
 6053TIP3   OH239649   3.976   0.235  17.442  0.1871 -0.0807  0.1382
 6053TIP3    H139650   4.049   0.178  17.418  1.2232  1.0542  0.4779
 6053TIP3    H239651   3.901   0.176  17.452  0.8783 -1.1809 -0.9492
 6054TIP3   OH239652   1.099   2.547  11.025  0.0924  0.2329  1.1226
 6054TIP3    H139653   1.081   2.639  11.045  1.3869  0.6405  0.5027
 6054TIP3    H239654   1.106   2.505  11.111 -3.0282  0.1307  1.4347
 6055TIP3   OH239655   0.887   1.629   1.866  0.3036 -0.4308  0.1069
 6055TIP3    H139656   0.880   1.542   1.828 -2.5450  0.3734 -1.5574
 6055TIP3    H239657   0.854   1.618   1.956  1.3138 -1.2769  0.3899
 6056TIP3   OH239658   5.031   4.311  16.782  0.3359  0.0706 -0.1900
 6056TIP3    H139659   5.061   4.310  16.874  0.4080 -1.0879 -0.2069
 6056TIP3    H239660   5.083   4.242  16.740 -1.1002 -0.7569 -0.6460
 6057TIP3   OH239661   2.808   2.689  16.182 -0.1706  0.1349 -0.1859
 6057TIP3    H139662   2.814   2.752  16.110 -1.0059 -0.3226 -0.6811
 6057TIP3    H239663   2.759   2.735  16.250  3.2933  1.7333  1.4640
 6058TIP3   OH239664   3.967   0.759  12.210 -0.4522  0.6147 -0.1118
 6058TIP3    H139665   3.900   0.700  12.175  0.7833 -0.0009 -1.5354
 6058TIP3    H239666   3.929   0.847  12.200 -0.9131  0.3045 -1.2287
 6059TIP3   OH239667   0.321   1.228   0.657 -0.4477  0.3652  0.5124
 6059TIP3    H139668   0.306   1.322   0.653 -1.6175  0.1562 -0.9398
 6059TIP3    H239669   0.378   1.215   0.733 -0.7695  2.1636  1.0918
 6060TIP3   OH239670   2.830   3.730   2.552 -0.4193 -0.2009 -0.1131
 6060TIP3    H139671   2.739   3.703   2.555 -0.8868  1.2858  0.3891
 6060TIP3    H239672   2.831   3.805   2.492  0.1584  0.7841  1.0805
 6061TIP3   OH239673   3.005   0.554  15.852 -0.7566 -0.0767  0.0347
 6061TIP3    H139674   3.042   0.475  15.891  0.6359  0.3922 -0.2979
 6061TIP3    H239675   3.073   0.620  15.860 -2.2202  1.4000  1.1456
 6062TIP3   OH239676   2.407   6.408   1.734  0.5010 -0.4569  0.0820
 6062TIP3    H139677   2.449   6.494   1.736  1.1237 -0.6691 -1.5679
 6062TIP3    H239678   2.476   6.348   1.706 -0.3868 -1.1685 -0.6836
 6063TIP3   OH239679   0.413   4.214   2.202 -0.3792  0.1130 -0.2602
 6063TIP3    H139680   0.324   4.229   2.171 -0.5730 -1.1817 -0.3949
 6063TIP3    H239681   0.406   4.215   2.297 -0.8376 -1.4390 -0.2489
 6064TIP3   OH239682   5.378   4.221   3.789  0.4443 -0.1452  0.3795
 6064TIP3    H139683   5.286   4.209   3.811  0.5735  1.0391  1.6098
 6064TIP3    H239684   5.420   4.139   3.817 -0.1373 -0.4965  0.2460
 6065TIP3   OH239685   4.306   1.988   6.666 -0.4080  0.3324  0.1293
 6065TIP3    H139686   4.233   2.020   6.719  0.2916 -0.7242  1.8067
 6065TIP3    H239687   4.326   1.902   6.703  0.7457 -0.0246 -1.2531
 6066TIP3   OH239688   1.885   5.464  16.072  0.0092 -0.1146 -0.0153
 6066TIP3    H139689   1.879   5.558  16.056 -2.1576 -0.1306  0.5020
 6066TIP3    H239690   1.869   5.454  16.166 -4.2290 -1.2287 -0.6592
 6067TIP3   OH239691   2.566   0.983  16.604  0.1273  0.0657 -0.0869
 6067TIP3    H139692   2.604   0.908  16.559 -1.6681  0.0425 -1.6947
 6067TIP3    H239693   2.519   0.944  16.679 -0.9391 -0.4642 -1.0078
 6068TIP3   OH239694   6.103   1.098  17.083 -0.4027  0.2571 -0.3409
 6068TIP3    H139695   6.080   1.129  16.995  1.1489 -0.6242 -1.0885
 6068TIP3    H239696   6.045   1.024  17.099 -2.0264  1.5945  0.2066
 6069TIP3   OH239697   6.497   1.983  15.400 -0.1100  0.4299  0.4837
 6069TIP3    H139698   6.568   2.023  15.349 -0.6470  2.0954  0.9860
 6069TIP3    H239699   6.442   1.940  15.334 -0.1555  1.5516 -0.2339
 6070TIP3   OH239700   4.491   0.338  11.828  0.3059 -0.0953  0.8160
 6070TIP3    H139701   4.438   0.395  11.884  1.8441  0.7734  1.4410
 6070TIP3    H239702   4.542   0.399  11.774  1.8808 -0.8466  1.3948
 6071TIP3   OH239703   2.148   1.790   3.288 -0.4769  0.6219 -0.4536
 6071TIP3    H139704   2.130   1.698   3.268  0.7861  0.2859 -0.1200
 6071TIP3    H239705   2.087   1.812   3.358  0.4150 -0.4971  0.7140
 6072TIP3   OH239706   2.733   0.915   2.536  0.1540 -0.3631  0.4493
 6072TIP3    H139707   2.800   0.918   2.605 -0.2012 -1.1536  0.8397
 6072TIP3    H239708   2.689   0.831   2.549 -0.8202  0.0833  0.1071
 6073TIP3   OH239709   0.721   0.357  16.507  0.2380 -0.0126  0.2344
 6073TIP3    H139710   0.748   0.276  16.463  2.1985  1.4866 -1.5709
 6073TIP3    H239711   0.757   0.348  16.596  1.4876 -0.6534 -0.3005
 6074TIP3   OH239712   5.130   1.785  17.215  0.1800 -0.4374 -1.0077
 6074TIP3    H139713   5.113   1.771  17.122 -1.7647  1.5121 -1.0317
 6074TIP3    H239714   5.200   1.851  17.217  0.3267 -0.5919 -1.0966
 6075TIP3   OH239715   4.292   6.188  16.663 -0.1352 -0.1376  0.7187
 6075TIP3    H139716   4.294   6.153  16.752  0.6562  1.1277  1.2242
 6075TIP3    H239717   4.290   6.283  16.674 -2.3686  0.0402 -0.6063
 6076TIP3   OH239718   4.814   0.067  10.681 -0.0975  0.1203 -0.1887
 6076TIP3    H139719   4.861   0.009  10.622 -3.5413 -0.0830 -3.0128
 6076TIP3    H239720   4.736   0.019  10.706 -1.8378  2.5361 -0.6004
 6077TIP3   OH239721   2.891   6.203  16.421 -0.3239 -0.4849  0.1671
 6077TIP3    H139722   2.848   6.274  16.469  0.2658  1.4201 -1.9333
 6077TIP3    H239723   2.820   6.157  16.378 -0.6267 -0.5536  0.7245
 6078TIP3   OH239724   6.041   3.712  16.442 -0.3427 -0.3498 -0.2150
 6078TIP3    H139725   6.116   3.765  16.415 -1.1582  0.7622 -0.3699
 6078TIP3    H239726   5.996   3.766  16.507 -1.4668 -0.6356 -0.7368
 6079TIP3   OH239727   4.311   2.855  10.981  0.0207 -0.1097 -0.1339
 6079TIP3    H139728   4.400   2.879  10.956  0.5322 -1.5351  0.1678
 6079TIP3    H239729   4.303   2.883  11.072 -0.2518  1.0245 -0.4922
 6080TIP3   OH239730   6.006   5.646  13.618 -0.6992  0.4338  0.2539
 6080TIP3    H139731   5.917   5.644  13.583  0.1295 -1.2170 -1.9596
 6080TIP3    H239732   6.041   5.559  13.601  1.7153  1.3682 -0.0154
 6081TIP3   OH239733   2.917   0.476  12.669  0.4334  0.4366  0.6333
 6081TIP3    H139734   2.878   0.514  12.748 -0.4632  0.9482 -0.0338
 6081TIP3    H239735   2.843   0.454  12.614  1.0247  2.7807 -1.2963
 6082TIP3   OH239736   4.815   2.546   2.681 -0.2890 -0.1528 -0.7890
 6082TIP3    H139737   4.822   2.609   2.752  2.7934 -1.4700  0.2461
 6082TIP3    H239738   4.775   2.596   2.609  1.4729  2.8439  0.1329
 6083TIP3   OH239739   6.352   1.271   4.297  0.1844  0.8099  0.2961
 6083TIP3    H139740   6.438   1.260   4.255 -0.3550 -1.5249 -0.3322
 6083TIP3    H239741   6.372   1.303   4.385  1.7128  0.2957  0.1647
 6084TIP3   OH239742   4.705   4.614   2.792  0.7320  0.1249 -0.1735
 6084TIP3    H139743   4.720   4.529   2.834 -1.6562 -0.6121 -0.6596
 6084TIP3    H239744   4.763   4.674   2.838  1.6286 -1.5470  0.9840
 6085TIP3   OH239745   4.372   2.193   4.537  0.2771 -0.6793  0.2427
 6085TIP3    H139746   4.401   2.136   4.466  1.0778 -1.9359  1.5196
 6085TIP3    H239747   4.385   2.282   4.504  0.3195 -1.2242 -1.2815
 6086TIP3   OH239748   2.722   5.917   0.101  0.1340  0.3543 -0.2184
 6086TIP3    H139749   2.805   5.872   0.086  0.3131  0.9896 -1.2338
 6086TIP3    H239750   2.680   5.867   0.171  0.3242 -1.4228 -1.3005
 6087TIP3   OH239751   0.568   6.182   0.078 -0.1279  0.0416 -0.2201
 6087TIP3    H139752   0.515   6.169  -0.001 -0.7863 -0.7221  0.3311
 6087TIP3    H239753   0.513   6.235   0.136  0.2844  0.4509 -0.1921
 6088TIP3   OH239754   4.115   3.088   3.992 -0.7218 -0.3336  0.1580
 6088TIP3    H139755   4.192   3.121   4.039 -0.0219 -0.0675 -1.1082
 6088TIP3    H239756   4.107   3.146   3.916 -0.9195 -1.6136 -0.8302
 6089TIP3   OH239757   1.171   3.261  13.805  0.5980  0.3421  0.3528
 6089TIP3    H139758   1.246   3.239  13.749  1.1156 -1.0364  1.5299
 6089TIP3    H239759   1.209   3.309  13.878  0.3258 -0.2415  0.8874
 6090TIP3   OH239760   4.642   4.323  11.325 -0.1045  0.0634  0.1176
 6090TIP3    H139761   4.573   4.388  11.312  1.9466  2.2260 -0.5058
 6090TIP3    H239762   4.652   4.281  11.240 -0.1637  0.2606  0.0123
 6091TIP3   OH239763   1.297   6.218   0.863 -0.0176  0.5924  0.0410
 6091TIP3    H139764   1.319   6.267   0.784 -0.4891 -1.3358 -1.3434
 6091TIP3    H239765   1.375   6.225   0.918  0.8006  0.9366 -1.1177
 6092TIP3   OH239766   4.725   4.035   1.313  0.0666  0.2066  0.7142
 6092TIP3    H139767   4.694   3.973   1.247 -0.9475  0.0922  1.2652
 6092TIP3    H239768   4.721   4.120   1.270  1.0508 -0.0441  0.0930
 6093TIP3   OH239769   5.097   6.679   1.756  0.1506  0.2514  0.2757
 6093TIP3    H139770   5.141   6.597   1.777  0.0420  0.2728  0.5843
 6093TIP3    H239771   5.167   6.745   1.761 -0.1162  0.4486  1.8349
 6094TIP3   OH239772   4.154   5.947   2.310  0.0722  0.5688  0.3613
 6094TIP3    H139773   4.209   6.025   2.322 -0.5208  0.9336  0.7443
 6094TIP3    H239774   4.143   5.941   2.215  1.5879 -0.0952  0.1997
 6095TIP3   OH239775   6.608   3.271   4.895  0.5297  0.6684 -0.0306
 6095TIP3    H139776   6.663   3.318   4.832 -0.9282  1.0528 -1.0937
 6095TIP3    H239777   6.530   3.327   4.904 -0.5045 -0.7303 -0.0150
 6096TIP3   OH239778   6.034   3.698   2.528  0.0467  0.1965  0.7058
 6096TIP3    H139779   6.042   3.737   2.441  1.0016 -0.1645  0.6226
 6096TIP3    H239780   6.121   3.703   2.565 -0.0367 -0.9103  1.0966
 6097TIP3   OH239781   0.655   0.949  15.930  0.9489 -0.2978  0.0528
 6097TIP3    H139782   0.671   0.954  16.024  2.2187 -0.7058 -0.1150
 6097TIP3    H239783   0.613   1.032  15.908 -0.1638 -0.5586  1.1099
 6098TIP3   OH239784   4.296   1.871  17.222  0.1331 -0.3371  0.0611
 6098TIP3    H139785   4.367   1.849  17.282  0.3962 -0.3326 -0.2433
 6098TIP3    H239786   4.335   1.862  17.135 -0.0670  0.2303 -0.0957
 6099TIP3   OH239787   3.470   3.553   6.618  0.0266 -0.0191  0.1158
 6099TIP3    H139788   3.501   3.535   6.529  0.3146 -1.2129  0.4344
 6099TIP3    H239789   3.515   3.633   6.644 -0.5535  0.7001 -1.0368
 6100TIP3   OH239790   0.417   0.348   6.675 -0.1678  0.4797  0.1191
 6100TIP3    H139791   0.469   0.401   6.735  0.3176 -1.8337  1.8468
 6100TIP3    H239792   0.471   0.341   6.596  2.2059 -1.6907  1.7867
 6101TIP3   OH239793   2.248   3.497   5.226 -0.1468  0.3874 -0.1138
 6101TIP3    H139794   2.324   3.520   5.280 -0.7519 -1.4268  1.6493
 6101TIP3    H239795   2.278   3.423   5.173  0.0864  1.4052 -1.4287
 6102TIP3   OH239796   1.672   2.217   6.127 -0.4272  0.2183 -0.8439
 6102TIP3    H139797   1.621   2.243   6.050 -0.5951 -1.5844 -1.4051
 6102TIP3    H239798   1.747   2.169   6.091 -1.0304 -1.5289  0.0973
 6103TIP3   OH239799   1.406   6.323  12.054 -0.2309 -0.4830 -0.5800
 6103TIP3    H139800   1.425   6.383  12.125  2.9484 -0.1557 -1.5536
 6103TIP3    H239801   1.491   6.307  12.013 -1.7413 -1.6293 -3.5350
 6104TIP3   OH239802   3.133   4.427  17.558  0.5122  0.2000 -0.0821
 6104TIP3    H139803   3.101   4.478  17.632 -0.6115 -1.7092  0.8424
 6104TIP3    H239804   3.198   4.483  17.515 -0.7467  2.3935  0.7569
 6105TIP3   OH239805   3.661   6.226   1.596  0.3514  0.0421  0.1735
 6105TIP3    H139806   3.605   6.223   1.519 -0.6477  2.2591  0.7190
 6105TIP3    H239807   3.743   6.262   1.564  0.4637 -0.4687 -0.1196
 6106TIP3   OH239808   3.788   5.381  11.625  0.0649  0.0506  0.2960
 6106TIP3    H139809   3.822   5.451  11.680  0.7157  1.9294 -2.2687
 6106TIP3    H239810   3.751   5.427  11.549  1.7393 -2.3665 -2.1696
 6107TIP3   OH239811   1.121   3.289  14.661 -0.1519 -0.4375 -0.5860
 6107TIP3    H139812   1.138   3.204  14.702 -0.9326 -0.7870 -0.9659
 6107TIP3    H239813   1.184   3.294  14.590  0.1394 -0.5425 -0.3349
 6108TIP3   OH239814   2.495   0.864  15.093  0.3045 -0.2993 -0.0184
 6108TIP3    H139815   2.530   0.897  15.010 -0.0857 -3.4399 -1.5446
 6108TIP3    H239816   2.419   0.919  15.111  0.3160  0.3557 -1.8101
 6109TIP3   OH239817   6.269   6.385   5.037  0.3968  0.7588  0.0131
 6109TIP3    H139818   6.203   6.348   5.096  0.8879  2.1926  1.5331
 6109TIP3    H239819   6.221   6.448   4.984  0.2812  0.7421  0.0966
 6110TIP3   OH239820   0.666   2.645   2.300 -0.3359  0.8445 -0.1188
 6110TIP3    H139821   0.685   2.616   2.389  0.8857  1.7248 -0.0642
 6110TIP3    H239822   0.640   2.565   2.254 -0.5321  0.3020  0.9059
 6111TIP3   OH239823   4.027   1.017  15.331  0.5453 -0.6676 -0.1603
 6111TIP3    H139824   3.980   0.934  15.342 -0.0258 -0.5572 -1.6092
 6111TIP3    H239825   3.967   1.083  15.363 -0.4899 -0.4924 -2.3305
 6112TIP3   OH239826   1.812   5.181  16.058 -0.0470  0.0913 -0.1916
 6112TIP3    H139827   1.824   5.271  16.089 -0.7751  0.3940 -0.7387
 6112TIP3    H239828   1.887   5.165  16.000 -1.0006  1.1536 -1.8282
 6113TIP3   OH239829   4.293   1.024   1.990  0.5698 -0.6843 -0.0148
 6113TIP3    H139830   4.379   0.992   1.962  0.2415  0.2792 -2.4064
 6113TIP3    H239831   4.301   1.037   2.084  2.6055 -1.9028  0.0325
 6114TIP3   OH239832   4.581   6.232   1.642 -0.0551 -0.1685  0.2823
 6114TIP3    H139833   4.494   6.205   1.613 -0.9170  2.8299 -0.2567
 6114TIP3    H239834   4.571   6.246   1.736  0.5586 -2.1026  0.6804
 6115TIP3   OH239835   2.257   3.696  12.424 -0.0857 -0.3997  0.0381
 6115TIP3    H139836   2.343   3.659  12.402  0.3040  0.8349 -0.6656
 6115TIP3    H239837   2.194   3.638  12.382  0.3626 -1.5694  0.9231
 6116TIP3   OH239838   6.661   5.828  13.364  0.2281 -0.5830 -0.2145
 6116TIP3    H139839   6.688   5.762  13.301  0.8538 -1.6511  1.1154
 6116TIP3    H239840   6.650   5.908  13.313  1.7146 -1.1600 -1.4925
 6117TIP3   OH239841   0.448   6.012  16.299 -0.0508 -0.5486 -0.0808
 6117TIP3    H139842   0.438   6.085  16.359 -0.0297 -1.1456  0.6561
 6117TIP3    H239843   0.367   5.961  16.310 -0.1055 -0.5932 -0.6510
 6118TIP3   OH239844   2.561   5.946  14.318 -0.0719  0.3200 -0.1312
 6118TIP3    H139845   2.580   5.854  14.336 -0.3536  0.2800 -0.0213
 6118TIP3    H239846   2.608   5.965  14.237  0.9110  0.3963  0.4483
 6119TIP3   OH239847   5.115   4.463  12.511  0.1132  0.1765  0.6612
 6119TIP3    H139848   5.100   4.544  12.560  0.5125 -0.0604  1.1832
 6119TIP3    H239849   5.191   4.483  12.455 -0.3076  0.4281  0.1706
 6120TIP3   OH239850   1.091   6.375  17.017 -0.0593 -0.8010 -0.4067
 6120TIP3    H139851   1.157   6.306  17.012 -1.0913 -1.8085 -0.3803
 6120TIP3    H239852   1.112   6.423  17.097 -0.7680 -2.6171  0.9167
 6121TIP3   OH239853   6.390   5.689  15.007  0.2055 -0.8037 -0.0922
 6121TIP3    H139854   6.423   5.729  14.927  0.6569 -0.2082  0.3841
 6121TIP3    H239855   6.418   5.597  15.001  0.6418 -0.6530 -0.4026
 6122TIP3   OH239856   1.394   2.885   2.040 -0.3280  0.4522 -0.4958
 6122TIP3    H139857   1.461   2.952   2.034 -1.6989  1.9240 -0.1972
 6122TIP3    H239858   1.429   2.822   2.103  0.1419  1.9977  0.8867
 6123TIP3   OH239859   4.473   1.799   0.397  0.1911 -0.4528 -0.5327
 6123TIP3    H139860   4.429   1.745   0.463 -0.5552  1.4807  0.6519
 6123TIP3    H239861   4.401   1.836   0.345  0.4757  1.2011  0.1837
 6124TIP3   OH239862   1.121   2.194   0.363 -0.1743  0.2957 -0.0689
 6124TIP3    H139863   1.164   2.110   0.380 -0.7826  0.2994  1.6149
 6124TIP3    H239864   1.100   2.192   0.269  0.9110 -0.9046 -0.3020
 6125TIP3   OH239865   2.002   2.203   1.101 -0.3185  0.0773 -0.1348
 6125TIP3    H139866   2.003   2.295   1.125  0.2508  0.0099  0.1235
 6125TIP3    H239867   2.059   2.160   1.166 -0.5086 -0.4382 -0.2995
 6126TIP3   OH239868   3.177   4.080   2.039 -0.3418  0.0327 -0.1731
 6126TIP3    H139869   3.083   4.081   2.021 -0.3558  1.3880 -0.1594
 6126TIP3    H239870   3.196   4.168   2.072  0.8916 -0.2947  0.0446
 6127TIP3   OH239871   4.608   2.486  16.233 -0.2729 -0.0331  0.2420
 6127TIP3    H139872   4.516   2.501  16.213 -0.3588  0.1671  0.7905
 6127TIP3    H239873   4.618   2.511  16.325  0.3735  0.1580  0.1288
 6128TIP3   OH239874   1.939   5.520   3.124  0.3012  0.4498 -0.4002
 6128TIP3    H139875   2.021   5.472   3.134  0.5064  0.4822 -1.7095
 6128TIP3    H239876   1.951   5.598   3.178  0.3590 -0.4489  0.9370
 6129TIP3   OH239877   4.422   2.421  11.379  0.2007 -0.2057  0.2982
 6129TIP3    H139878   4.470   2.501  11.397  0.2559 -0.4957  1.5456
 6129TIP3    H239879   4.352   2.447  11.319  0.2893  0.7574  0.6094
 6130TIP3   OH239880   0.333   3.058  15.283 -0.0957 -0.0340 -0.4203
 6130TIP3    H139881   0.419   3.047  15.324  0.1757  1.1850 -0.6355
 6130TIP3    H239882   0.285   2.979  15.308  0.7842 -0.3178  0.4545
 6131TIP3   OH239883   2.686   1.497  11.538  0.0919 -0.4658 -0.2596
 6131TIP3    H139884   2.742   1.498  11.615  0.3193  0.3198 -0.4285
 6131TIP3    H239885   2.726   1.430  11.481  1.1603  0.4227 -0.5894
 6132TIP3   OH239886   6.239   5.883   3.398 -0.3002 -0.7412 -0.0137
 6132TIP3    H139887   6.247   5.794   3.365  3.0631 -0.5757  0.0363
 6132TIP3    H239888   6.280   5.880   3.485 -0.8133  0.7042  0.3049
 6133TIP3   OH239889   6.219   1.723  11.737 -0.1484 -0.2156  0.3615
 6133TIP3    H139890   6.297   1.694  11.689 -0.4713 -0.3741 -0.0774
 6133TIP3    H239891   6.233   1.816  11.752  0.9237 -0.5754  1.8145
 6134TIP3   OH239892   4.559   3.390   5.874  0.3811 -0.3854  0.0109
 6134TIP3    H139893   4.467   3.378   5.898  0.3529  0.4231  0.3383
 6134TIP3    H239894   4.556   3.437   5.790  0.4899  0.0678  0.2560
 6135TIP3   OH239895   4.139   4.967   2.622  0.1158 -0.3088 -0.0736
 6135TIP3    H139896   4.159   4.884   2.579  0.5264 -0.2841  0.0665
 6135TIP3    H239897   4.049   4.957   2.652 -0.0463 -0.4690 -0.6010
 6136TIP3   OH239898   1.730   4.837   1.977  0.0993 -0.4122 -0.9309
 6136TIP3    H139899   1.722   4.825   2.071  0.1497  0.9938 -0.7228
 6136TIP3    H239900   1.747   4.749   1.942 -2.5927 -1.4173  0.0536
 6137TIP3   OH239901   2.520   3.740   2.272 -0.0129 -0.3418  0.5119
 6137TIP3    H139902   2.459   3.678   2.231 -1.8003  0.7960  1.3830
 6137TIP3    H239903   2.518   3.719   2.365  0.8294 -0.1734  0.5823
 6138TIP3   OH239904   0.709   5.803  11.522 -0.0907 -0.3121 -0.5769
 6138TIP3    H139905   0.719   5.728  11.581 -0.1190 -0.0504 -0.2361
 6138TIP3    H239906   0.761   5.780  11.445  0.3909 -0.4268 -0.2271
 6139TIP3   OH239907   4.203   6.120  16.974 -0.2576 -0.0025  0.2236
 6139TIP3    H139908   4.149   6.169  16.912 -0.7052 -1.0897 -0.2757
 6139TIP3    H239909   4.140   6.079  17.034 -0.2941 -3.2091 -1.7597
 6140TIP3   OH239910   0.463   2.483   2.151 -0.4743  0.2792 -0.0027
 6140TIP3    H139911   0.479   2.396   2.113 -0.3098  0.3719 -0.1493
 6140TIP3    H239912   0.444   2.539   2.075  1.5736  0.8572 -0.1494
 6141TIP3   OH239913   6.437   6.080  11.790 -0.2669  0.0255 -0.1471
 6141TIP3    H139914   6.460   6.021  11.862  2.1085  0.4336 -0.5011
 6141TIP3    H239915   6.390   6.024  11.728  0.1657 -1.0187  0.4412
 6142TIP3   OH239916   1.820   4.902   3.970  0.3470 -0.1560 -0.0824
 6142TIP3    H139917   1.762   4.827   3.981 -0.2100  0.3155  0.2853
 6142TIP3    H239918   1.825   4.941   4.058  0.2780  0.4815 -0.3518
 6143TIP3   OH239919   1.579   5.604   4.232 -0.8333 -0.0974  0.5999
 6143TIP3    H139920   1.497   5.654   4.231 -0.6133  0.2750 -0.8061
 6143TIP3    H239921   1.633   5.646   4.166 -0.1675 -1.4310  0.2668
 6144TIP3   OH239922   2.287   0.618   4.547 -0.4110 -0.3942 -0.5329
 6144TIP3    H139923   2.311   0.700   4.590 -0.4204 -0.3039 -0.6970
 6144TIP3    H239924   2.329   0.623   4.461  1.1386 -1.3596  0.1080
 6145TIP3   OH239925   6.317   0.102  15.849 -0.1951 -0.2251  0.2616
 6145TIP3    H139926   6.354   0.157  15.918 -0.1531 -1.2047  1.0489
 6145TIP3    H239927   6.227   0.086  15.877 -0.0715 -0.9135  0.2829
 6146TIP3   OH239928   2.072   3.433  12.620  0.4767  0.1695  0.2788
 6146TIP3    H139929   1.981   3.405  12.623 -0.0696  1.8814  0.9496
 6146TIP3    H239930   2.084   3.466  12.531  1.7300 -3.7714 -1.2567
 6147TIP3   OH239931   0.153   5.195  10.586  0.7172  0.6560  0.0242
 6147TIP3    H139932   0.147   5.205  10.491 -0.2102  1.1908  0.1231
 6147TIP3    H239933   0.207   5.117  10.599  1.3555  0.9187 -0.9270
 6148TIP3   OH239934   5.685   2.638   4.602 -0.0587 -0.6813 -0.2548
 6148TIP3    H139935   5.610   2.602   4.649 -1.2037 -0.1365 -1.6059
 6148TIP3    H239936   5.680   2.732   4.617 -0.0300 -0.5772 -0.8665
 6149TIP3   OH239937   2.764   0.670  13.967 -0.0964  0.2069  0.3344
 6149TIP3    H139938   2.757   0.593  14.023  0.0319  1.1057  1.6248
 6149TIP3    H239939   2.829   0.646  13.901 -0.2893 -0.8938  0.5284
 6150TIP3   OH239940   2.204   1.372   2.266 -0.7179 -0.1745  0.0343
 6150TIP3    H139941   2.132   1.327   2.312 -0.9593  0.0745 -0.1015
 6150TIP3    H239942   2.172   1.385   2.177  0.7850 -3.2009 -1.1120
 6151TIP3   OH239943   2.518   3.655   4.330  0.7249 -0.1326 -0.2304
 6151TIP3    H139944   2.423   3.653   4.320  0.7038  0.5720 -0.1978
 6151TIP3    H239945   2.548   3.725   4.272  1.2375 -0.4364 -0.3406
 6152TIP3   OH239946   0.678   0.623   0.157 -0.1945 -0.2866 -0.2249
 6152TIP3    H139947   0.669   0.581   0.072 -0.7762 -0.5680 -0.0321
 6152TIP3    H239948   0.635   0.563   0.218 -2.6627  1.3513 -0.1987
 6153TIP3   OH239949   4.754   5.541   1.547 -0.5469  0.4655  0.3252
 6153TIP3    H139950   4.842   5.543   1.509 -0.0476 -0.5385  1.3515
 6153TIP3    H239951   4.699   5.505   1.477  0.4495 -1.8473  0.6126
 6154TIP3   OH239952   4.573   4.652  14.211  0.2405  0.2000 -0.3892
 6154TIP3    H139953   4.493   4.690  14.175  1.2233  2.5743 -0.2120
 6154TIP3    H239954   4.597   4.583  14.149 -1.0917  0.4989 -1.2725
 6155TIP3   OH239955   5.878   2.240   3.710  1.0174 -0.1582  0.1873
 6155TIP3    H139956   5.904   2.325   3.746  0.5142 -0.5066  1.4416
 6155TIP3    H239957   5.931   2.229   3.632  1.6792  0.9490  0.4636
 6156TIP3   OH239958   3.969   2.001  16.999  0.1774 -0.2689 -0.3878
 6156TIP3    H139959   4.003   2.089  16.980 -0.7818  0.5875  1.6131
 6156TIP3    H239960   3.981   1.990  17.093 -0.8229 -1.8164 -0.4041
 6157TIP3   OH239961   2.456   5.949  11.560 -0.0766  0.6821  0.2897
 6157TIP3    H139962   2.522   5.959  11.490 -0.9686  1.2628 -0.4914
 6157TIP3    H239963   2.387   5.897  11.520  0.9754 -2.1849  1.8882
 6158TIP3   OH239964   2.215   3.764   1.342  0.2529 -0.2308  0.1547
 6158TIP3    H139965   2.156   3.792   1.413 -1.7209 -2.1466 -0.5977
 6158TIP3    H239966   2.209   3.833   1.277 -0.1751  0.2083  0.6523
 6159TIP3   OH239967   1.611   2.454  16.391  0.1566  0.7276 -0.0504
 6159TIP3    H139968   1.526   2.437  16.433  0.4071 -0.2562  0.0846
 6159TIP3    H239969   1.670   2.388  16.428  0.3282 -0.3481 -2.1017
 6160TIP3   OH239970   1.699   4.480  14.656 -0.5022  0.0142 -0.3744
 6160TIP3    H139971   1.792   4.494  14.674 -0.9241 -0.8054  3.3107
 6160TIP3    H239972   1.698   4.414  14.586  1.6975 -0.1251 -0.3437
 6161TIP3   OH239973   4.277   3.436   5.879 -0.5201  0.4027  0.3022
 6161TIP3    H139974   4.234   3.484   5.950 -1.8006 -0.5757  0.2440
 6161TIP3    H239975   4.295   3.349   5.917  0.1870  0.3659 -0.1037
 6162TIP3   OH239976   2.250   4.959   5.095  0.3747 -0.3155 -0.5354
 6162TIP3    H139977   2.175   4.933   5.148  0.9437  1.0502  1.0190
 6162TIP3    H239978   2.324   4.910   5.130  0.9792  1.4436  0.8070
 6163TIP3   OH239979   2.759   6.001  13.933  0.2350 -0.0469 -0.2695
 6163TIP3    H139980   2.787   5.912  13.957 -1.2446 -1.1133 -2.2487
 6163TIP3    H239981   2.706   5.989  13.854 -1.8002  2.3699  0.6055
 6164TIP3   OH239982   4.679   0.976   3.802  0.2999  0.3110 -0.5213
 6164TIP3    H139983   4.771   0.984   3.825  0.2699 -3.0226  1.3859
 6164TIP3    H239984   4.632   1.007   3.879 -0.0472 -0.9288 -0.2073
 6165TIP3   OH239985   3.338   1.188  14.449 -0.2680 -0.0899  0.6368
 6165TIP3    H139986   3.425   1.180  14.411 -0.0562 -2.2628  1.4224
 6165TIP3    H239987   3.290   1.245  14.389  1.5178  0.7099 -0.0883
 6166TIP3   OH239988   5.440   0.945  12.770 -1.2712  0.0957 -0.3813
 6166TIP3    H139989   5.504   0.901  12.714 -1.2917 -2.1082  1.1711
 6166TIP3    H239990   5.392   1.003  12.712  1.9947  1.7837 -1.6592
 6167TIP3   OH239991   3.133   1.818   1.534 -0.3088  0.2758 -0.5119
 6167TIP3    H139992   3.226   1.839   1.540 -0.1856  0.8286 -3.1493
 6167TIP3    H239993   3.108   1.846   1.446 -2.5574 -1.5117 -0.5229
 6168TIP3   OH239994   5.212   5.806   3.847  0.3758  0.3552  0.3947
 6168TIP3    H139995   5.142   5.773   3.790  0.9801 -0.4605  0.0922
 6168TIP3    H239996   5.228   5.895   3.816  1.0721 -0.2590 -1.1260
 6169TIP3   OH239997   6.719   2.760  14.401 -0.4563 -0.3902  0.2082
 6169TIP3    H139998   6.740   2.775  14.493  0.0463 -0.4804  0.1120
 6169TIP3    H239999   6.791   2.706  14.369 -0.1740  0.3634 -0.4521
 6170TIP3   OH240000   3.343   1.640   3.560  0.1032  0.2200  0.0198
 6170TIP3    H140001   3.414   1.636   3.624 -0.3186 -0.0473  0.4801
 6170TIP3    H240002   3.385   1.622   3.476  1.0359  2.6099 -0.0954
 6171TIP3   OH240003   3.888   2.530   4.547 -0.3506  0.2449 -0.4516
 6171TIP3    H140004   3.801   2.549   4.583  0.7056  3.5756  0.7170
 6171TIP3    H240005   3.893   2.583   4.468  0.7563  0.4227 -0.2713
 6172TIP3   OH240006   0.237   3.593   0.594  0.0193 -0.5185 -0.0181
 6172TIP3    H140007   0.220   3.616   0.685 -0.3884 -2.6308  0.4883
 6172TIP3    H240008   0.326   3.558   0.593  0.5236  0.7112 -0.7125
 6173TIP3   OH240009   2.620   5.832   5.637  0.8373  0.0015  0.1609
 6173TIP3    H140010   2.711   5.852   5.619  0.8955  0.4338  0.8977
 6173TIP3    H240011   2.623   5.771   5.711  0.6388 -2.3112 -1.6451
 6174TIP3   OH240012   5.964   1.467  16.576  0.1394  0.6843 -0.3208
 6174TIP3    H140013   5.938   1.452  16.666 -1.2533  1.5827 -0.5507
 6174TIP3    H240014   5.949   1.383  16.532 -0.2801  0.5695  0.0347
 6175TIP3   OH240015   2.427   2.290   0.275 -0.2833  0.3437  0.2335
 6175TIP3    H140016   2.392   2.271   0.362  1.1958  0.8859  0.9865
 6175TIP3    H240017   2.371   2.241   0.215 -1.7444  0.4772  1.4308
 6176TIP3   OH240018   3.158   4.898   4.058  0.0580  0.1065  0.0287
 6176TIP3    H140019   3.203   4.918   4.140 -0.2245  0.1320  0.1768
 6176TIP3    H240020   3.066   4.891   4.082  0.0938 -0.9548 -0.0987
 6177TIP3   OH240021   6.291   4.024  15.932 -0.3311  0.5938  0.1075
 6177TIP3    H140022   6.228   3.958  15.905  0.5077 -0.2199  0.1054
 6177TIP3    H240023   6.267   4.046  16.022  1.4704 -2.3379  1.4547
 6178TIP3   OH240024   0.696   2.312  16.013 -0.2908  0.2208 -0.4102
 6178TIP3    H140025   0.634   2.355  15.954 -1.5545  1.3489  1.6337
 6178TIP3    H240026   0.659   2.225  16.027 -0.5905  0.3406 -0.4340
 6179TIP3   OH240027   0.064   6.480   1.866  0.3378  0.2769 -0.7510
 6179TIP3    H140028   0.136   6.519   1.815  4.1599 -3.1658  1.3854
 6179TIP3    H240029   0.053   6.540   1.940  2.8884 -0.2136  0.1449
 6180TIP3   OH240030   4.228   3.502   3.888  0.2124  0.4930 -0.7146
 6180TIP3    H140031   4.200   3.590   3.863 -0.0477 -0.1730 -3.0458
 6180TIP3    H240032   4.230   3.503   3.983  1.0827  3.2763 -0.6780
 6181TIP3   OH240033   0.489   2.786   5.811  0.2208 -0.0126 -0.4469
 6181TIP3    H140034   0.428   2.821   5.746  0.7531  0.1729 -0.8594
 6181TIP3    H240035   0.530   2.711   5.767  0.8271  0.3149 -0.4635
 6182TIP3   OH240036   3.131   1.439  12.717  0.0920 -0.0887  0.2811
 6182TIP3    H140037   3.092   1.378  12.780 -0.0041  0.9176  1.2413
 6182TIP3    H240038   3.059   1.467  12.661 -0.6380  1.6816  1.9802
 6183TIP3   OH240039   5.358   4.925  14.216 -0.0662 -0.0377 -0.0135
 6183TIP3    H140040   5.390   4.871  14.144 -0.2869  0.5973 -0.6038
 6183TIP3    H240041   5.263   4.914  14.214 -0.0460 -0.3515  0.4628
 6184TIP3   OH240042   4.785   2.039  14.395  0.5934 -0.0837  0.7053
 6184TIP3    H140043   4.852   2.005  14.335 -0.4088  0.4930 -0.7966
 6184TIP3    H240044   4.823   2.120  14.430  1.0442 -0.2298  0.5622
 6185TIP3   OH240045   6.663   4.606  12.378  0.0124 -0.3683 -0.5308
 6185TIP3    H140046   6.685   4.531  12.323  2.0401  0.7899 -1.4427
 6185TIP3    H240047   6.745   4.626  12.424 -0.3574  1.4981 -0.6167
 6186TIP3   OH240048   2.859   2.594   1.205  1.1581 -0.5588  0.1112
 6186TIP3    H140049   2.900   2.581   1.291  0.6182 -0.0979  0.4511
 6186TIP3    H240050   2.900   2.529   1.148  0.8458 -1.5095  0.9507
 6187TIP3   OH240051   4.691   3.547   1.137 -0.5101 -0.6540 -0.1340
 6187TIP3    H140052   4.679   3.486   1.065  1.2924 -0.8965 -0.2857
 6187TIP3    H240053   4.664   3.499   1.215 -0.2170 -1.2434 -0.3892
 6188TIP3   OH240054   3.612   6.361  13.213 -0.6465  0.1655  0.1612
 6188TIP3    H140055   3.643   6.451  13.209 -1.0958  0.3079 -0.1118
 6188TIP3    H240056   3.633   6.332  13.302  0.0189  0.3474  0.0660
 6189TIP3   OH240057   3.962   4.101  12.403 -0.5375 -0.2789  0.0498
 6189TIP3    H140058   3.942   4.151  12.482 -0.8192 -1.6141  0.8619
 6189TIP3    H240059   3.881   4.103  12.352 -0.4004  0.4638 -0.1539
 6190TIP3   OH240060   3.043   5.874  16.313 -0.3155  0.0931 -0.9570
 6190TIP3    H140061   3.113   5.809  16.312 -0.7217 -0.3395 -2.1072
 6190TIP3    H240062   2.994   5.858  16.233  0.4975  2.8235 -2.1281
 6191TIP3   OH240063   0.969   5.536  15.920 -0.1122  0.7314  0.1072
 6191TIP3    H140064   0.964   5.481  15.842 -0.8350 -0.1853  0.7724
 6191TIP3    H240065   0.918   5.614  15.897 -2.0389 -0.4002  0.3089
 6192TIP3   OH240066   4.135   2.567  13.397  0.9319 -0.2026 -0.4627
 6192TIP3    H140067   4.110   2.623  13.470  2.6676 -1.0047  0.8410
 6192TIP3    H240068   4.069   2.497  13.396 -0.5014  1.1053 -1.2879
 6193TIP3   OH240069   6.294   3.958  12.319 -0.2140  0.2822  0.2581
 6193TIP3    H140070   6.208   3.917  12.328 -0.7256  1.0832 -0.8246
 6193TIP3    H240071   6.284   4.020  12.247  0.8083  1.6277  1.2375
 6194TIP3   OH240072   5.404   0.031  15.025  0.2220  0.8762 -0.2486
 6194TIP3    H140073   5.421  -0.061  15.048 -1.4455  0.8733  1.1163
 6194TIP3    H240074   5.342   0.025  14.952  0.2217  0.9134 -0.2508
 6195TIP3   OH240075   5.339   2.607  15.715 -0.2182  0.2108 -0.2507
 6195TIP3    H140076   5.268   2.560  15.760 -0.7032  0.7385 -0.4631
 6195TIP3    H240077   5.336   2.575  15.625 -0.4836  0.5622 -0.3705
 6196TIP3   OH240078   5.812   1.786   3.514 -0.0748  0.1485  0.6036
 6196TIP3    H140079   5.720   1.788   3.543  0.1654  0.2029  1.3840
 6196TIP3    H240080   5.830   1.876   3.487 -0.1918  0.1796  0.6271
 6197TIP3   OH240081   2.206   0.905  12.082 -0.6282 -0.1055 -0.3461
 6197TIP3    H140082   2.285   0.933  12.129 -0.5410 -0.1690 -0.4534
 6197TIP3    H240083   2.135   0.921  12.143 -0.5572  0.1625 -0.3313
 6198TIP3   OH240084   0.212   4.389   4.692  0.1282  0.6482  0.0856
 6198TIP3    H140085   0.258   4.381   4.608  0.1368  1.4195  0.0107
 6198TIP3    H240086   0.278   4.426   4.751 -0.1628  1.0012  0.1873
 6199TIP3   OH240087   0.220   0.319   2.044  0.0617 -0.1287 -0.4767
 6199TIP3    H140088   0.305   0.325   2.088 -1.2986 -0.2625  2.3673
 6199TIP3    H240089   0.221   0.392   1.982  2.3309 -0.3137 -0.7726
 6200TIP3   OH240090   1.216   2.715  16.244 -0.1230 -0.1043  0.3641
 6200TIP3    H140091   1.157   2.664  16.299 -0.5087 -0.7399 -0.6042
 6200TIP3    H240092   1.227   2.798  16.290 -0.9109 -0.3918  1.0919
 6201TIP3   OH240093   0.890   3.339   1.198 -0.2730  0.2974  0.3779
 6201TIP3    H140094   0.978   3.346   1.160 -0.7377  0.3766 -0.7350
 6201TIP3    H240095   0.891   3.256   1.246  0.1857 -0.0645 -0.2403
 6202TIP3   OH240096   2.889   2.318   6.519 -0.4746 -0.0554 -0.8035
 6202TIP3    H140097   2.955   2.387   6.515 -1.3040  1.0476  1.9909
 6202TIP3    H240098   2.939   2.237   6.532  0.4235  0.8445  1.9456
 6203TIP3   OH240099   1.741   5.063  16.739  0.1911  0.6157 -0.6059
 6203TIP3    H140100   1.716   5.073  16.831  1.3909 -2.0294  0.1157
 6203TIP3    H240101   1.658   5.047  16.694 -0.3381  1.1641  0.1295
 6204TIP3   OH240102   1.831   0.670  14.385 -0.0787 -0.0487  0.5480
 6204TIP3    H140103   1.909   0.619  14.360  0.2745  1.1023 -0.7891
 6204TIP3    H240104   1.757   0.617  14.354  0.2753  0.0770 -0.5678
 6205TIP3   OH240105   3.010   4.407  13.622  0.0730  0.1523  0.1519
 6205TIP3    H140106   2.935   4.361  13.584 -0.5414 -0.3999  1.9389
 6205TIP3    H240107   3.017   4.488  13.571 -0.4760 -0.7025 -1.3333
 6206TIP3   OH240108   5.134   6.415  15.438  0.0598  0.4558  0.2406
 6206TIP3    H140109   5.075   6.482  15.473 -0.8738 -1.2715  2.1237
 6206TIP3    H240110   5.077   6.344  15.410  1.0541  0.2280 -1.3689
 6207TIP3   OH240111   4.135   6.052  14.662  0.2215 -0.2492  0.4986
 6207TIP3    H140112   4.060   6.075  14.717  0.3450  1.1400  0.1301
 6207TIP3    H240113   4.204   6.113  14.688  0.9249 -0.8703  0.1583
 6208TIP3   OH240114   6.099   0.559  15.652 -0.1521  0.8823  0.0554
 6208TIP3    H140115   6.155   0.624  15.609 -1.8128  2.0780 -0.3745
 6208TIP3    H240116   6.069   0.502  15.582 -0.6393  1.1359  0.0571
 6209TIP3   OH240117   4.329   4.455   5.144 -0.1011 -0.2094  0.0032
 6209TIP3    H140118   4.261   4.405   5.189 -2.8208  0.0777 -3.4096
 6209TIP3    H240119   4.346   4.406   5.064  1.3848  1.4534 -0.7609
 6210TIP3   OH240120   5.823   2.953   2.641  0.0964  0.0100  0.6168
 6210TIP3    H140121   5.874   2.886   2.595 -0.4204  0.0768 -0.0680
 6210TIP3    H240122   5.885   3.026   2.652  0.7584 -0.6778  1.6575
 6211TIP3   OH240123   4.106   0.908  14.792 -0.4120 -0.2691  0.2126
 6211TIP3    H140124   4.108   0.813  14.781 -0.5045 -0.4458  1.5330
 6211TIP3    H240125   4.108   0.921  14.887 -2.0001  0.9933  0.1256
 6212TIP3   OH240126   5.724   5.044  12.356 -0.5537  0.3451  0.1595
 6212TIP3    H140127   5.714   4.951  12.338  0.1814  0.6917 -2.3945
 6212TIP3    H240128   5.810   5.066  12.319  0.2295  1.6554  2.5440
 6213TIP3   OH240129   6.049   4.492   5.724  0.0280  0.2324  0.0385
 6213TIP3    H140130   5.980   4.558   5.712 -1.5888 -1.0865  1.4356
 6213TIP3    H240131   6.034   4.459   5.813  1.6546 -1.0559 -0.1260
 6214TIP3   OH240132   2.603   5.596  13.210 -0.1725 -0.3456 -1.0015
 6214TIP3    H140133   2.630   5.661  13.144  0.2728  0.3700 -0.1441
 6214TIP3    H240134   2.588   5.516  13.160  0.6302  0.0491 -1.9143
 6215TIP3   OH240135   3.702   6.487   4.157  0.1885  0.4276 -0.6159
 6215TIP3    H140136   3.628   6.450   4.111  0.5113 -0.3020 -0.5552
 6215TIP3    H240137   3.764   6.512   4.088 -0.5024  1.9634 -0.7377
 6216TIP3   OH240138   3.968   3.027  12.978 -0.0156  0.0549  0.2957
 6216TIP3    H140139   3.978   3.077  12.897 -0.5662 -1.0802 -0.5002
 6216TIP3    H240140   3.906   3.078  13.030 -0.4804  0.2605 -0.4493
 6217TIP3   OH240141   3.483   6.184   0.812 -0.1174 -0.2514  0.2675
 6217TIP3    H140142   3.567   6.145   0.792 -0.1119 -0.7416  1.1816
 6217TIP3    H240143   3.423   6.151   0.745  0.2295 -0.5745  0.1180
 6218TIP3   OH240144   3.056   1.219   0.653 -0.3415 -0.1259  0.2166
 6218TIP3    H140145   3.027   1.130   0.633 -0.4384 -0.4728  1.7808
 6218TIP3    H240146   3.084   1.216   0.744  3.4323  0.4992 -0.7481
 6219TIP3   OH240147   1.183   3.030   3.920  0.3042 -0.0753 -0.5788
 6219TIP3    H140148   1.239   3.088   3.971  0.5866 -0.2224 -0.7175
 6219TIP3    H240149   1.220   3.032   3.831 -0.7671  0.9442 -1.0301
 6220TIP3   OH240150   6.362   4.965  12.096  0.7498 -0.1111 -0.2454
 6220TIP3    H140151   6.294   4.901  12.074  0.0720  0.5950 -0.2130
 6220TIP3    H240152   6.426   4.914  12.147  0.0351 -0.6847  0.1064
 6221TIP3   OH240153   1.704   6.525  17.529  0.4735 -0.0078  0.7968
 6221TIP3    H140154   1.681   6.607  17.485  0.6925 -1.2513 -1.7941
 6221TIP3    H240155   1.788   6.542  17.571  2.0579  0.3358 -2.2478
 6222TIP3   OH240156   5.278   4.925  13.114 -0.6593  0.3156  0.3406
 6222TIP3    H140157   5.223   4.910  13.191 -1.3687  0.3883 -0.1430
 6222TIP3    H240158   5.346   4.858  13.120 -1.2259 -0.2552  0.5667
 6223TIP3   OH240159   0.576   5.918   3.661  0.2714  0.3474 -0.0896
 6223TIP3    H140160   0.632   5.937   3.586  1.0566 -0.7063  0.2084
 6223TIP3    H240161   0.587   5.824   3.676 -0.3850  0.4215  0.9400
 6224TIP3   OH240162   5.796   0.662  13.936  0.3200  0.5567  0.2246
 6224TIP3    H140163   5.789   0.686  14.029  0.0942  2.2193 -0.1785
 6224TIP3    H240164   5.734   0.720  13.892  2.0996  1.4812 -1.2185
 6225TIP3   OH240165   6.281   3.213  15.120 -0.2362 -0.1977  0.0563
 6225TIP3    H140166   6.374   3.232  15.113  0.2385 -1.4713  2.0201
 6225TIP3    H240167   6.265   3.142  15.059  0.0871 -0.0042 -0.2516
 6226TIP3   OH240168   0.632   5.810  17.541  0.2706 -0.0599  0.1690
 6226TIP3    H140169   0.544   5.794  17.575  0.9875 -1.5933  1.4780
 6226TIP3    H240170   0.685   5.825  17.620  1.2097  0.7063 -0.5844
 6227TIP3   OH240171   1.228   0.069  12.184 -0.0384  0.1613 -0.3332
 6227TIP3    H140172   1.200  -0.000  12.123 -0.0972  0.3007 -0.4654
 6227TIP3    H240173   1.219   0.150  12.134  0.9474  0.1814 -0.4979
 6228TIP3   OH240174   3.086   6.553   0.489  0.2353  0.0555  0.4455
 6228TIP3    H140175   3.130   6.488   0.434  0.2361 -0.3757  0.9404
 6228TIP3    H240176   3.034   6.605   0.428 -2.3409 -2.4344  0.2794
 6229TIP3   OH240177   2.390   1.784  17.129  0.8366 -0.4793 -0.7870
 6229TIP3    H140178   2.380   1.861  17.073  0.0991  0.6473  0.8059
 6229TIP3    H240179   2.309   1.735  17.117 -0.6298  1.2466  1.3589
 6230TIP3   OH240180   5.825   3.871   4.606  0.6190 -0.2141  0.1567
 6230TIP3    H140181   5.921   3.873   4.602  0.6138  0.4392  0.1815
 6230TIP3    H240182   5.797   3.873   4.515  0.6253  1.2163  0.1589
 6231TIP3   OH240183   1.441   3.686  11.867  0.2822  0.1038  0.4548
 6231TIP3    H140184   1.390   3.608  11.890 -0.5631  0.7114  0.6600
 6231TIP3    H240185   1.383   3.737  11.810  1.4639 -0.2442 -1.1596
 6232TIP3   OH240186   5.104   3.886   3.733 -0.4672  0.3411 -1.0706
 6232TIP3    H140187   5.178   3.824   3.732 -0.4167  0.2970 -4.3094
 6232TIP3    H240188   5.030   3.835   3.700 -1.3316  1.0974 -0.3401
 6233TIP3   OH240189   1.738   3.851   3.788  0.0197  0.0014  0.0773
 6233TIP3    H140190   1.815   3.845   3.845 -0.6634 -0.5832  0.9697
 6233TIP3    H240191   1.665   3.829   3.846 -0.6335 -1.2701 -1.1805
 6234TIP3   OH240192   2.804   4.943  16.109 -0.0972 -0.0494  0.5369
 6234TIP3    H140193   2.787   4.854  16.078  0.3443 -0.3991  1.2636
 6234TIP3    H240194   2.780   4.999  16.035  0.8720 -0.8390 -0.4171
 6235TIP3   OH240195   4.104   5.220   4.772 -0.0694  0.3379 -0.0908
 6235TIP3    H140196   4.046   5.264   4.834  1.9148  2.4266  0.4488
 6235TIP3    H240197   4.147   5.291   4.725  2.6637 -1.0245  0.1532
 6236TIP3   OH240198   4.358   1.140   2.484 -0.6364 -0.2535  0.1858
 6236TIP3    H140199   4.434   1.198   2.491 -0.7585 -0.2415  1.7106
 6236TIP3    H240200   4.369   1.078   2.557 -1.7997 -0.5939  0.0866
 6237TIP3   OH240201   2.014   5.311  15.856 -0.2028 -0.0360 -0.5775
 6237TIP3    H140202   2.107   5.316  15.879 -0.1832  0.6693 -0.7844
 6237TIP3    H240203   1.972   5.375  15.913 -1.0414 -2.4623  1.7205
 6238TIP3   OH240204   3.993   6.317  12.255 -0.0384 -0.2768 -0.1851
 6238TIP3    H140205   3.926   6.311  12.324  0.4103  0.5881  0.3345
 6238TIP3    H240206   4.075   6.297  12.299  0.0916 -1.1221 -0.7809
 6239TIP3   OH240207   4.900   4.855   0.878  0.0163 -0.0029  0.2513
 6239TIP3    H140208   4.920   4.936   0.832 -0.9057 -0.3972 -0.9174
 6239TIP3    H240209   4.886   4.881   0.969 -0.6269  1.1949 -0.1743
 6240TIP3   OH240210   1.060   6.297   3.194 -0.3742 -0.4473  0.0186
 6240TIP3    H140211   1.071   6.383   3.235  0.0479 -0.9582  1.0036
 6240TIP3    H240212   1.017   6.316   3.111  0.9623  0.8519 -0.4181
 6241TIP3   OH240213   4.714   3.003  13.760  0.3214 -0.1137 -0.3786
 6241TIP3    H140214   4.666   3.066  13.706 -0.4015 -0.1350  0.2364
 6241TIP3    H240215   4.649   2.936  13.782  0.8279 -0.5392 -0.1727
 6242TIP3   OH240216   6.452   3.259   2.689  0.9071  0.7421 -0.0136
 6242TIP3    H140217   6.540   3.224   2.709  0.9389  1.4020  1.0299
 6242TIP3    H240218   6.432   3.222   2.603  2.6260  1.3689 -0.7265
 6243TIP3   OH240219   5.145   0.983   0.726  0.0345 -0.0527 -0.2630
 6243TIP3    H140220   5.094   0.923   0.781 -0.2447 -0.2111 -0.6921
 6243TIP3    H240221   5.235   0.973   0.757 -0.3372  1.1938  1.4144
 6244TIP3   OH240222   0.077   2.050   2.149  0.4715 -0.3338 -0.2893
 6244TIP3    H140223   0.162   2.035   2.108  0.2976 -1.5843 -0.2317
 6244TIP3    H240224   0.015   2.047   2.077  0.4595  0.4728 -0.3172
 6245TIP3   OH240225   1.574   5.315  16.433  0.0489 -0.2914 -0.4056
 6245TIP3    H140226   1.504   5.254  16.457 -0.5245  0.5161  0.0348
 6245TIP3    H240227   1.654   5.267  16.451 -0.3897 -0.7831  0.3066
 6246TIP3   OH240228   3.484   5.762   6.519 -0.3131  0.4516  0.0834
 6246TIP3    H140229   3.542   5.736   6.592  0.8273  0.8253 -0.6683
 6246TIP3    H240230   3.421   5.822   6.559 -0.4449 -0.2720  1.0045
 6247TIP3   OH240231   4.243   4.396   2.055  0.7566  0.3469  0.3071
 6247TIP3    H140232   4.277   4.446   2.129  0.2032 -1.4952  1.9051
 6247TIP3    H240233   4.299   4.421   1.981  0.1671  3.6614  0.8156
 6248TIP3   OH240234   1.242   0.033  13.838  0.1045  0.4576  0.4656
 6248TIP3    H140235   1.315  -0.029  13.839  0.8655  1.3221  0.1429
 6248TIP3    H240236   1.237   0.062  13.747 -2.2828 -1.4286 -0.1089
 6249TIP3   OH240237   6.104   5.653  14.197  0.1060  0.0551  0.6795
 6249TIP3    H140238   6.193   5.646  14.161 -0.5083 -0.0124 -0.8942
 6249TIP3    H240239   6.047   5.626  14.125 -1.2887  1.9789  0.9852
 6250TIP3   OH240240   5.383   2.020   5.128 -0.4254  0.2129 -0.2263
 6250TIP3    H140241   5.357   2.111   5.139 -1.5201 -0.1933  0.7363
 6250TIP3    H240242   5.404   1.990   5.217  0.8951 -0.2158 -0.6417
 6251TIP3   OH240243   5.537   5.765  17.453 -0.0163 -0.0141  0.5169
 6251TIP3    H140244   5.489   5.733  17.531  1.3546  0.1135  1.4395
 6251TIP3    H240245   5.622   5.721  17.458  0.4498  0.7664 -0.3779
 6252TIP3   OH240246   2.327   2.724   2.893 -0.2226 -0.2110 -0.6047
 6252TIP3    H140247   2.265   2.675   2.839 -0.2317 -2.2521  1.1425
 6252TIP3    H240248   2.286   2.728   2.979  0.5472  1.4720 -0.2837
 6253TIP3   OH240249   0.303   6.723   5.432  0.3456  0.4395  0.0578
 6253TIP3    H140250   0.250   6.803   5.423  0.2640  0.3040 -0.7095
 6253TIP3    H240251   0.249   6.664   5.484 -0.8687 -0.2011 -1.8316
 6254TIP3   OH240252   1.084   2.927  13.255 -0.2224 -0.2898 -0.2971
 6254TIP3    H140253   1.059   3.017  13.275 -1.5760 -0.7823  0.3710
 6254TIP3    H240254   1.165   2.913  13.304 -0.1576  0.4732 -0.1689
 6255TIP3   OH240255   4.677   0.423  17.090 -0.1364  0.1392  0.4407
 6255TIP3    H140256   4.596   0.371  17.092 -0.0315 -0.0936 -0.7838
 6255TIP3    H240257   4.720   0.402  17.173 -1.1413 -0.0312  0.9348
 6256TIP3   OH240258   2.689   4.713  12.647  0.4532  0.1218  0.4388
 6256TIP3    H140259   2.740   4.706  12.566 -0.5865  0.6675 -0.2994
 6256TIP3    H240260   2.602   4.738  12.617 -0.3655 -1.1592  1.6199
 6257TIP3   OH240261   6.672   4.905  15.942  0.6508  0.1113 -0.7599
 6257TIP3    H140262   6.661   4.842  15.870 -0.4295  0.2461 -0.7298
 6257TIP3    H240263   6.767   4.916  15.950  0.8828 -1.7734 -0.5350
 6258TIP3   OH240264   5.222   4.183   0.214  0.1165 -0.1625 -0.1084
 6258TIP3    H140265   5.153   4.242   0.184 -0.9329  0.1333  2.5654
 6258TIP3    H240266   5.185   4.095   0.202  0.6298 -0.1942 -1.6654
 6259TIP3   OH240267   3.544   2.923   2.185  0.2695  0.7718 -0.6845
 6259TIP3    H140268   3.527   3.012   2.217 -1.1298  0.4261 -0.3671
 6259TIP3    H240269   3.480   2.911   2.115  0.6159  0.1070 -0.8925
 6260TIP3   OH240270   3.055   4.535   5.268 -0.1875  0.1881 -0.0305
 6260TIP3    H140271   3.101   4.483   5.203 -0.8839 -0.2648 -0.1790
 6260TIP3    H240272   3.099   4.620   5.267  1.0153 -0.4239  0.2771
 6261TIP3   OH240273   3.321   0.128   5.074 -0.2298  0.4032 -0.6564
 6261TIP3    H140274   3.353   0.048   5.031 -0.7999  0.3344 -0.9658
 6261TIP3    H240275   3.226   0.117   5.076 -0.2959  0.9880 -0.5242
 6262TIP3   OH240276   0.463   4.837   2.603 -0.8726  0.1747 -0.2194
 6262TIP3    H140277   0.529   4.888   2.555 -0.5467 -1.9629 -2.2204
 6262TIP3    H240278   0.429   4.775   2.539 -4.0985  0.4250  1.0548
 6263TIP3   OH240279   4.299   4.940  13.700  0.5655  0.0575  0.0301
 6263TIP3    H140280   4.248   4.882  13.757  1.9429 -1.2796 -0.0111
 6263TIP3    H240281   4.316   4.887  13.622 -0.0909  1.3712 -1.0472
 6264TIP3   OH240282   5.497   1.775  15.191  0.2368  0.3430 -0.2453
 6264TIP3    H140283   5.531   1.797  15.278 -1.3840  2.0873 -0.0004
 6264TIP3    H240284   5.500   1.858  15.143  2.1192 -0.7928 -2.2775
 6265TIP3   OH240285   6.715   3.222  13.956 -0.5206  0.2340  0.2599
 6265TIP3    H140286   6.760   3.148  13.998 -0.7329  1.0584  2.0150
 6265TIP3    H240287   6.775   3.296  13.967 -1.8291  1.1306  1.7747
 6266TIP3   OH240288   5.870   2.554  16.069 -0.0174  0.1538 -0.3854
 6266TIP3    H140289   5.901   2.570  15.980  1.1602  1.3313  0.1951
 6266TIP3    H240290   5.897   2.464  16.088  0.4366  0.1675 -0.9377
 6267TIP3   OH240291   3.664   3.686   1.274 -0.4976  0.4331  0.0758
 6267TIP3    H140292   3.740   3.654   1.322 -1.0088 -0.5256  0.2710
 6267TIP3    H240293   3.589   3.655   1.323 -1.0279  0.4415 -0.7034
 6268TIP3   OH240294   4.795   4.585  12.711 -0.0671 -0.0680  0.1491
 6268TIP3    H140295   4.853   4.578  12.786  1.7841  0.3918 -1.1673
 6268TIP3    H240296   4.748   4.501  12.709  1.6887 -1.1091  0.3980
 6269TIP3   OH240297   4.349   3.961  13.634  0.1195  0.1425  0.1319
 6269TIP3    H140298   4.388   3.875  13.647  0.7727  0.0075 -2.2571
 6269TIP3    H240299   4.255   3.946  13.637  0.1301 -1.2275 -2.7579
 6270TIP3   OH240300   2.349   1.810  12.502 -0.2404  0.3354  0.1609
 6270TIP3    H140301   2.388   1.813  12.590 -1.1373 -1.4820  0.6806
 6270TIP3    H240302   2.416   1.846  12.445  0.3826  1.5513  1.5828
 6271TIP3   OH240303   2.564   2.223  12.401  0.3444 -0.0634  0.0034
 6271TIP3    H140304   2.479   2.226  12.445  0.5957  0.4297  0.4584
 6271TIP3    H240305   2.628   2.239  12.471  0.8853 -1.4460 -0.1368
 6272TIP3   OH240306   3.499   5.370  11.439  0.3641  0.4733 -0.4398
 6272TIP3    H140307   3.563   5.422  11.488  0.4631  1.0761 -1.1957
 6272TIP3    H240308   3.537   5.282  11.435  0.3789  0.4266  0.5099
 6273TIP3   OH240309   3.400   3.691   5.794  0.4444 -0.0014 -0.0595
 6273TIP3    H140310   3.322   3.740   5.820 -1.5161 -2.6932 -0.5018
 6273TIP3    H240311   3.386   3.670   5.702  1.0273 -1.6825  0.2092
 6274TIP3   OH240312   4.509   3.109  15.619  0.2004  0.0300  0.7879
 6274TIP3    H140313   4.417   3.114  15.596  0.3275  1.4259  0.4774
 6274TIP3    H240314   4.522   3.181  15.681  1.5457  1.4647 -1.0206
 6275TIP3   OH240315   4.353   4.349  14.080 -0.0649  0.0715  0.1104
 6275TIP3    H140316   4.309   4.419  14.128  0.5956  0.1535  0.6077
 6275TIP3    H240317   4.432   4.389  14.043 -1.3001  0.4082 -2.3818
 6276TIP3   OH240318   0.648   3.432   3.896 -0.8630  0.3986 -0.0870
 6276TIP3    H140319   0.678   3.510   3.851 -0.9699  0.7331  0.4147
 6276TIP3    H240320   0.660   3.451   3.989  1.9718 -1.2976  0.0125
 6277TIP3   OH240321   5.255   6.496   2.785  0.3248 -0.5374 -0.3537
 6277TIP3    H140322   5.291   6.427   2.730  0.3155 -1.2493  0.5065
 6277TIP3    H240323   5.268   6.464   2.875  0.5184  0.6773  0.0621
 6278TIP3   OH240324   3.104   0.656   3.068  0.1328 -0.0819  0.1563
 6278TIP3    H140325   3.077   0.620   2.983 -0.6159 -0.9585  0.7480
 6278TIP3    H240326   3.107   0.580   3.126  4.6988 -0.3014  0.0425
 6279TIP3   OH240327   2.078   6.562   3.205 -0.4310  0.1563  0.1789
 6279TIP3    H140328   2.147   6.495   3.201 -0.3462  0.2332  0.3767
 6279TIP3    H240329   2.115   6.638   3.161  0.4779  0.9794  2.2758
 6280TIP3   OH240330   0.617   5.817  16.565  0.1786  0.0735 -0.6099
 6280TIP3    H140331   0.616   5.762  16.487  1.0706 -1.4104  0.3853
 6280TIP3    H240332   0.525   5.823  16.591 -0.0701  0.1787 -1.4723
 6281TIP3   OH240333   2.839   4.946  14.041 -0.1111  0.1390  0.0023
 6281TIP3    H140334   2.896   4.939  14.117 -1.1233 -0.5416  0.7282
 6281TIP3    H240335   2.839   5.039  14.019  2.4753 -0.0127 -1.0109
 6282TIP3   OH240336   6.638   3.994  11.749  0.9030  0.4001  0.5853
 6282TIP3    H140337   6.633   3.910  11.705  2.3012  0.6923 -0.1964
 6282TIP3    H240338   6.550   4.008  11.784 -0.1597 -0.0506 -1.7229
 6283TIP3   OH240339   3.120   4.106   0.150 -0.5172 -0.5021  0.1413
 6283TIP3    H140340   3.109   4.014   0.124  0.6086 -0.3944 -0.7797
 6283TIP3    H240341   3.056   4.153   0.096  1.4905 -0.3351 -2.2830
 6284TIP3   OH240342   2.181   5.512   1.893  0.4557  0.6019  0.3616
 6284TIP3    H140343   2.171   5.490   1.986  2.2703  0.5732  0.5909
 6284TIP3    H240344   2.102   5.560   1.871 -0.8768 -0.9939  1.4150
 6285TIP3   OH240345   3.509   1.474   3.377  0.2754 -0.5002 -0.0438
 6285TIP3    H140346   3.563   1.491   3.454 -1.9093  1.7941  1.1346
 6285TIP3    H240347   3.556   1.515   3.304  0.8891  0.0387  0.6464
 6286TIP3   OH240348   0.085   3.015  13.201 -0.3865 -0.2826 -0.1632
 6286TIP3    H140349   0.125   2.942  13.249 -2.3007 -0.8112  0.7252
 6286TIP3    H240350  -0.009   3.000  13.209 -0.8033  1.2170 -1.6763
 6287TIP3   OH240351   5.459   2.514   3.781  0.2241  0.3398  0.2004
 6287TIP3    H140352   5.539   2.532   3.732  1.2432  1.5791  2.2113
 6287TIP3    H240353   5.388   2.540   3.722  1.3235  0.4297 -1.1293
 6288TIP3   OH240354   1.806   1.654  13.816  0.0841 -0.1032 -0.0929
 6288TIP3    H140355   1.890   1.647  13.771  0.4535  1.1190  0.3656
 6288TIP3    H240356   1.768   1.566  13.809  1.9065 -1.0009  0.6998
 6289TIP3   OH240357   1.258   4.555   0.020 -0.4626  0.5889 -0.5966
 6289TIP3    H140358   1.167   4.550   0.049  0.2734 -0.1250  1.8372
 6289TIP3    H240359   1.256   4.615  -0.055 -2.8752  0.7412 -0.5000
 6290TIP3   OH240360   1.062   4.502   1.380  0.4890 -0.4365  0.4892
 6290TIP3    H140361   1.044   4.413   1.351  1.5247 -0.9000  1.2265
 6290TIP3    H240362   1.039   4.503   1.473 -0.8390  0.4700  0.1918
 6291TIP3   OH240363   4.713   2.920   5.741  0.4568 -0.4409 -0.6409
 6291TIP3    H140364   4.700   2.885   5.653 -0.5028 -0.0166 -0.6751
 6291TIP3    H240365   4.662   3.001   5.743 -0.4520 -1.0094  0.6533
 6292TIP3   OH240366   4.291   3.817   0.391 -1.3611 -0.3189 -0.2881
 6292TIP3    H140367   4.290   3.849   0.301  0.6627 -0.3104 -0.3440
 6292TIP3    H240368   4.384   3.813   0.414 -1.8120 -1.0423  1.5470
 6293TIP3   OH240369   5.787   5.384   0.483 -0.1069  0.0926 -0.4247
 6293TIP3    H140370   5.882   5.385   0.474  0.1812 -2.2292  1.4150
 6293TIP3    H240371   5.769   5.438   0.560 -0.3092  0.7268 -0.9131
 6294TIP3   OH240372   1.342   1.025  13.912  0.0335 -0.5131 -0.3257
 6294TIP3    H140373   1.355   1.116  13.885 -2.6719  0.2191  0.4337
 6294TIP3    H240374   1.310   0.981  13.833  1.6626 -0.9292 -0.7800
 6295TIP3   OH240375   4.225   3.016   0.279 -0.4006 -0.2164  0.5289
 6295TIP3    H140376   4.154   2.957   0.306  0.3277 -0.3912  2.2229
 6295TIP3    H240377   4.305   2.968   0.300  0.2194  0.4558 -0.2451
 6296TIP3   OH240378   5.619   0.964  14.081 -0.1077  0.2001 -0.1003
 6296TIP3    H140379   5.540   0.959  14.135  0.5260  0.7163  0.9021
 6296TIP3    H240380   5.591   1.010  14.001 -0.6198  1.2554  0.6586
 6297TIP3   OH240381   1.046   4.630   5.992  0.2279  0.4099  0.2312
 6297TIP3    H140382   1.025   4.568   6.061 -0.0305  1.3620  1.0329
 6297TIP3    H240383   0.999   4.710   6.016 -0.4513  0.5492 -1.4291
 6298TIP3   OH240384   2.293   3.909   2.411  0.1173  0.5833 -0.1259
 6298TIP3    H140385   2.256   3.871   2.331 -0.1226 -1.6908  0.9649
 6298TIP3    H240386   2.383   3.932   2.388 -0.3628  1.3102 -1.4008
 6299TIP3   OH240387   6.477   2.646   1.594 -0.6245 -0.3483 -0.0962
 6299TIP3    H140388   6.397   2.690   1.564 -1.0689 -0.8036  0.3981
 6299TIP3    H240389   6.451   2.602   1.675 -0.2652 -1.6904 -0.6833
 6300TIP3   OH240390   6.013   2.109   0.005  0.4131 -0.6426  0.8116
 6300TIP3    H140391   6.006   2.192   0.052 -0.3858 -0.7686  0.9245
 6300TIP3    H240392   5.958   2.048   0.054  1.9339 -1.5847  1.4351
 6301TIP3   OH240393   0.447   2.277   1.549 -0.4807  0.2519  0.2460
 6301TIP3    H140394   0.401   2.200   1.517 -0.3987  0.5052 -0.5195
 6301TIP3    H240395   0.404   2.350   1.505 -0.6489  0.6625  1.0698
 6302TIP3   OH240396   4.891   5.088  17.562 -0.4458  0.0453 -0.3526
 6302TIP3    H140397   4.842   5.168  17.543 -2.0980 -0.9423 -0.4463
 6302TIP3    H240398   4.886   5.079  17.657  0.4378  0.4600 -0.2567
 6303TIP3   OH240399   6.311   5.576   0.117  0.2656  0.7530  0.1721
 6303TIP3    H140400   6.268   5.563   0.201  2.4318  0.1774  1.2572
 6303TIP3    H240401   6.251   5.537   0.053 -0.0943 -1.5454  1.7919
 6304TIP3   OH240402   5.904   5.898  11.885  0.3497 -0.5901  0.8177
 6304TIP3    H140403   5.864   5.957  11.820 -0.3966  0.2345  1.9843
 6304TIP3    H240404   5.957   5.837  11.833 -0.0807  0.1578 -0.5444
 6305TIP3   OH240405   0.308   5.261   2.842  1.0135  0.5154  0.0268
 6305TIP3    H140406   0.261   5.293   2.765  0.4770 -0.8073 -0.2285
 6305TIP3    H240407   0.297   5.166   2.838 -1.1043  0.5088  3.0256
 6306TIP3   OH240408   3.124   6.708  17.402 -0.2207  0.3306 -0.0269
 6306TIP3    H140409   3.052   6.703  17.339  1.1389  0.6820 -1.6889
 6306TIP3    H240410   3.165   6.622  17.399 -1.1363 -0.2068  1.6833
 6307TIP3   OH240411   1.195   6.607   2.293 -0.2472 -0.5153  0.3559
 6307TIP3    H140412   1.188   6.514   2.312 -0.2002 -0.3097  1.4714
 6307TIP3    H240413   1.106   6.636   2.276 -0.3276 -0.6767  0.5002
 6308TIP3   OH240414   2.290   3.022  17.545 -0.0133 -0.3322  0.4880
 6308TIP3    H140415   2.330   3.099  17.506 -1.0138 -0.4673 -0.9297
 6308TIP3    H240416   2.209   3.054  17.585 -0.4891 -0.6222 -0.2031
 6309TIP3   OH240417   0.051   3.862  17.313  0.1898 -0.3279 -0.5709
 6309TIP3    H140418  -0.028   3.867  17.259  0.2501 -1.7969 -0.8468
 6309TIP3    H240419   0.056   3.947  17.356 -0.9297  0.1860 -1.3952
 6310TIP3   OH240420   1.552   5.446  11.793  0.4351 -0.3322 -0.3632
 6310TIP3    H140421   1.636   5.483  11.766 -0.5505  0.6302 -2.2892
 6310TIP3    H240422   1.509   5.517  11.839  1.2861 -1.3553  2.2412
 6311TIP3   OH240423   1.752   0.065  11.383 -0.3436  0.5802  0.4343
 6311TIP3    H140424   1.747  -0.029  11.363  0.2435  0.3901  1.1245
 6311TIP3    H240425   1.711   0.108  11.308  2.6231 -0.0204 -1.7027
 6312TIP3   OH240426   3.210   6.386  15.631 -0.0256 -0.0385 -0.2947
 6312TIP3    H140427   3.295   6.350  15.657  0.2462  1.0783  0.4611
 6312TIP3    H240428   3.181   6.331  15.559  0.7067 -1.2858  0.3349
 6313TIP3   OH240429   6.390   6.562   3.978  0.1756  0.0469 -0.2697
 6313TIP3    H140430   6.400   6.489   3.918  0.3369 -0.4760  0.3733
 6313TIP3    H240431   6.420   6.527   4.063 -0.3240  0.6706  0.1721
 6314TIP3   OH240432   0.413   0.671   6.181  0.0262  0.5527  0.2030
 6314TIP3    H140433   0.480   0.732   6.211 -0.1972  1.4398 -1.0334
 6314TIP3    H240434   0.372   0.638   6.261  0.4922  1.6401  0.8971
 6315TIP3   OH240435   1.785   0.891   2.222 -0.3570 -0.0560 -0.1160
 6315TIP3    H140436   1.697   0.854   2.216 -0.7748  1.1073 -3.4363
 6315TIP3    H240437   1.827   0.865   2.140  1.8906  0.6977  0.7227
 6316TIP3   OH240438   4.820   5.910  14.251  0.6353  0.1491 -0.2988
 6316TIP3    H140439   4.734   5.879  14.281  0.5863 -0.0310 -0.6177
 6316TIP3    H240440   4.803   5.950  14.166  1.0576 -1.0714 -0.9857
 6317TIP3   OH240441   3.633   1.418  14.043  0.0050 -0.0636  0.3588
 6317TIP3    H140442   3.700   1.372  14.094  0.0424 -0.2444  0.1453
 6317TIP3    H240443   3.633   1.506  14.080  0.1046 -0.1635  0.6059
 6318TIP3   OH240444   1.915   6.670  14.882  0.3313 -0.0934  0.5282
 6318TIP3    H140445   1.982   6.643  14.818 -0.2722 -0.4642  0.0442
 6318TIP3    H240446   1.833   6.671  14.832 -0.2356 -0.8530  1.4086
 6319TIP3   OH240447   0.477   2.144  12.329  0.2427  0.5853 -0.1452
 6319TIP3    H140448   0.439   2.056  12.336 -1.0152  1.0429 -0.9135
 6319TIP3    H240449   0.529   2.141  12.248  2.4761 -0.2311  1.2290
 6320TIP3   OH240450   4.761   1.095  15.560  0.4921  0.1025 -0.2759
 6320TIP3    H140451   4.818   1.022  15.537 -0.7998 -0.9077 -0.3392
 6320TIP3    H240452   4.810   1.142  15.628  1.6164 -0.4349 -0.6841
 6321TIP3   OH240453   0.458   3.493  15.156  0.1180  0.1563 -0.8827
 6321TIP3    H140454   0.375   3.501  15.202  0.6182  1.7595 -0.2162
 6321TIP3    H240455   0.455   3.559  15.087  1.2052  0.8850 -0.2647
 6322TIP3   OH240456   0.316   1.995   2.893  0.3867  0.0840 -0.2474
 6322TIP3    H140457   0.246   2.060   2.900 -0.4619 -0.8503  0.1850
 6322TIP3    H240458   0.322   1.977   2.799 -0.7765 -0.6832 -0.1991
 6323TIP3   OH240459   4.033   5.307  16.365  0.5569  0.3082 -0.1274
 6323TIP3    H140460   3.978   5.261  16.428  3.3112 -2.4681  0.4988
 6323TIP3    H240461   4.086   5.367  16.417  1.3668 -0.4633 -0.0401
 6324TIP3   OH240462   5.263   4.894   1.020 -0.0301  0.2520 -0.0457
 6324TIP3    H140463   5.259   4.885   0.925 -1.7018 -2.9188  0.1837
 6324TIP3    H240464   5.356   4.901   1.040  0.3229  1.4449 -1.8997
 6325TIP3   OH240465   5.416   2.854   0.941  0.1345 -0.3560  0.0102
 6325TIP3    H140466   5.327   2.822   0.932 -0.1702 -0.1593  1.8980
 6325TIP3    H240467   5.413   2.944   0.910 -0.5558 -0.0626  0.8747
 6326TIP3   OH240468   0.958   6.130   0.657 -0.5364  0.4469 -0.4173
 6326TIP3    H140469   0.929   6.073   0.586 -0.0584 -2.3506  1.4676
 6326TIP3    H240470   0.886   6.129   0.719  0.5941 -0.5239  0.9394
 6327TIP3   OH240471   3.492   5.618  13.252 -0.4176  0.6031  0.0631
 6327TIP3    H140472   3.574   5.605  13.204  0.4040  0.9296  1.3358
 6327TIP3    H240473   3.498   5.707  13.287 -1.5811  0.8433 -0.3025
 6328TIP3   OH240474   4.547   4.303   5.026 -0.1041 -0.3839  0.1216
 6328TIP3    H140475   4.522   4.216   5.060 -1.3448 -0.3000 -0.4993
 6328TIP3    H240476   4.481   4.321   4.959  0.7458  0.6080 -0.4599
 6329TIP3   OH240477   5.711   5.986  12.061  0.5133  0.0231 -0.1924
 6329TIP3    H140478   5.656   6.020  11.990  1.9975  1.3187 -0.7765
 6329TIP3    H240479   5.778   5.935  12.016  0.8039 -0.1009  0.3757
 6330TIP3   OH240480   4.535   1.082  12.663  0.7256 -0.9493  0.6404
 6330TIP3    H140481   4.591   1.029  12.607 -0.0036 -0.3337 -0.7242
 6330TIP3    H240482   4.596   1.142  12.707  1.1826 -0.3108 -0.7887
 6331TIP3   OH240483   4.705   0.313  13.186 -0.4877  0.2488  0.6158
 6331TIP3    H140484   4.669   0.341  13.102 -0.1485  1.1934  0.7765
 6331TIP3    H240485   4.654   0.235  13.209 -1.0246  0.3653 -0.1478
 6332TIP3   OH240486   3.389   5.513   5.288 -0.2209 -0.2316  0.7133
 6332TIP3    H140487   3.347   5.561   5.359 -1.2318  1.0350 -0.6765
 6332TIP3    H240488   3.320   5.456   5.254  0.4364 -1.2936  1.1353
 6333TIP3   OH240489   0.277   6.006   2.660 -0.0489  0.3569 -0.3037
 6333TIP3    H140490   0.288   6.100   2.673  0.2462  0.1033  1.5989
 6333TIP3    H240491   0.360   5.968   2.689 -0.9006 -0.6247  0.9366
 6334TIP3   OH240492   2.741   5.791  11.971  0.2419 -1.0359 -0.3190
 6334TIP3    H140493   2.777   5.879  11.969 -0.3608 -0.7964 -2.1865
 6334TIP3    H240494   2.802   5.738  11.919  0.0052 -1.4693 -0.1663
 6335TIP3   OH240495   1.227   5.724  15.736 -0.1956 -0.3253  0.5641
 6335TIP3    H140496   1.156   5.745  15.676 -1.0795 -2.0890  0.9297
 6335TIP3    H240497   1.307   5.742  15.686 -0.8768  0.6693 -0.2186
 6336TIP3   OH240498   0.033   2.254  14.635  0.6027  0.4885 -0.4506
 6336TIP3    H140499   0.074   2.294  14.559 -1.2446  2.3053 -0.5811
 6336TIP3    H240500   0.098   2.190  14.667  1.5901 -0.0163 -3.2355
 6337TIP3   OH240501   2.330   6.269  15.610  0.0511 -0.4303 -0.2232
 6337TIP3    H140502   2.372   6.192  15.648  1.2192 -0.2271 -1.0495
 6337TIP3    H240503   2.236   6.254  15.622  0.2652 -1.9782 -0.3754
 6338TIP3   OH240504   2.221   0.098  14.744 -0.1246 -0.3175 -0.2661
 6338TIP3    H140505   2.177   0.016  14.721 -1.0136  0.2359 -0.5945
 6338TIP3    H240506   2.155   0.166  14.729  0.4034  0.4082  0.5631
 6339TIP3   OH240507   1.272   4.609  14.224 -0.1740  0.0913 -0.0201
 6339TIP3    H140508   1.213   4.648  14.289  0.3278  0.9677 -0.0843
 6339TIP3    H240509   1.221   4.610  14.143  0.1100  1.3646 -0.2019
 6340TIP3   OH240510   4.923   1.565  15.262  0.2527  0.7762 -0.5209
 6340TIP3    H140511   4.998   1.602  15.308 -0.9937  0.4030  1.9973
 6340TIP3    H240512   4.870   1.640  15.236  0.2020  0.9668  0.1119
 6341TIP3   OH240513   3.466   0.116   3.641 -0.2879  0.2727  0.1398
 6341TIP3    H140514   3.377   0.091   3.613 -0.4782  0.8168  0.2595
 6341TIP3    H240515   3.460   0.126   3.735 -0.0332  0.0667  0.1806
 6342TIP3   OH240516   5.985   3.005  11.996  0.7844  0.7466 -0.2851
 6342TIP3    H140517   5.959   2.916  11.971  0.2475  1.1933 -1.3782
 6342TIP3    H240518   6.073   2.995  12.031  0.4093 -0.3378  0.4302
 6343TIP3   OH240519   6.137   0.710  14.454  0.4408 -0.3422 -0.0004
 6343TIP3    H140520   6.178   0.794  14.432 -0.2527  0.1308  0.5116
 6343TIP3    H240521   6.164   0.693  14.544 -0.0535 -0.2886  0.1590
 6344TIP3   OH240522   3.721   5.733  15.954 -0.7553 -0.2756  0.3029
 6344TIP3    H140523   3.749   5.641  15.961 -0.1136 -0.1848 -0.7649
 6344TIP3    H240524   3.789   5.774  15.901 -0.5501  1.0458  1.5374
 6345TIP3   OH240525   3.907   4.688  13.662 -0.3225 -0.2242 -0.4119
 6345TIP3    H140526   3.828   4.654  13.705 -1.1522  1.6605 -0.3717
 6345TIP3    H240527   3.902   4.651  13.573 -1.6375  0.4167 -0.6294
 6346TIP3   OH240528   3.065   4.305  15.325  0.5847  0.2222  0.0226
 6346TIP3    H140529   3.146   4.296  15.274 -0.7586 -0.5252 -2.1048
 6346TIP3    H240530   3.058   4.399  15.342  2.4629  0.1827  1.2773
 6347TIP3   OH240531   4.414   1.080   0.038 -0.5977  0.4178 -0.3926
 6347TIP3    H140532   4.330   1.112   0.006  0.3360  0.3531 -3.2231
 6347TIP3    H240533   4.412   0.985   0.020  0.7485  0.7020 -2.3995
 6348TIP3   OH240534   1.870   0.584  12.284 -0.5778 -0.3256  0.6384
 6348TIP3    H140535   1.965   0.587  12.299 -0.4991  1.2983  0.0423
 6348TIP3    H240536   1.854   0.495  12.253  0.7572 -0.6363  0.7694
 6349TIP3   OH240537   3.479   0.594   3.554  0.1571 -0.2212 -0.6933
 6349TIP3    H140538   3.404   0.542   3.527  0.3575 -0.8871  0.0003
 6349TIP3    H240539   3.554   0.535   3.546  0.7713  0.7053 -2.2857
 6350TIP3   OH240540   5.647   3.299  15.106 -0.4188  0.1235 -0.4974
 6350TIP3    H140541   5.737   3.319  15.134 -0.3844 -0.1409 -0.4058
 6350TIP3    H240542   5.614   3.242  15.176 -0.6868  0.2893 -0.4909
 6351TIP3   OH240543   0.902   6.332   1.655 -0.7372  0.4626 -0.3197
 6351TIP3    H140544   0.872   6.277   1.583 -1.2292  0.2426  0.0494
 6351TIP3    H240545   0.828   6.390   1.675 -0.9899 -0.1859  0.6966
 6352TIP3   OH240546   6.190   1.545  11.213 -0.1470  0.5098 -0.1443
 6352TIP3    H140547   6.199   1.554  11.308 -0.3051  1.3710 -0.2043
 6352TIP3    H240548   6.280   1.539  11.181 -0.0254  1.5970 -0.0532
 6353TIP3   OH240549   5.635   0.461   1.360  0.1490  0.0396  0.1650
 6353TIP3    H140550   5.590   0.405   1.296 -1.8236 -0.4279  1.8775
 6353TIP3    H240551   5.594   0.547   1.349 -0.7888 -0.2349  1.2883
 6354TIP3   OH240552   6.507   0.999   5.200  0.2945  0.2052  0.2955
 6354TIP3    H140553   6.534   1.018   5.110 -0.1392  0.2197  0.1634
 6354TIP3    H240554   6.586   0.969   5.243  0.1971 -1.4099 -0.5349
 6355TIP3   OH240555   4.080   0.709  16.815 -0.1899 -0.0022  0.1193
 6355TIP3    H140556   3.992   0.738  16.839 -1.5427 -1.5070 -2.5543
 6355TIP3    H240557   4.075   0.691  16.721  2.5419 -1.6469  0.1640
 6356TIP3   OH240558   3.816   6.639  11.716 -1.0582  0.0228 -0.2393
 6356TIP3    H140559   3.809   6.622  11.622  1.0664 -1.1026 -0.2487
 6356TIP3    H240560   3.767   6.568  11.757 -1.0785 -0.1032 -0.4785
 6357TIP3   OH240561   3.661   6.574   2.372 -0.8347 -0.0229 -0.2051
 6357TIP3    H140562   3.717   6.558   2.297 -0.8685  0.4542 -0.3353
 6357TIP3    H240563   3.605   6.647   2.345 -0.8204  0.1760  0.2960
 6358TIP3   OH240564   4.483   0.164  14.150  0.0175  0.1176 -0.1694
 6358TIP3    H140565   4.465   0.139  14.240 -3.0080  0.1072 -0.6851
 6358TIP3    H240566   4.541   0.095  14.116  0.0005 -0.6511  1.3160
 6359TIP3   OH240567   4.107   3.069   3.555  0.3588 -0.4008 -0.3236
 6359TIP3    H140568   4.154   3.123   3.492 -0.5332 -0.3730 -0.9798
 6359TIP3    H240569   4.117   3.114   3.639  0.4847  0.2382 -0.6833
 6360TIP3   OH240570   3.435   3.009  13.995 -0.1137 -0.0012  0.7017
 6360TIP3    H140571   3.514   3.002  14.049 -0.3455 -0.8562  0.9612
 6360TIP3    H240572   3.452   2.950  13.921  0.2002  1.1620 -0.1771
 6361TIP3   OH240573   5.638   3.363   2.952  0.2623 -0.0271 -0.7317
 6361TIP3    H140574   5.624   3.302   3.024  0.9738 -0.3903 -0.8919
 6361TIP3    H240575   5.566   3.345   2.892 -0.5260  0.5124  0.0352
 6362TIP3   OH240576   0.460   6.069  14.978 -0.0130 -0.2492 -0.5341
 6362TIP3    H140577   0.541   6.019  14.971 -0.1299 -0.2715 -2.0347
 6362TIP3    H240578   0.450   6.111  14.893 -0.4744  1.4985  0.3280
 6363TIP3   OH240579   1.263   3.527  14.740 -0.2385  0.1391 -0.8046
 6363TIP3    H140580   1.321   3.479  14.800  0.6314 -0.5647 -2.1564
 6363TIP3    H240581   1.197   3.464  14.714 -1.0632  0.6596 -0.0469
 6364TIP3   OH240582   2.890   2.439  16.384 -0.0682  0.2172 -0.2410
 6364TIP3    H140583   2.868   2.511  16.326  0.0031  0.6594  0.2651
 6364TIP3    H240584   2.967   2.398  16.345 -0.4894  0.0155 -0.8677
 6365TIP3   OH240585   4.674   3.320  14.911  0.3980 -0.1567  0.1555
 6365TIP3    H140586   4.644   3.399  14.866  0.0852 -0.8891 -0.9603
 6365TIP3    H240587   4.595   3.280  14.947  0.3793 -0.6455 -0.4176
 6366TIP3   OH240588   4.267   5.192  16.602  0.3115  0.4881  0.2206
 6366TIP3    H140589   4.289   5.136  16.527 -1.3328  1.4292 -1.0265
 6366TIP3    H240590   4.351   5.204  16.648  0.9731 -1.8377 -0.2113
 6367TIP3   OH240591   3.805   1.665   2.170  0.3743  0.1698  0.1402
 6367TIP3    H140592   3.711   1.663   2.156  0.3296 -0.3406  0.4940
 6367TIP3    H240593   3.817   1.636   2.261  0.9393 -0.9810 -0.2731
 6368TIP3   OH240594   4.432   0.663  14.606  0.0246  0.0489 -0.3632
 6368TIP3    H140595   4.380   0.617  14.672 -1.0804  0.3982 -0.9623
 6368TIP3    H240596   4.441   0.752  14.641  0.4264 -0.0815 -0.1414
 6369TIP3   OH240597   6.574   0.816   1.657  0.5103 -0.1447  0.4604
 6369TIP3    H140598   6.544   0.781   1.741  0.4550 -0.5182  0.2882
 6369TIP3    H240599   6.584   0.910   1.672 -1.3356  0.1019  0.3556
 6370TIP3   OH240600   6.282   0.495   5.612 -0.0815 -0.0844  0.0352
 6370TIP3    H140601   6.323   0.473   5.696 -0.6476 -0.1794  0.2901
 6370TIP3    H240602   6.215   0.559   5.634  1.5264  1.9619 -0.6988
 6371TIP3   OH240603   5.965   6.666  17.612  0.0868  0.2130 -0.3818
 6371TIP3    H140604   5.956   6.583  17.659  1.0869 -0.3458 -1.1274
 6371TIP3    H240605   5.914   6.728  17.664  0.3043 -0.5945  0.8674
 6372TIP3   OH240606   6.237   0.995  13.607 -0.4319 -0.3253  0.2750
 6372TIP3    H140607   6.212   0.910  13.574  0.0418 -0.3381 -0.0613
 6372TIP3    H240608   6.268   1.043  13.530 -1.5811  0.4871  0.2912
 6373TIP3   OH240609   5.683   5.156  11.985 -0.1572 -0.1344  0.4264
 6373TIP3    H140610   5.742   5.081  11.991 -0.1312 -0.0011  2.9386
 6373TIP3    H240611   5.738   5.226  11.950  0.2402 -0.8626 -0.4555
 6374TIP3   OH240612   0.855   1.305  12.869 -0.0400 -0.1446 -0.3079
 6374TIP3    H140613   0.899   1.385  12.898 -2.1083  1.5246 -1.4349
 6374TIP3    H240614   0.769   1.308  12.910 -0.6776 -1.0480 -1.4968
 6375TIP3   OH240615   4.644   2.076  15.789 -0.2975 -0.0974  0.2142
 6375TIP3    H140616   4.604   2.117  15.866  0.5500 -0.0020  0.6166
 6375TIP3    H240617   4.573   2.071  15.725 -0.8387  0.4603  0.7533
 6376TIP3   OH240618   2.465   5.671  12.633 -0.1473  0.1168 -0.8219
 6376TIP3    H140619   2.460   5.695  12.540  3.2473  4.4114 -0.2113
 6376TIP3    H240620   2.435   5.749  12.679  1.6963 -0.5011  1.6137
 6377TIP3   OH240621   5.050   3.415  14.499 -0.1155 -0.3458  0.3209
 6377TIP3    H140622   5.096   3.486  14.455  0.8962 -1.6953 -0.9092
 6377TIP3    H240623   4.968   3.405  14.449  0.2854 -0.8089 -0.2519
 6378TIP3   OH240624   0.091   5.958   5.136  0.3420 -0.0174 -0.3957
 6378TIP3    H140625   0.041   5.906   5.073 -0.7455 -0.3597  0.7110
 6378TIP3    H240626   0.121   6.034   5.085 -0.9899  0.0034 -1.1955
 6379TIP3   OH240627   3.080   5.289   5.536  0.3614 -0.1548 -0.1601
 6379TIP3    H140628   3.068   5.380   5.510  1.5382  0.0477 -0.0313
 6379TIP3    H240629   3.020   5.277   5.609  1.5811  1.0964  1.0994
 6380TIP3   OH240630   0.689   5.628   3.443 -0.9240 -0.4776  0.5754
 6380TIP3    H140631   0.674   5.723   3.441 -1.9524 -0.5866  1.6358
 6380TIP3    H240632   0.603   5.591   3.463 -0.5146 -1.6334  0.2475
 6381TIP3   OH240633   6.100   6.594  15.399 -0.6789  0.2499  0.4622
 6381TIP3    H140634   6.027   6.569  15.343  0.4906 -1.6032 -0.3437
 6381TIP3    H240635   6.153   6.653  15.344 -0.8953  0.5482  0.5735
 6382TIP3   OH240636   3.221   3.983   2.532 -0.2042  0.1757 -0.2505
 6382TIP3    H140637   3.259   3.951   2.450  0.4821 -1.0260  0.5058
 6382TIP3    H240638   3.182   3.905   2.572  0.0483  0.6025  0.8661
 6383TIP3   OH240639   4.517   4.097   2.853 -0.9368  0.2503 -0.2625
 6383TIP3    H140640   4.559   4.087   2.767  1.1669 -0.1900  0.7682
 6383TIP3    H240641   4.483   4.187   2.852  2.4924  1.6793 -0.1773
 6384TIP3   OH240642   1.213   5.040  12.958  0.2220 -0.4927 -0.0230
 6384TIP3    H140643   1.272   4.975  12.998  1.0666  0.2589 -0.0197
 6384TIP3    H240644   1.210   5.016  12.865  1.3393  0.0603 -0.2090
 6385TIP3   OH240645   3.249   1.952  15.984 -0.0983  0.1875  0.6063
 6385TIP3    H140646   3.175   2.008  16.007  0.0485  0.3487  0.6851
 6385TIP3    H240647   3.301   2.005  15.923  0.3681  0.3780  1.1558
 6386TIP3   OH240648   2.987   5.549   0.386  0.5078 -0.1656  0.0336
 6386TIP3    H140649   3.008   5.630   0.340  0.6693  0.0932  0.5481
 6386TIP3    H240650   2.987   5.574   0.479 -1.1666 -0.3622  0.1120
 6387TIP3   OH240651   2.871   6.374   1.275  0.4290 -0.5689  0.3526
 6387TIP3    H140652   2.880   6.383   1.180  0.1133  1.2295  0.4542
 6387TIP3    H240653   2.959   6.352   1.305  1.3404  2.0896 -0.0884
 6388TIP3   OH240654   5.260   4.048   2.246 -0.4591  0.1223  0.2131
 6388TIP3    H140655   5.343   4.001   2.243 -0.2138  0.3292  2.2535
 6388TIP3    H240656   5.246   4.078   2.156  1.9552  0.5447 -0.0940
 6389TIP3   OH240657   6.262   1.300   0.457  0.2591 -0.4283  0.2162
 6389TIP3    H140658   6.333   1.363   0.457  1.3627 -1.6186  0.5072
 6389TIP3    H240659   6.222   1.307   0.371  1.1774 -0.2153 -0.1957
 6390TIP3   OH240660   5.058   6.347  16.604  0.6384 -0.5154  0.2372
 6390TIP3    H140661   5.013   6.333  16.687 -0.2891 -1.6438 -0.4403
 6390TIP3    H240662   5.151   6.354  16.629  0.2458  0.6894  1.5141
 6391TIP3   OH240663   3.897   0.942  15.885  0.0682 -0.9674  0.3975
 6391TIP3    H140664   3.813   0.932  15.840  0.3965 -2.0952  0.0026
 6391TIP3    H240665   3.956   0.976  15.818 -0.3248  0.9640  0.9734
 6392TIP3   OH240666   0.132   3.759  14.956  0.3113  0.4181  0.2147
 6392TIP3    H140667   0.118   3.793  14.867 -0.5797  1.3519  0.6935
 6392TIP3    H240668   0.220   3.721  14.953  0.8708  1.6981 -0.6954
 6393TIP3   OH240669   6.688   1.389  13.525 -0.1341 -0.1380 -0.3015
 6393TIP3    H140670   6.779   1.381  13.552 -0.0576  2.6309  0.5774
 6393TIP3    H240671   6.640   1.333  13.586  0.9426 -2.0070 -1.0685
 6394TIP3   OH240672   6.738   3.402  15.420 -0.3033 -0.0654 -0.2761
 6394TIP3    H140673   6.655   3.447  15.435  0.3178  1.8899 -2.2383
 6394TIP3    H240674   6.750   3.347  15.498 -3.7397 -0.9628 -0.2263
 6395TIP3   OH240675   0.909   6.596   4.195  0.0240  0.7802 -0.3595
 6395TIP3    H140676   0.882   6.533   4.128 -4.8817  1.6869  0.3397
 6395TIP3    H240677   0.945   6.670   4.147 -0.0375 -0.0242 -1.6748
 6396TIP3   OH240678   5.100   2.109  14.713 -0.3672  0.8982 -0.5101
 6396TIP3    H140679   5.030   2.106  14.778 -0.1255  1.7501 -0.1949
 6396TIP3    H240680   5.078   2.182  14.656  0.4231  1.3883 -0.2096
 6397TIP3   OH240681   0.787   5.838  12.009 -0.2136  0.3534  0.2440
 6397TIP3    H140682   0.770   5.748  12.038  1.6772  0.1199  0.7831
 6397TIP3    H240683   0.815   5.828  11.917 -0.9566  0.5112 -0.0044
 6398TIP3   OH240684   2.899   4.417  14.933  0.4370 -0.4735 -0.6990
 6398TIP3    H140685   2.823   4.449  14.884  0.0085 -0.0874  0.1920
 6398TIP3    H240686   2.870   4.334  14.970  0.2984 -0.1228 -0.0116
 6399TIP3   OH240687   5.570   6.617  15.329 -0.0609  0.2325 -0.4630
 6399TIP3    H140688   5.545   6.536  15.373  0.8122  1.4965  2.7032
 6399TIP3    H240689   5.515   6.684  15.369  0.4028  1.4281 -1.7549
 6400TIP3   OH240690   5.889   1.253  15.518 -0.0061 -0.2777  0.0754
 6400TIP3    H140691   5.846   1.180  15.475 -1.1553 -0.0230  0.7524
 6400TIP3    H240692   5.980   1.224  15.530 -0.1439 -1.0928 -0.7691
 6401TIP3   OH240693   0.996   2.518   3.707  0.0424 -0.6710 -1.2606
 6401TIP3    H140694   1.023   2.598   3.662  0.4276 -0.7214 -1.1189
 6401TIP3    H240695   1.026   2.447   3.651  1.2989 -0.7606 -0.5237
 6402TIP3   OH240696   4.761   6.435   3.811  0.5750  0.2921  0.0744
 6402TIP3    H140697   4.729   6.348   3.836 -1.4668  0.5829 -1.3330
 6402TIP3    H240698   4.855   6.422   3.798  0.1637 -2.0081 -1.1930
 6403TIP3   OH240699   3.142   4.019   0.771 -0.7500  0.8128 -0.0462
 6403TIP3    H140700   3.174   4.065   0.849  0.7274  0.0698 -0.1784
 6403TIP3    H240701   3.079   4.079   0.732  0.2789  2.2518  0.4016
 6404TIP3   OH240702   1.658   5.016  17.002  0.2071 -0.1373  0.7303
 6404TIP3    H140703   1.632   5.071  17.076 -1.0120 -1.0195  0.9939
 6404TIP3    H240704   1.576   4.980  16.969  0.8412 -0.6062 -0.3817
 6405TIP3   OH240705   5.652   1.878   5.991 -0.1067 -0.1711 -0.1283
 6405TIP3    H140706   5.739   1.893   6.027 -0.1046 -2.5060  1.0309
 6405TIP3    H240707   5.661   1.799   5.938 -1.2488  0.3276 -1.1221
 6406TIP3   OH240708   1.550   4.430  13.908  0.8085  0.0791  0.7985
 6406TIP3    H140709   1.637   4.391  13.896  0.1977 -1.1715  0.2027
 6406TIP3    H240710   1.491   4.369  13.863 -0.4206  0.6974  1.5420
 6407TIP3   OH240711   3.487   2.987  14.770 -0.1422  0.0591  0.0108
 6407TIP3    H140712   3.471   3.081  14.762  1.5175  0.3597 -0.1450
 6407TIP3    H240713   3.484   2.954  14.680 -1.5164 -0.2009  0.1345
 6408TIP3   OH240714   3.586   3.470  14.599  0.1489 -0.2591 -0.3170
 6408TIP3    H140715   3.629   3.506  14.676 -0.8605 -0.2166  0.2459
 6408TIP3    H240716   3.652   3.414  14.559  0.7847 -0.0512  0.4127
 6409TIP3   OH240717   1.296   1.006  17.640  0.2333 -0.5671 -0.1913
 6409TIP3    H140718   1.213   1.040  17.607 -0.2346 -1.6429 -0.1559
 6409TIP3    H240719   1.285   1.003  17.735  0.7226  0.3093 -0.0943
 6410TIP3   OH240720   4.964   2.177  17.659  0.1069 -0.3897 -0.2436
 6410TIP3    H140721   5.047   2.176  17.612  2.3795 -1.6857  3.3524
 6410TIP3    H240722   4.950   2.268  17.683  2.1486 -0.4680  1.5293
 6411TIP3   OH240723   4.686   1.207   5.496  0.2128 -0.0692  0.2977
 6411TIP3    H140724   4.694   1.122   5.454  0.8718 -0.0585  0.3902
 6411TIP3    H240725   4.601   1.205   5.540 -1.1143  0.4265 -2.1096
 6412TIP3   OH240726   1.999   4.512   4.185  0.5106  0.0600 -0.0404
 6412TIP3    H140727   2.062   4.487   4.118  1.9148  0.4804  1.0905
 6412TIP3    H240728   2.046   4.503   4.268 -0.4741  1.7166  0.7469
 6413TIP3   OH240729   1.955   0.168   1.915 -0.1460 -0.8855  0.0229
 6413TIP3    H140730   2.004   0.229   1.971 -0.9911 -0.7895  0.6848
 6413TIP3    H240731   2.018   0.140   1.849  1.2616 -1.9413  1.7275
 6414TIP3   OH240732   5.379   2.014   0.918  0.2843  0.6904 -0.0071
 6414TIP3    H140733   5.304   2.073   0.927  0.5958  1.0649  0.1626
 6414TIP3    H240734   5.420   2.016   1.005 -0.2761 -0.5618  0.3167
 6415TIP3   OH240735   2.255   6.122   2.223  0.5813 -0.4147  0.6402
 6415TIP3    H140736   2.241   6.033   2.257 -0.1470 -0.5717 -0.0420
 6415TIP3    H240737   2.185   6.134   2.159 -1.6364  2.0258  3.2640
 6416TIP3   OH240738   1.415   5.047   5.872 -0.3150 -0.0308 -0.3583
 6416TIP3    H140739   1.357   5.026   5.799  1.7224 -1.1536 -1.7511
 6416TIP3    H240740   1.456   5.130   5.846 -0.9676  0.5567  0.4361
 6417TIP3   OH240741   3.249   5.619  13.132  0.4386 -0.5216  0.4133
 6417TIP3    H140742   3.328   5.649  13.178  0.4790 -1.9111  1.3172
 6417TIP3    H240743   3.265   5.526  13.116 -0.4813 -0.5222 -0.5718
 6418TIP3   OH240744   4.203   0.407  17.545  0.4478  0.2906  0.4972
 6418TIP3    H140745   4.133   0.358  17.501  0.8350 -0.0367  0.2351
 6418TIP3    H240746   4.183   0.401  17.638 -0.5581  1.2523  0.3636
 6419TIP3   OH240747   3.061   5.485  15.858  0.2078  0.7846  0.4442
 6419TIP3    H140748   3.073   5.464  15.765  0.4161  2.1283  0.1401
 6419TIP3    H240749   2.987   5.432  15.885 -0.4311  1.0295 -0.7335
 6420TIP3   OH240750   5.254   5.085  12.256 -0.0277 -0.4895 -0.1279
 6420TIP3    H140751   5.346   5.102  12.234 -0.1325  0.1662 -0.0540
 6420TIP3    H240752   5.259   5.015  12.322  0.5466  1.0616  1.5468
 6421TIP3   OH240753   0.881   2.747   1.555  0.1695  0.7021  0.1474
 6421TIP3    H140754   0.820   2.737   1.482 -0.2609  1.1738  0.4331
 6421TIP3    H240755   0.824   2.756   1.632  0.6048  0.8082  0.4588
 6422TIP3   OH240756   1.947   3.397   0.891  0.1059  0.1633  0.6218
 6422TIP3    H140757   1.871   3.410   0.948  0.0390  0.0428  0.5604
 6422TIP3    H240758   1.992   3.481   0.893 -1.2325  0.9984 -1.0990
 6423TIP3   OH240759   4.250   2.653   5.552  0.4621  0.0527 -0.4511
 6423TIP3    H140760   4.257   2.610   5.638 -0.5973  1.4256  0.3641
 6423TIP3    H240761   4.270   2.584   5.489 -1.4243 -1.7234  0.7792
 6424TIP3   OH240762   3.056   2.176   2.742 -0.2712  0.4886 -0.2026
 6424TIP3    H140763   3.047   2.261   2.786 -0.3145 -0.3570  1.5013
 6424TIP3    H240764   3.151   2.161   2.739 -0.2418  0.7378 -0.8500
 6425TIP3   OH240765   0.806   2.173   6.519  0.0194 -0.0515 -0.3326
 6425TIP3    H140766   0.748   2.220   6.459 -0.8357  0.4787  0.8799
 6425TIP3    H240767   0.801   2.081   6.492  0.3266  0.2884 -1.6028
 6426TIP3   OH240768   3.485   6.664   3.914  0.1544  0.7061 -0.2175
 6426TIP3    H140769   3.560   6.702   3.867  0.3382 -0.9764 -1.3752
 6426TIP3    H240770   3.430   6.628   3.845 -1.5123  1.4730  0.6558
 6427TIP3   OH240771   2.879   0.525  12.191 -0.5357 -0.6202 -0.3353
 6427TIP3    H140772   2.899   0.459  12.124  2.1511 -1.5776  1.2846
 6427TIP3    H240773   2.867   0.606  12.141  0.3205 -1.4972 -2.0666
 6428TIP3   OH240774   2.631   5.158   5.883 -0.2636  0.0852  0.6196
 6428TIP3    H140775   2.685   5.121   5.813 -0.5927  1.6935 -0.5470
 6428TIP3    H240776   2.544   5.165   5.845 -0.2514  1.8414  0.8342
 6429TIP3   OH240777   6.656   1.667  11.462 -0.4965 -0.3275  0.4339
 6429TIP3    H140778   6.690   1.670  11.372  0.5196 -2.7656  0.6512
 6429TIP3    H240779   6.723   1.711  11.514 -0.8076  0.5741  0.0945
 6430TIP3   OH240780   2.185   6.645   0.767 -0.0916 -0.3830 -0.0172
 6430TIP3    H140781   2.254   6.592   0.727  1.4287  1.3097  0.2437
 6430TIP3    H240782   2.211   6.652   0.859  0.3154  1.6197 -0.2460
 6431TIP3   OH240783   0.819   2.237  11.695  0.1058  0.0141 -0.0593
 6431TIP3    H140784   0.837   2.152  11.736  0.7956  0.8495  1.4237
 6431TIP3    H240785   0.814   2.217  11.601  0.2860 -1.6526  0.2486
 6432TIP3   OH240786   1.249   3.950   1.625 -0.1617  0.3820  0.8073
 6432TIP3    H140787   1.197   3.870   1.622  1.3397 -0.6034  0.3367
 6432TIP3    H240788   1.282   3.961   1.536  0.0922  1.2295  0.9945
 6433TIP3   OH240789   2.738   2.397   5.821  0.0993 -0.0794 -0.4167
 6433TIP3    H140790   2.777   2.432   5.901  3.0842  2.5401 -2.7682
 6433TIP3    H240791   2.782   2.313   5.809 -0.8487 -0.8079  0.9439
 6434TIP3   OH240792   4.058   3.535  12.733 -0.6489  0.6600 -0.0997
 6434TIP3    H140793   3.999   3.478  12.683 -0.2548  0.4460 -0.3277
 6434TIP3    H240794   4.144   3.516  12.697 -0.3318  0.3570  0.7962
 6435TIP3   OH240795   3.828   0.162  16.472 -0.5639  0.0466 -0.3775
 6435TIP3    H140796   3.836   0.159  16.567  0.6323 -1.5039 -0.4852
 6435TIP3    H240797   3.734   0.154  16.455 -0.8806  1.2367  0.6618
 6436TIP3   OH240798   2.607   3.545   2.968  0.1425  0.7001 -0.2493
 6436TIP3    H140799   2.681   3.513   2.916 -0.1356 -1.1916  0.4266
 6436TIP3    H240800   2.569   3.615   2.915  0.7003 -0.2156 -1.9443
 6437TIP3   OH240801   3.156   5.831  14.865 -0.3668 -0.2068  0.0924
 6437TIP3    H140802   3.140   5.840  14.959  0.2811  0.4104  0.1550
 6437TIP3    H240803   3.139   5.918  14.829  0.2149 -0.2208 -0.2278
 6438TIP3   OH240804   4.259   2.192  12.889 -0.1851 -0.3710  0.2782
 6438TIP3    H140805   4.327   2.230  12.834 -1.6108  1.0104 -0.6192
 6438TIP3    H240806   4.203   2.266  12.912 -1.2380 -1.4131  1.2131
 6439TIP3   OH240807   4.994   2.235   6.752  0.2230 -0.4733  0.2782
 6439TIP3    H140808   5.069   2.273   6.706 -0.9740  0.6262 -0.8433
 6439TIP3    H240809   5.032   2.189   6.826  1.9358  1.1289  0.4627
 6440TIP3   OH240810   4.425   2.576  14.748 -0.0146  0.1872 -0.1967
 6440TIP3    H140811   4.343   2.583  14.700  0.1254  0.8649 -0.3475
 6440TIP3    H240812   4.399   2.545  14.835 -0.2782 -0.9515 -0.6717
 6441TIP3   OH240813   0.906   4.886  14.882 -0.3820 -0.5973 -0.3764
 6441TIP3    H140814   0.835   4.855  14.826 -0.7024  0.2784 -0.4852
 6441TIP3    H240815   0.932   4.970  14.843 -0.2233 -0.2462  0.4538
 6442TIP3   OH240816   1.950   5.678  11.841 -0.2387  0.2193 -0.1314
 6442TIP3    H140817   1.945   5.615  11.913  1.5610 -0.2406 -0.3636
 6442TIP3    H240818   1.862   5.678  11.804 -1.0499  0.0467  1.6970
 6443TIP3   OH240819   0.898   5.465  14.580  1.0181  0.0787  0.5874
 6443TIP3    H140820   0.973   5.525  14.587  2.2776 -1.3800  0.1365
 6443TIP3    H240821   0.917   5.396  14.644  0.0529 -0.3210  0.4581
 6444TIP3   OH240822   2.823   1.929   1.261 -0.3694 -0.3045  0.2288
 6444TIP3    H140823   2.821   1.909   1.168 -1.4268  2.3256 -0.4130
 6444TIP3    H240824   2.880   2.005   1.268 -1.0765  0.1443  1.5630
 6445TIP3   OH240825   5.902   3.000  15.643  0.2668  0.1545  0.2188
 6445TIP3    H140826   5.852   2.924  15.611  0.9243 -0.3572  0.4034
 6445TIP3    H240827   5.835   3.067  15.658 -0.1326  0.3232 -1.9029
 6446TIP3   OH240828   2.332   0.330  14.965  0.4686  0.2790  0.2284
 6446TIP3    H140829   2.360   0.375  15.044  0.7484 -0.3154  0.4717
 6446TIP3    H240830   2.253   0.281  14.991  0.6488 -0.0405  0.1861
 6447TIP3   OH240831   4.667   1.046   1.540 -0.3471  0.1242  0.1634
 6447TIP3    H140832   4.730   0.992   1.588  0.4470  1.7287  1.0094
 6447TIP3    H240833   4.707   1.058   1.454  0.3782  0.8792  0.5950
 6448TIP3   OH240834   5.612   5.694   5.476 -0.0955 -0.3112  0.5724
 6448TIP3    H140835   5.605   5.751   5.553 -0.2478 -0.7257  0.8699
 6448TIP3    H240836   5.693   5.644   5.490  0.3785  0.2800  0.0018
 6449TIP3   OH240837   5.780   5.141  10.093 -0.4287 -0.4531 -0.1679
 6449TIP3    H140838   5.847   5.075  10.113 -1.2455 -1.0369  0.7483
 6449TIP3    H240839   5.759   5.179  10.178 -0.4344  0.5388 -0.6070
 6450TIP3   OH240840   5.132   5.269   1.883  0.1287 -0.1320 -0.4692
 6450TIP3    H140841   5.174   5.214   1.816  0.4633 -0.5188  0.0574
 6450TIP3    H240842   5.126   5.214   1.960  2.5089  1.2303  0.8011
 6451TIP3   OH240843   6.219   0.213   1.533 -0.4176 -0.5045 -0.0969
 6451TIP3    H140844   6.229   0.307   1.519  0.5445 -0.8425 -1.9461
 6451TIP3    H240845   6.175   0.206   1.618  2.4697  1.5019  1.7409
 6452TIP3   OH240846   0.729   2.935   5.407  0.3970 -0.0613  0.2757
 6452TIP3    H140847   0.718   2.997   5.336 -0.4938 -1.5137 -0.9239
 6452TIP3    H240848   0.647   2.885   5.407  0.2216  0.1221  2.5629
 6453TIP3   OH240849   2.923   4.278  16.948  0.3643  0.0461  0.0732
 6453TIP3    H140850   3.004   4.288  16.897 -0.0216  0.2045 -0.5180
 6453TIP3    H240851   2.853   4.285  16.883 -0.1339  0.1634  0.6163
 6454TIP3   OH240852   1.796   1.393   0.721 -0.2322 -0.1452  0.3454
 6454TIP3    H140853   1.814   1.333   0.793 -0.3884  0.0337  0.5333
 6454TIP3    H240854   1.702   1.412   0.727  0.1327  1.5293  1.3877
 6455TIP3   OH240855   1.064   0.022  12.400  0.0005 -0.0917  0.1929
 6455TIP3    H140856   1.095   0.054  12.316  0.3700  0.9501  0.7055
 6455TIP3    H240857   1.124   0.060  12.464 -2.5446  2.4739  1.2821
 6456TIP3   OH240858   3.915   5.397  14.865  0.5994  0.4573  0.0706
 6456TIP3    H140859   3.869   5.439  14.937  0.8319  0.6597  0.1050
 6456TIP3    H240860   3.911   5.460  14.794  0.2427  0.1944 -0.1392
 6457TIP3   OH240861   3.423   0.626   5.065  0.1792 -0.8005  0.1284
 6457TIP3    H140862   3.345   0.665   5.102  0.4412  0.0613 -0.2069
 6457TIP3    H240863   3.392   0.545   5.024 -0.8478  0.2935 -1.4010
 6458TIP3   OH240864   0.655   3.036   2.016  0.1375  0.1233 -0.2752
 6458TIP3    H140865   0.611   2.952   2.028  1.6908 -0.6857 -0.0471
 6458TIP3    H240866   0.583   3.099   2.008 -1.0529 -1.0007  1.0248
 6459TIP3   OH240867   2.281   3.770   0.203 -0.1014  0.0878  0.2325
 6459TIP3    H140868   2.250   3.687   0.239 -0.0137 -1.0072 -2.0206
 6459TIP3    H240869   2.290   3.827   0.278 -2.9751 -1.0072  1.5463
 6460TIP3   OH240870   3.308   2.826  15.063  0.2603 -0.1745  0.1604
 6460TIP3    H140871   3.370   2.827  14.990 -0.3804  0.7015 -0.3949
 6460TIP3    H240872   3.356   2.866  15.136  0.4741  0.1554 -0.1608
 6461TIP3   OH240873   5.142   3.677  13.085  0.1136  0.5629 -0.5405
 6461TIP3    H140874   5.125   3.619  13.010 -1.4649  1.3285 -0.8287
 6461TIP3    H240875   5.233   3.660  13.108  0.2397 -0.6817 -1.7757
 6462TIP3   OH240876   5.532   3.817  17.138 -0.2013 -0.1274 -0.8000
 6462TIP3    H140877   5.625   3.833  17.155 -0.3855  0.2705 -0.1155
 6462TIP3    H240878   5.520   3.840  17.046  0.4004 -0.3094 -0.9311
 6463TIP3   OH240879   3.386   6.241   3.609  0.4025  0.6199  0.1383
 6463TIP3    H140880   3.467   6.230   3.660  0.7603 -0.0246 -0.5447
 6463TIP3    H240881   3.414   6.234   3.518 -0.1847  2.0429 -0.1786
 6464TIP3   OH240882   4.651   5.963  11.891 -0.1279 -0.0119  0.5065
 6464TIP3    H140883   4.744   5.957  11.871  0.2091  1.2131  1.5533
 6464TIP3    H240884   4.607   5.938  11.810  1.0966 -0.9272  0.1028
 6465TIP3   OH240885   1.638   4.200   6.478  0.4143 -0.1041 -0.2385
 6465TIP3    H140886   1.614   4.224   6.567  1.2796 -0.3156  0.0672
 6465TIP3    H240887   1.709   4.136   6.490 -0.2698 -1.0292 -1.0547
 6466TIP3   OH240888   5.702   1.760  16.782 -0.1753  0.1902 -0.2240
 6466TIP3    H140889   5.712   1.754  16.686 -0.3451  0.0933 -0.2355
 6466TIP3    H240890   5.737   1.846  16.804  1.1161 -0.3054 -0.2197
 6467TIP3   OH240891   0.512   2.869   0.661  0.1270  0.1449 -0.2026
 6467TIP3    H140892   0.438   2.880   0.601 -1.3511  0.2233  1.5262
 6467TIP3    H240893   0.532   2.958   0.691  2.4219  0.4141 -2.2528
 6468TIP3   OH240894   2.610   0.807   6.534  0.1673  0.0347  0.0923
 6468TIP3    H140895   2.544   0.754   6.490  0.8661 -0.2574 -0.6324
 6468TIP3    H240896   2.580   0.813   6.625 -0.5840 -0.5199 -0.1121
 6469TIP3   OH240897   2.790   5.189  13.929 -0.4115 -0.2665  0.5464
 6469TIP3    H140898   2.812   5.131  13.856 -1.1631 -0.1745  0.2459
 6469TIP3    H240899   2.856   5.259  13.924 -1.8660  1.0597 -1.5417
 6470TIP3   OH240900   5.039   4.628   5.048  0.1756  0.4379 -0.7040
 6470TIP3    H140901   5.099   4.557   5.026  0.3151  0.4704 -0.4334
 6470TIP3    H240902   4.992   4.646   4.966  0.3014  0.1919 -0.8321
 6471TIP3   OH240903   3.987   2.666   5.625  0.4501 -0.3196 -0.3560
 6471TIP3    H140904   4.079   2.688   5.616  0.4899 -0.5623 -0.5586
 6471TIP3    H240905   3.975   2.590   5.569  0.3028 -0.7769  0.2771
 6472TIP3   OH240906   3.022   5.115  10.853  0.8794  0.7213  0.3042
 6472TIP3    H140907   3.109   5.142  10.823  0.4299  0.8793 -0.8952
 6472TIP3    H240908   3.038   5.037  10.906  1.6164 -0.3908 -1.4547
 6473TIP3   OH240909   1.032   3.969  13.998  0.1662  0.6849 -0.0634
 6473TIP3    H140910   1.126   3.964  13.984  0.1624  1.0910 -0.2475
 6473TIP3    H240911   0.998   4.011  13.919 -0.1729  0.5083 -0.0128
 6474TIP3   OH240912   0.267   1.369   1.026 -0.2831  0.1926 -0.2847
 6474TIP3    H140913   0.208   1.421   0.972 -0.7763 -0.6760 -0.5917
 6474TIP3    H240914   0.243   1.391   1.116  0.9284  2.0901 -0.3536
 6475TIP3   OH240915   0.052   2.526  17.491 -0.0552 -0.6579 -0.1874
 6475TIP3    H140916  -0.036   2.560  17.508  0.2144 -0.6060  1.2653
 6475TIP3    H240917   0.107   2.605  17.483  0.4930 -0.6035  2.7545
 6476TIP3   OH240918   1.410   0.885  13.175 -0.7495  0.3762  0.3185
 6476TIP3    H140919   1.333   0.938  13.198 -1.3396  0.6321 -1.9684
 6476TIP3    H240920   1.469   0.947  13.131 -0.4836 -0.3856 -0.4195
 6477TIP3   OH240921   6.327   0.836  16.203  0.5601 -0.1784 -0.6136
 6477TIP3    H140922   6.316   0.757  16.255  1.6252  0.5865  0.8720
 6477TIP3    H240923   6.349   0.904  16.267  0.5795  1.1171 -1.9323
 6478TIP3   OH240924   2.766   2.596   1.901  0.3702  0.0737  0.2126
 6478TIP3    H140925   2.783   2.502   1.910 -1.2297 -0.0823  2.0268
 6478TIP3    H240926   2.839   2.637   1.947  0.1955 -0.3401  0.8771
 6479TIP3   OH240927   3.624   3.402  17.111 -0.3540  0.3849 -0.2820
 6479TIP3    H140928   3.659   3.333  17.166  2.1876  1.8887  0.1476
 6479TIP3    H240929   3.654   3.483  17.152 -0.7540  1.6530 -2.3405
 6480TIP3   OH240930   2.647   1.434   4.836 -0.0475 -0.2219  0.1588
 6480TIP3    H140931   2.660   1.386   4.754 -0.0934 -0.1079  0.0831
 6480TIP3    H240932   2.566   1.484   4.821  1.4940  2.1545 -0.8772
 6481TIP3   OH240933   5.529   4.797   1.852 -0.5045  0.4402  0.1035
 6481TIP3    H140934   5.530   4.763   1.762  0.3020  2.7579 -0.8366
 6481TIP3    H240935   5.440   4.831   1.864 -0.4316  0.6885 -0.0532
 6482TIP3   OH240936   1.803   2.415   2.955  0.2266 -0.0312  1.1247
 6482TIP3    H140937   1.727   2.358   2.964  1.8137 -2.0550  2.5600
 6482TIP3    H240938   1.875   2.365   2.993  2.1357  2.1316  0.5495
 6483TIP3   OH240939   1.273   0.963  13.656  0.3321  0.0606 -0.1203
 6483TIP3    H140940   1.185   0.984  13.627 -0.0307  2.0911  2.0973
 6483TIP3    H240941   1.325   1.041  13.634  0.4870  0.7873  2.4808
 6484TIP3   OH240942   3.636   6.554   3.339  0.3161 -0.5222 -0.1502
 6484TIP3    H140943   3.630   6.609   3.260  0.1651  3.6119  2.4390
 6484TIP3    H240944   3.545   6.540   3.365  0.2954 -3.1314 -1.3237
 6485TIP3   OH240945   6.531   2.502   3.934 -0.0311  0.0659 -0.3643
 6485TIP3    H140946   6.625   2.497   3.919 -0.0230 -2.5378  0.0810
 6485TIP3    H240947   6.495   2.534   3.851  1.2440  2.0148 -0.2517
 6486TIP3   OH240948   6.548   2.087  17.662 -0.1368  0.0111  0.2893
 6486TIP3    H140949   6.616   2.137  17.615 -1.2525  0.7032 -0.6470
 6486TIP3    H240950   6.597   2.025  17.716  1.2367 -0.0586 -0.9670
 6487TIP3   OH240951   2.487   3.958   6.142 -0.0887  0.0269 -0.1328
 6487TIP3    H140952   2.394   3.933   6.144  0.2521 -1.6404 -2.2226
 6487TIP3    H240953   2.534   3.875   6.140  1.2580  0.7431 -3.5001
 6488TIP3   OH240954   5.688   6.661   1.095 -0.3378  0.1221  0.7568
 6488TIP3    H140955   5.620   6.675   1.161  0.2395 -0.5457  1.5104
 6488TIP3    H240956   5.722   6.573   1.113  0.3230  0.2143  0.0246
 6489TIP3   OH240957   2.350   6.207  14.339 -0.7714 -0.2237  0.1206
 6489TIP3    H140958   2.325   6.238  14.252  0.1644 -0.5571 -0.2860
 6489TIP3    H240959   2.313   6.119  14.345  1.6454 -1.4607 -1.2004
 6490TIP3   OH240960   6.507   0.360   1.955  0.2577 -0.0048  0.0240
 6490TIP3    H140961   6.451   0.383   2.030  0.3315 -0.6044  0.2707
 6490TIP3    H240962   6.502   0.265   1.950  1.1800 -0.0601 -0.0116
 6491TIP3   OH240963   0.374   1.270   4.927  0.0893 -0.1103 -0.7325
 6491TIP3    H140964   0.432   1.320   4.869 -0.3098  1.7829  0.4257
 6491TIP3    H240965   0.390   1.179   4.904  2.7468  0.3973 -1.1846
 6492TIP3   OH240966   1.491   4.161  12.549  0.3516 -0.0376  0.3397
 6492TIP3    H140967   1.415   4.194  12.598  1.3562 -0.9903  2.7196
 6492TIP3    H240968   1.506   4.226  12.480 -0.8851  1.6642  1.5901
 6493TIP3   OH240969   2.169   1.962   6.033 -0.1833  0.1680 -0.0808
 6493TIP3    H140970   2.174   2.051   6.066 -0.5024 -0.1223  0.7885
 6493TIP3    H240971   2.150   1.909   6.111  2.6940 -1.0047 -0.0576
 6494TIP3   OH240972   1.505   4.782  16.848 -0.0032  0.1976 -0.8537
 6494TIP3    H140973   1.534   4.801  16.759 -0.3167 -0.8515 -1.1918
 6494TIP3    H240974   1.469   4.693  16.844 -2.4467  1.0873 -0.2490
 6495TIP3   OH240975   4.567   6.373  14.077  0.1351 -0.1609  0.9074
 6495TIP3    H140976   4.562   6.282  14.105  0.4273  0.0185  1.5634
 6495TIP3    H240977   4.660   6.387  14.057 -0.2593 -0.7099 -1.6762
 6496TIP3   OH240978   5.504   2.457  12.726  0.1836  0.2082  0.3384
 6496TIP3    H140979   5.565   2.405  12.673  1.8523  0.3576  2.0054
 6496TIP3    H240980   5.496   2.540  12.680 -1.0892 -0.8190 -1.4071
 6497TIP3   OH240981   1.826   4.413  14.363  0.0167  0.0638 -0.0420
 6497TIP3    H140982   1.788   4.459  14.288 -0.1185 -2.6457 -1.7343
 6497TIP3    H240983   1.752   4.366  14.402  0.6420 -0.9389 -0.0433
 6498TIP3   OH240984   4.037   5.102   0.182 -0.3941 -0.6162 -0.1299
 6498TIP3    H140985   3.944   5.124   0.171 -0.4297 -0.4344  0.5423
 6498TIP3    H240986   4.083   5.185   0.169 -0.3086 -0.7243 -0.5598
 6499TIP3   OH240987   3.374   6.238  13.281  0.6245 -0.3554  0.3640
 6499TIP3    H140988   3.317   6.314  13.288 -0.0274 -0.6526 -1.2077
 6499TIP3    H240989   3.463   6.273  13.293  0.3861  0.7790 -0.8926
 6500TIP3   OH240990   1.283   4.755  17.506  0.0059 -0.0328  0.1796
 6500TIP3    H140991   1.294   4.690  17.437 -0.5807 -0.5985  0.6149
 6500TIP3    H240992   1.369   4.759  17.549 -0.0026 -0.6528  0.2660
 6501TIP3   OH240993   3.822   3.537  12.257  0.3785  0.3005  0.1003
 6501TIP3    H140994   3.779   3.470  12.205 -1.0207  1.6315 -0.5435
 6501TIP3    H240995   3.750   3.583  12.300  1.3861  0.5920  1.5265
 6502TIP3   OH240996   1.279   1.712  13.150 -0.2916  0.3604  0.2624
 6502TIP3    H140997   1.192   1.741  13.123  0.1053  1.5099  0.1530
 6502TIP3    H240998   1.328   1.705  13.068 -0.1076  0.3273  0.3752
 6503TIP3   OH240999   4.233   5.925  16.635 -0.1898 -1.2148 -0.1660
 6503TIP3    H141000   4.270   6.012  16.626 -0.2575 -1.2062 -0.3798
 6503TIP3    H241001   4.178   5.914  16.558 -1.1581 -0.9700  0.4780
 6504TIP3   OH241002   4.957   5.098   0.452 -0.4795 -0.7279  0.3391
 6504TIP3    H141003   5.045   5.091   0.416  0.4877  2.0302  1.8957
 6504TIP3    H241004   4.908   5.148   0.386  0.2297  1.0141  1.0794
 6505TIP3   OH241005   4.365   4.866   3.593 -0.1597  0.2214  0.2237
 6505TIP3    H141006   4.278   4.904   3.608 -0.2032  0.1598  0.1275
 6505TIP3    H241007   4.409   4.928   3.535 -0.2883  0.0470 -0.0643
 6506TIP3   OH241008   6.116   1.917  12.005 -0.3470  0.1309  0.7379
 6506TIP3    H141009   6.025   1.937  11.982 -0.6833 -0.9170  1.0976
 6506TIP3    H241010   6.154   1.886  11.923 -0.7221 -0.7751  0.8916
 6507TIP3   OH241011   4.076   2.517  15.993 -0.2004 -0.0190  0.0018
 6507TIP3    H141012   4.119   2.583  16.048 -0.7754 -0.7546  1.3875
 6507TIP3    H241013   4.021   2.568  15.934 -0.5157  0.7609  0.9402
 6508TIP3   OH241014   2.117   5.156  14.553  0.4673  0.0536 -0.2161
 6508TIP3    H141015   2.087   5.070  14.522 -2.0893  0.7097  0.1782
 6508TIP3    H241016   2.069   5.170  14.634  1.7155  1.3906  0.3270
 6509TIP3   OH241017   4.655   1.654   4.839 -0.9687  0.6294  0.0642
 6509TIP3    H141018   4.601   1.614   4.908 -1.1139  0.1323 -0.3309
 6509TIP3    H241019   4.729   1.692   4.886 -0.9913  0.1662  0.4891
 6510TIP3   OH241020   2.894   6.184  12.210 -0.5515 -0.8128  0.1304
 6510TIP3    H141021   2.988   6.199  12.205 -0.4306 -1.1335  1.1721
 6510TIP3    H241022   2.862   6.251  12.271 -0.8388 -1.3019  0.5288
 6511TIP3   OH241023   3.893   4.384   6.523  0.6999 -0.0353  0.0901
 6511TIP3    H141024   3.805   4.359   6.496  1.4689 -2.2371 -0.5582
 6511TIP3    H241025   3.881   4.422   6.610 -0.8202 -0.9274  0.3060
 6512TIP3   OH241026   0.637   4.378   3.562  0.3134 -0.2188  0.3342
 6512TIP3    H141027   0.599   4.461   3.588  1.1651  0.5212 -0.6937
 6512TIP3    H241028   0.722   4.375   3.605  0.4884 -0.3311 -0.0135
 6513TIP3   OH241029   2.277   0.939   3.022 -0.2807 -0.5261  0.3243
 6513TIP3    H141030   2.204   0.981   3.067 -0.2639  0.4878 -0.5593
 6513TIP3    H241031   2.238   0.901   2.943  0.0165 -0.6341  0.2284
 6514TIP3   OH241032   5.089   2.422  13.284  0.6970 -0.0813 -0.3768
 6514TIP3    H141033   5.079   2.344  13.339  0.3114 -0.6638 -1.2599
 6514TIP3    H241034   5.184   2.437  13.281  0.6929  0.3928  1.0221
 6515TIP3   OH241035   5.638   1.658  14.207 -0.0087 -0.0311  0.1680
 6515TIP3    H141036   5.637   1.580  14.151 -2.4056 -1.0865  1.5359
 6515TIP3    H241037   5.696   1.634  14.280  1.4139  0.5438 -0.7346
 6516TIP3   OH241038   5.516   0.410   2.843 -0.5392 -0.4657 -0.2864
 6516TIP3    H141039   5.534   0.402   2.936  0.5467  0.0686 -0.4351
 6516TIP3    H241040   5.456   0.338   2.823 -0.7509 -0.6032  0.8041
 6517TIP3   OH241041   3.978   3.689   2.837  0.0942 -0.4419  0.7587
 6517TIP3    H141042   4.056   3.656   2.882 -0.7646 -1.0805  1.8485
 6517TIP3    H241043   3.995   3.672   2.744  0.7648 -1.6609  1.0774
 6518TIP3   OH241044   1.307   5.669   3.887  0.3259  0.1475  0.5247
 6518TIP3    H141045   1.250   5.609   3.838  0.7385  0.7814 -0.7871
 6518TIP3    H241046   1.257   5.750   3.895  0.0988 -0.0839  1.5487
 6519TIP3   OH241047   6.161   4.035  12.944  0.3842  0.3913 -0.1998
 6519TIP3    H141048   6.091   3.991  12.896 -0.2079  1.2497 -0.1419
 6519TIP3    H241049   6.238   4.028  12.887  0.3947 -0.9748 -0.0567
 6520TIP3   OH241050   3.654   3.748  15.687  0.8388 -0.1650 -0.8591
 6520TIP3    H141051   3.706   3.818  15.727 -0.9391 -0.8179  3.0422
 6520TIP3    H241052   3.705   3.669  15.702  1.2009 -0.1800 -2.0594
 6521TIP3   OH241053   0.332   1.942   3.518  0.7011 -0.1919 -0.2187
 6521TIP3    H141054   0.246   1.946   3.477  0.0665  2.5315  1.1480
 6521TIP3    H241055   0.322   1.883   3.592  0.3767 -0.8779 -0.8011
 6522TIP3   OH241056   4.023   1.418   2.752  0.0400 -0.1383  0.1114
 6522TIP3    H141057   4.061   1.487   2.807  0.5476 -0.7805  0.5737
 6522TIP3    H241058   3.971   1.365   2.812  2.1553 -2.0129  0.4249
 6523TIP3   OH241059   3.622   3.213   4.801 -0.1844 -0.1007  0.0134
 6523TIP3    H141060   3.673   3.135   4.826 -1.0771 -0.8083 -0.3122
 6523TIP3    H241061   3.625   3.214   4.706 -2.5161 -1.3868 -0.1299
 6524TIP3   OH241062   4.096   5.041  10.954  0.3054 -0.0802  0.3025
 6524TIP3    H141063   4.003   5.061  10.966 -0.1038 -0.6965 -1.4615
 6524TIP3    H241064   4.104   5.023  10.860  2.1063 -0.5732  0.5231
 6525TIP3   OH241065   5.683   0.912  12.564  0.6031  0.0035 -0.5420
 6525TIP3    H141066   5.662   0.822  12.592 -0.0168 -1.0228 -3.8996
 6525TIP3    H241067   5.746   0.901  12.493  0.7356  2.2587 -0.8415
 6526TIP3   OH241068   4.992   1.673   5.530  0.0423 -0.1386 -0.6223
 6526TIP3    H141069   4.948   1.589   5.547  0.9933 -0.6363 -0.5494
 6526TIP3    H241070   5.025   1.700   5.616 -0.5957  0.5105 -0.5766
 6527TIP3   OH241071   5.317   0.699  17.059 -0.2478  0.4689  0.1472
 6527TIP3    H141072   5.298   0.686  16.966  0.2649  1.3187 -0.0760
 6527TIP3    H241073   5.358   0.785  17.065 -0.1114  0.3549  1.1418
 6528TIP3   OH241074   5.223   3.811   2.014  0.1978  0.4991 -0.4592
 6528TIP3    H141075   5.127   3.806   2.014  0.1158  1.2639  1.4313
 6528TIP3    H241076   5.243   3.892   1.967 -0.1797  1.2859  0.7175
 6529TIP3   OH241077   2.866   3.795   3.101 -0.0868 -0.2877 -0.3692
 6529TIP3    H141078   2.876   3.773   3.008  3.0792  2.1998 -0.7876
 6529TIP3    H241079   2.866   3.890   3.103 -0.3270 -0.2863  2.1850
 6530TIP3   OH241080   6.689   6.226  16.154  0.5516 -0.4354  0.4197
 6530TIP3    H141081   6.742   6.227  16.074  0.3464  2.6020  0.1991
 6530TIP3    H241082   6.752   6.207  16.224  1.1192 -0.9977 -0.2252
 6531TIP3   OH241083   2.579   1.194  17.475 -0.0380  0.0419 -0.0805
 6531TIP3    H141084   2.500   1.242  17.502  0.4016  0.8186 -0.1691
 6531TIP3    H241085   2.638   1.261  17.442  1.0677 -0.4075  0.9146
 6532TIP3   OH241086   2.770   2.804   5.989 -0.0927  0.2149 -0.4301
 6532TIP3    H141087   2.727   2.869   5.933  0.5566  1.6640  0.6784
 6532TIP3    H241088   2.711   2.729   5.988 -1.4259  1.2305 -0.8961
 6533TIP3   OH241089   2.372   0.167  17.576  0.0541 -0.3691  0.0558
 6533TIP3    H141090   2.287   0.125  17.589  0.1394 -0.1698  1.4503
 6533TIP3    H241091   2.428   0.128  17.643  0.6438  0.5920  0.1452
 6534TIP3   OH241092   4.336   5.278   4.960 -0.0217 -0.0332 -0.1068
 6534TIP3    H141093   4.337   5.191   4.920  0.4682 -0.8338  1.5748
 6534TIP3    H241094   4.380   5.335   4.896  0.3431 -1.1661 -0.8810
 6535TIP3   OH241095   1.381   5.785   4.165  0.0190  0.0906 -0.4534
 6535TIP3    H141096   1.315   5.817   4.225 -0.4139 -1.5412 -0.0015
 6535TIP3    H241097   1.331   5.741   4.096  0.5697  0.6383 -1.2250
 6536TIP3   OH241098   3.492   1.740   4.754 -0.3235  0.0493 -0.1389
 6536TIP3    H141099   3.445   1.819   4.778  2.4204  2.3021 -1.6112
 6536TIP3    H241100   3.511   1.749   4.661  1.9702 -1.2237  0.1060
 6537TIP3   OH241101   3.627   4.580  16.979  0.1070  0.2818 -0.6066
 6537TIP3    H141102   3.656   4.601  17.068  0.0619 -0.8193 -0.3158
 6537TIP3    H241103   3.534   4.604  16.978  0.2043  0.6741 -0.4908
 6538TIP3   OH241104   3.894   5.451  14.426  0.4474  0.3073 -0.0184
 6538TIP3    H141105   3.894   5.487  14.515 -1.5927 -0.9490  0.5438
 6538TIP3    H241106   3.865   5.524  14.371  1.5045  1.0293  0.3412
 6539TIP3   OH241107   2.464   2.155  11.671  0.7759  0.0153 -0.5166
 6539TIP3    H141108   2.517   2.123  11.599 -0.1271  0.3246 -1.3392
 6539TIP3    H241109   2.527   2.184  11.737  1.6061 -1.0358 -0.8331
 6540TIP3   OH241110   2.159   0.105   5.367 -0.3072 -0.1523  0.1294
 6540TIP3    H141111   2.072   0.088   5.329 -0.6854 -0.9376  1.2883
 6540TIP3    H241112   2.165   0.201   5.370 -0.7042 -0.0783 -0.8940
 6541TIP3   OH241113   4.831   3.735   3.771 -0.3787 -0.1734  0.4466
 6541TIP3    H141114   4.802   3.810   3.824 -1.5071 -0.9617  1.0023
 6541TIP3    H241115   4.757   3.673   3.775  0.9921 -1.8520  1.0545
 6542TIP3   OH241116   1.326   6.519  12.549  0.5367 -0.0458 -0.2217
 6542TIP3    H141117   1.260   6.506  12.617  0.5398 -1.5540 -0.4686
 6542TIP3    H241118   1.369   6.601  12.573 -0.4355  0.2047  0.7647
 6543TIP3   OH241119   3.394   6.152   4.449  0.4660  0.4965 -0.0781
 6543TIP3    H141120   3.400   6.157   4.353 -2.0377  0.1068 -0.3318
 6543TIP3    H241121   3.390   6.243   4.478  0.5690  0.6078 -0.4074
 6544TIP3   OH241122   5.262   5.384  13.182  0.0623 -0.2151 -0.6153
 6544TIP3    H141123   5.274   5.453  13.248  0.7433 -0.9027 -0.0046
 6544TIP3    H241124   5.255   5.303  13.233  0.2179 -0.7100 -1.3675
 6545TIP3   OH241125   5.927   3.875   2.823 -0.9863 -0.5231  0.0928
 6545TIP3    H141126   6.022   3.870   2.812 -0.3291  1.4854  3.3788
 6545TIP3    H241127   5.896   3.918   2.744  1.0129 -0.1906 -0.5778
 6546TIP3   OH241128   2.173   1.979  13.503 -0.3364 -0.0548 -0.1815
 6546TIP3    H141129   2.239   1.970  13.434  0.5766  2.1170  0.3146
 6546TIP3    H241130   2.113   2.046  13.469 -0.0203  0.8512  0.9886
 6547TIP3   OH241131   1.542   0.036  15.579  0.4193  1.0784 -0.1097
 6547TIP3    H141132   1.607   0.106  15.585 -0.3099  1.7586 -0.0045
 6547TIP3    H241133   1.495   0.054  15.498 -0.3614  1.2306  0.3677
 6548TIP3   OH241134   4.624   6.187   0.281 -0.1570 -0.4326  0.3385
 6548TIP3    H141135   4.639   6.093   0.272  1.0167 -0.1282 -1.2996
 6548TIP3    H241136   4.707   6.222   0.313  0.0365  0.2659 -0.8763
 6549TIP3   OH241137   5.522   1.676   1.239  0.2170 -0.4956  0.1729
 6549TIP3    H141138   5.604   1.676   1.289  0.4060 -0.1038 -0.1343
 6549TIP3    H241139   5.547   1.705   1.152 -0.3449  0.1651  0.2273
 6550TIP3   OH241140   2.811   2.572  12.057  0.1467 -0.2522 -0.7502
 6550TIP3    H141141   2.789   2.636  11.990 -2.1955  0.4609  0.5967
 6550TIP3    H241142   2.892   2.604  12.095  0.0876  0.7866 -1.4496
 6551TIP3   OH241143   1.808   1.423   4.712  0.7063 -0.2025 -0.1310
 6551TIP3    H141144   1.713   1.417   4.713  0.6061  0.8532 -0.9443
 6551TIP3    H241145   1.835   1.391   4.798 -0.3650 -0.7059  0.0321
 6552TIP3   OH241146   6.182   1.395  13.888 -0.0788 -0.0729  0.2289
 6552TIP3    H141147   6.140   1.385  13.803  0.8007 -0.8354 -0.1329
 6552TIP3    H241148   6.119   1.444  13.941 -0.0314  1.6978 -1.2934
 6553TIP3   OH241149   4.792   1.598   5.245 -0.0622 -0.7952 -0.4319
 6553TIP3    H141150   4.876   1.559   5.221  1.0681  0.1472  1.7685
 6553TIP3    H241151   4.782   1.673   5.186  1.7378  0.3919  0.7051
 6554TIP3   OH241152   5.544   3.668   3.140 -0.1198  0.6177 -0.1267
 6554TIP3    H141153   5.480   3.719   3.189  0.7402  1.2782  0.3418
 6554TIP3    H241154   5.609   3.642   3.205  1.1106  1.6217 -0.8982
 6555TIP3   OH241155   2.153   4.398  16.158 -0.0088 -0.0295  0.1277
 6555TIP3    H141156   2.129   4.378  16.248  2.3706 -2.7212  0.3097
 6555TIP3    H241157   2.200   4.482  16.163 -2.0926  1.1501  0.9155
 6556TIP3   OH241158   6.301   2.565  12.850  0.3427 -0.0140 -0.4100
 6556TIP3    H141159   6.306   2.651  12.892  1.0334 -0.6276  0.8083
 6556TIP3    H241160   6.361   2.510  12.900  0.1374 -1.1373 -1.3592
 6557TIP3   OH241161   5.139   1.325  12.280 -0.0806  0.2298 -0.2213
 6557TIP3    H141162   5.153   1.232  12.298  2.0652 -0.0063 -2.5446
 6557TIP3    H241163   5.106   1.328  12.190  1.6798  1.7391 -0.8923
 6558TIP3   OH241164   3.018   1.225   5.184 -0.3008  0.6380  0.0703
 6558TIP3    H141165   3.023   1.196   5.093 -0.0495  0.0381  0.2680
 6558TIP3    H241166   2.925   1.221   5.205 -0.2285 -0.6474  0.2693
 6559TIP3   OH241167   0.071   2.725  14.671  0.2652 -0.2635  0.3439
 6559TIP3    H141168   0.153   2.712  14.624  0.7992 -1.8687  1.6060
 6559TIP3    H241169   0.082   2.809  14.717  0.7430  0.0609 -0.3511
 6560TIP3   OH241170   1.560   0.409  15.698 -0.6433 -0.1488 -0.5420
 6560TIP3    H141171   1.535   0.460  15.775  0.4478 -2.5856  1.5709
 6560TIP3    H241172   1.480   0.363  15.672 -1.2097  1.2573 -1.4378
 6561TIP3   OH241173   0.497   0.967   1.211 -0.0793  0.1590  0.2543
 6561TIP3    H141174   0.568   0.903   1.205 -0.7058 -0.6843  1.3562
 6561TIP3    H241175   0.426   0.928   1.159 -0.4495 -0.0371  0.9003
 6562TIP3   OH241176   4.593   6.399  12.613  0.0021  0.1507 -0.4071
 6562TIP3    H141177   4.661   6.338  12.583 -0.2369 -0.1105 -0.4279
 6562TIP3    H241178   4.512   6.364  12.575  0.0207  1.1712 -1.4535
 6563TIP3   OH241179   3.257   6.286  17.015  0.9415  0.5298 -0.4810
 6563TIP3    H141180   3.316   6.216  17.045  0.7810  0.4515 -0.3492
 6563TIP3    H241181   3.216   6.319  17.095  0.7000  0.4893 -0.5888
 6564TIP3   OH241182   4.222   6.015  12.453 -0.1133  0.5262 -0.2323
 6564TIP3    H141183   4.209   6.077  12.381  1.3786  0.8489 -0.2613
 6564TIP3    H241184   4.223   6.070  12.532  2.5864  0.8000 -0.3704
 6565TIP3   OH241185   1.339   5.841  16.234  0.2907 -0.1466  0.0389
 6565TIP3    H141186   1.273   5.799  16.179  0.9230 -0.0319 -0.8403
 6565TIP3    H241187   1.418   5.788  16.221 -0.0652 -1.4181  2.5515
 6566TIP3   OH241188   3.385   1.586   0.528  0.2084  0.2129  0.6016
 6566TIP3    H141189   3.328   1.612   0.600  1.1051 -0.0232  1.4098
 6566TIP3    H241190   3.348   1.502   0.498  2.1779 -1.9238  3.5714
 6567TIP3   OH241191   6.634   2.581  12.348 -0.0296 -0.5244 -0.2824
 6567TIP3    H141192   6.566   2.537  12.399  0.0353  0.0020  0.2584
 6567TIP3    H241193   6.614   2.558  12.257 -0.6575 -0.7538 -0.0886
 6568TIP3   OH241194   3.109   2.144   4.041 -0.3436 -0.1940  0.2579
 6568TIP3    H141195   3.032   2.111   4.089 -1.5056  2.7070  0.6140
 6568TIP3    H241196   3.081   2.229   4.007  2.2830  0.3204 -0.8520
 6569TIP3   OH241197   6.406   1.946   1.360  0.1807 -0.1074  0.8327
 6569TIP3    H141198   6.485   1.969   1.410  0.7624  0.2136 -0.2104
 6569TIP3    H241199   6.349   1.903   1.424  1.1544 -0.2470  1.6295
 6570TIP3   OH241200   3.099   2.346  16.878  0.1262 -0.1676  0.3160
 6570TIP3    H141201   3.113   2.412  16.810 -1.2247  1.5115  1.5714
 6570TIP3    H241202   3.006   2.326  16.874 -0.1339  0.4985  2.0994
 6571TIP3   OH241203   1.415   1.479  15.786 -0.1073  0.2191 -0.4996
 6571TIP3    H141204   1.345   1.415  15.771  0.0184  0.1291 -0.7090
 6571TIP3    H241205   1.492   1.440  15.744 -0.4341  1.3090 -2.2140
 6572TIP3   OH241206   0.959   2.093  15.405  0.0593  0.4088 -0.0055
 6572TIP3    H141207   0.911   2.027  15.354 -0.4544  0.4935  0.3621
 6572TIP3    H241208   0.964   2.169  15.346  0.3179  0.1735 -0.2890
 6573TIP3   OH241209   3.321   4.060  11.971 -0.4547  0.2282  0.1271
 6573TIP3    H141210   3.349   4.138  11.923 -0.5215  0.9706  1.2446
 6573TIP3    H241211   3.382   4.055  12.045 -1.3652  0.0869  0.8861
 6574TIP3   OH241212   4.280   4.383  16.290  0.2872  0.1711 -0.2060
 6574TIP3    H141213   4.189   4.413  16.281  0.2260 -0.3950 -1.8603
 6574TIP3    H241214   4.316   4.438  16.359 -2.1026 -1.5805  2.6846
 6575TIP3   OH241215   0.669   4.185   1.142 -0.0984  0.6051 -0.5252
 6575TIP3    H141216   0.639   4.276   1.149 -0.2054  0.4785  1.0335
 6575TIP3    H241217   0.688   4.159   1.232 -0.2892 -0.9980 -0.9178
 6576TIP3   OH241218   2.344   3.797   4.909  0.2727  0.0115  0.5522
 6576TIP3    H141219   2.341   3.756   4.995 -2.1771 -0.7783  0.1581
 6576TIP3    H241220   2.280   3.749   4.856  0.7962  1.2673 -1.3584
 6577TIP3   OH241221   1.396   5.116  17.550 -0.1704  0.0165 -0.0896
 6577TIP3    H141222   1.303   5.131  17.534  0.1000  0.6086 -1.2389
 6577TIP3    H241223   1.408   5.022  17.538 -0.3389  0.1646 -1.6577
 6578TIP3   OH241224   4.917   2.935  14.326 -0.3949 -0.3289 -0.1674
 6578TIP3    H141225   4.892   2.970  14.240 -0.2798 -0.8962 -0.4354
 6578TIP3    H241226   4.849   2.967  14.385 -0.3374  0.2785 -0.4192
 6579TIP3   OH241227   5.842   5.263  15.508 -0.0483 -0.4862  0.3578
 6579TIP3    H141228   5.777   5.274  15.439 -0.0261 -0.5508  0.3262
 6579TIP3    H241229   5.807   5.193  15.563 -1.1108  0.9590  1.6232
 6580TIP3   OH241230   0.205   3.180  16.875 -0.3806 -0.1212 -0.8269
 6580TIP3    H141231   0.184   3.225  16.956 -0.2252 -2.5855  0.6802
 6580TIP3    H241232   0.121   3.149  16.842 -0.2883 -0.4794 -0.7353
 6581TIP3   OH241233   5.105   2.138  16.530  0.8381  0.5292 -0.0007
 6581TIP3    H141234   5.073   2.161  16.617 -1.8505  1.8017 -1.1994
 6581TIP3    H241235   5.187   2.187  16.521  1.4018  0.0066  1.9360
 6582TIP3   OH241236   3.195   0.577  15.411  0.0133 -0.5768 -0.0501
 6582TIP3    H141237   3.205   0.654  15.355  3.0928  0.8512  2.1777
 6582TIP3    H241238   3.137   0.519  15.362 -1.0385  2.3925 -2.6278
 6583TIP3   OH241239   2.831   0.490   4.086 -0.2096 -0.4514  0.6910
 6583TIP3    H141240   2.859   0.545   4.159  1.0827  1.0623 -0.8555
 6583TIP3    H241241   2.904   0.430   4.073 -1.2571 -2.0645  1.8194
 6584TIP3   OH241242   2.485   3.786   5.189 -0.4759 -0.2859  0.1613
 6584TIP3    H141243   2.499   3.703   5.142 -2.2003 -1.3635  1.4013
 6584TIP3    H241244   2.432   3.761   5.265 -0.6786  1.9137  0.8033
 6585TIP3   OH241245   1.159   4.550   3.295  1.1231 -0.4780  0.0365
 6585TIP3    H141246   1.162   4.616   3.364  1.0727 -0.0796 -0.3383
 6585TIP3    H241247   1.085   4.576   3.240 -0.5622 -2.2716  1.3017
 6586TIP3   OH241248   4.132   4.446   6.414  0.0627  0.5051 -0.5160
 6586TIP3    H141249   4.130   4.525   6.360 -1.4428  0.1027 -1.0804
 6586TIP3    H241250   4.043   4.437   6.447  0.5772 -0.1457  0.7627
 6587TIP3   OH241251   1.992   4.363   5.992 -0.1148 -0.4555 -0.5155
 6587TIP3    H141252   1.979   4.374   6.086 -0.4631 -1.0428 -0.4874
 6587TIP3    H241253   2.057   4.429   5.968 -0.8871  0.4943 -0.0713
 6588TIP3   OH241254   4.043   2.949   4.988  0.0189 -0.2248  0.0898
 6588TIP3    H141255   4.091   2.911   4.914 -0.7629 -0.9519 -0.0564
 6588TIP3    H241256   4.055   2.886   5.059 -2.9774 -1.9182 -0.7278
 6589TIP3   OH241257   4.373   3.890  13.070 -0.6325 -0.4787 -0.2370
 6589TIP3    H141258   4.320   3.846  13.137 -0.5896 -0.2478 -0.0487
 6589TIP3    H241259   4.408   3.819  13.017  0.4859 -0.7622  0.8343
 6590TIP3   OH241260   4.689   0.354  14.678 -0.3140 -0.0372  0.5472
 6590TIP3    H141261   4.651   0.393  14.756  1.1883 -0.9870  1.8173
 6590TIP3    H241262   4.731   0.427  14.632 -2.4110  0.7782 -0.1740
 6591TIP3   OH241263   2.778   1.835   4.895  0.0358  0.0943 -0.5193
 6591TIP3    H141264   2.851   1.773   4.893 -1.5335 -1.8592  0.4972
 6591TIP3    H241265   2.742   1.833   4.806  1.3057  1.2933 -1.1170
 6592TIP3   OH241266   2.945   0.518  11.026 -0.2236  0.7546 -0.2447
 6592TIP3    H141267   3.007   0.535  11.097 -0.2391 -0.4730  0.0879
 6592TIP3    H241268   2.862   0.504  11.070  0.3470 -3.3108 -0.0919
 6593TIP3   OH241269   6.538   5.600   0.442 -0.7639  0.5167  0.5883
 6593TIP3    H141270   6.618   5.579   0.395  0.6766  1.5724  2.4496
 6593TIP3    H241271   6.474   5.535   0.410  1.6992 -2.6012  1.4567
 6594TIP3   OH241272   3.767   0.720  16.457 -0.0069 -0.2782 -0.4968
 6594TIP3    H141273   3.722   0.805  16.464  2.3633  1.4176 -3.5368
 6594TIP3    H241274   3.858   0.739  16.479  0.3861 -2.3140 -0.2108
 6595TIP3   OH241275   3.912   3.547   6.608  0.5048 -0.0774  0.4485
 6595TIP3    H141276   3.905   3.634   6.647 -1.8901  0.6638 -1.3977
 6595TIP3    H241277   3.835   3.500   6.639 -1.7382  0.6695 -3.2918
 6596TIP3   OH241278   6.005   3.559  17.067 -0.4305 -0.1541  0.2341
 6596TIP3    H141279   6.061   3.486  17.093  0.6418  0.4536 -0.2835
 6596TIP3    H241280   6.063   3.636  17.069 -1.3699  0.5737  0.1455
 6597TIP3   OH241281   6.383   3.157  12.289 -0.1036 -0.2866 -1.1052
 6597TIP3    H141282   6.431   3.078  12.316 -0.3786 -0.1011 -0.0335
 6597TIP3    H241283   6.334   3.130  12.212 -1.4448 -1.6289  0.1638
 6598TIP3   OH241284   4.762   0.798  16.359  0.4338  0.7243 -0.0340
 6598TIP3    H141285   4.841   0.759  16.321  0.8651 -0.0738  1.5695
 6598TIP3    H241286   4.791   0.833  16.443 -1.0578 -0.3648  0.9980
 6599TIP3   OH241287   4.665   3.669   3.021  0.3892 -0.0587  0.0284
 6599TIP3    H141288   4.706   3.739   2.970 -0.7158  2.0968  1.9226
 6599TIP3    H241289   4.733   3.602   3.029  2.3289  1.8082  0.0680
 6600TIP3   OH241290   0.560   3.560  17.604  0.2271  0.2299 -0.1988
 6600TIP3    H141291   0.483   3.510  17.577  0.1902 -0.2416  0.7205
 6600TIP3    H241292   0.615   3.497  17.651 -0.0889  1.1324  1.5036
 6601TIP3   OH241293   4.569   4.889   0.599 -0.1377 -0.7518  0.1323
 6601TIP3    H141294   4.483   4.878   0.558  0.6317  0.1255 -1.8618
 6601TIP3    H241295   4.617   4.811   0.572  0.8103  0.4669 -1.9263
 6602TIP3   OH241296   2.811   0.295   0.786 -0.7327  0.2864 -0.3448
 6602TIP3    H141297   2.818   0.212   0.740 -1.3490  0.3327 -0.5333
 6602TIP3    H241298   2.764   0.274   0.867 -0.3177  0.3364 -0.0913
 6603TIP3   OH241299   3.603   5.819  12.874  0.0716 -0.2324 -0.5659
 6603TIP3    H141300   3.595   5.837  12.781  0.5052  0.2974 -0.5052
 6603TIP3    H241301   3.617   5.724  12.879 -0.5563 -0.3479 -0.9955
 6604TIP3   OH241302   6.672   6.167  12.150  0.0883 -0.3370  0.1041
 6604TIP3    H141303   6.640   6.251  12.183  0.5422 -0.2768  0.4109
 6604TIP3    H241304   6.603   6.136  12.092  0.3810  0.7427 -0.8496
 6605TIP3   OH241305   4.519   2.269   3.138  0.0111  0.1748  0.5336
 6605TIP3    H141306   4.516   2.333   3.208 -1.8248  0.9157 -0.1712
 6605TIP3    H241307   4.438   2.283   3.088  0.4029 -1.5074 -0.6812
 6606TIP3   OH241308   5.122   0.321  16.217  0.1346 -0.4718  0.5810
 6606TIP3    H141309   5.060   0.276  16.161 -0.7982  2.5847 -1.0113
 6606TIP3    H241310   5.085   0.312  16.305 -1.5755 -0.2985 -0.0840
 6607TIP3   OH241311   6.058   4.965  12.627  0.5142 -0.1975 -0.2586
 6607TIP3    H141312   6.145   4.937  12.600  1.1515 -0.8317  2.1418
 6607TIP3    H241313   6.000   4.894  12.598  1.3852 -1.6085  1.2310
 6608TIP3   OH241314   1.332   3.929   5.922 -0.2967  0.1501 -0.1274
 6608TIP3    H141315   1.400   3.971   5.975 -1.5538  2.6233 -0.3184
 6608TIP3    H241316   1.269   3.999   5.905 -2.7892 -1.9592 -0.1544
 6609TIP3   OH241317   5.352   1.984   0.589  0.7123  0.1211 -0.0815
 6609TIP3    H141318   5.423   1.974   0.526  0.8411  2.6244 -0.4235
 6609TIP3    H241319   5.301   2.059   0.557 -0.9176 -0.3487  1.2393
 6610TIP3   OH241320   6.225   5.146   0.286 -0.2048  0.9051 -0.5650
 6610TIP3    H141321   6.198   5.075   0.227 -1.7556  0.7417  0.2967
 6610TIP3    H241322   6.260   5.101   0.363  0.4779  1.1055 -0.7534
 6611TIP3   OH241323   2.559   4.631   5.387  0.2557 -0.2465  0.3750
 6611TIP3    H141324   2.534   4.542   5.364  0.0765 -0.2773  0.6791
 6611TIP3    H241325   2.615   4.622   5.464 -0.7998 -0.0255  1.1924
 6612TIP3   OH241326   1.410   4.035   4.591  0.0320 -0.2618 -0.5481
 6612TIP3    H141327   1.406   4.124   4.626 -0.5932 -0.8164  0.9068
 6612TIP3    H241328   1.497   4.029   4.550  0.6690  0.5807  0.6008
 6613TIP3   OH241329   2.971   5.348  15.411  0.3379  0.1100 -0.2280
 6613TIP3    H141330   3.033   5.327  15.481  0.3305  2.5995  0.6393
 6613TIP3    H241331   3.026   5.376  15.338  0.3195  1.0933  0.1100
 6614TIP3   OH241332   0.083   1.972  14.705 -0.0303  0.0428  0.0824
 6614TIP3    H141333   0.084   1.878  14.720  1.1046  0.1899  1.1103
 6614TIP3    H241334   0.080   1.982  14.610 -0.1144 -1.0290 -0.0324
 6615TIP3   OH241335   1.594   0.374   3.263  0.4662 -0.0647  0.3685
 6615TIP3    H141336   1.630   0.452   3.220  2.5291 -0.9447  0.3963
 6615TIP3    H241337   1.608   0.303   3.200 -3.8006 -0.1335 -0.8431
 6616TIP3   OH241338   2.892   2.728  16.717  0.7352  0.3401 -0.2891
 6616TIP3    H141339   2.952   2.669  16.672 -0.2156 -1.4898  0.7686
 6616TIP3    H241340   2.805   2.689  16.704 -0.1586  2.3952 -0.9463
 6617TIP3   OH241341   4.279   1.883   0.219 -0.4068  0.5855  0.4692
 6617TIP3    H141342   4.245   1.966   0.184 -0.9462 -0.0487 -0.5749
 6617TIP3    H241343   4.208   1.821   0.203  1.5084 -1.0190 -2.6720
 6618TIP3   OH241344   2.127   1.905  14.467  0.1952 -0.0804  0.7935
 6618TIP3    H141345   2.041   1.883  14.431  0.1123  1.8653 -0.3743
 6618TIP3    H241346   2.149   1.833  14.526 -1.0192 -1.9469 -0.9412
 6619TIP3   OH241347   0.208   1.437  17.038 -0.5105  0.0424 -0.2694
 6619TIP3    H141348   0.263   1.447  16.961 -1.7754  2.9805 -0.9320
 6619TIP3    H241349   0.162   1.354  17.024  1.4050 -0.9352 -1.1814
 6620TIP3   OH241350   4.026   1.664   1.601 -0.2207 -0.6615 -0.3184
 6620TIP3    H141351   4.107   1.687   1.647 -0.9959 -0.8084  1.1719
 6620TIP3    H241352   4.056   1.610   1.527  1.0540 -0.6456  0.1519
 6621TIP3   OH241353   0.688   6.320   4.296  0.0421  0.4026  0.3381
 6621TIP3    H141354   0.750   6.251   4.273 -0.7028  0.1438 -0.9695
 6621TIP3    H241355   0.699   6.331   4.391  1.0168 -0.6692  0.3706
 6622TIP3   OH241356   0.906   5.046   2.285  0.1414  0.3684  0.7263
 6622TIP3    H141357   0.860   5.100   2.221 -0.6046 -1.3422 -0.2532
 6622TIP3    H241358   0.909   5.100   2.364 -1.3409  1.4989  0.0675
 6623TIP3   OH241359   5.173   2.849  12.387  0.8398  0.1418 -0.4724
 6623TIP3    H141360   5.144   2.809  12.469  0.5137 -1.2465 -1.2354
 6623TIP3    H241361   5.266   2.866  12.401  0.7039  0.2886  0.3172
 6624TIP3   OH241362   3.109   2.662   0.763  0.2869  0.4491  0.0394
 6624TIP3    H141363   3.033   2.610   0.737 -0.1342  1.4963 -0.9516
 6624TIP3    H241364   3.170   2.653   0.689  1.9324 -1.7699  1.5406
 6625TIP3   OH241365   5.089   5.636  15.849  0.3107 -0.2509  0.3055
 6625TIP3    H141366   5.002   5.596  15.855 -0.3701  1.1220 -0.0162
 6625TIP3    H241367   5.112   5.632  15.756  0.6214 -0.6313  0.3920
 6626TIP3   OH241368   4.238   4.128  13.071  0.3542 -0.3864  0.4530
 6626TIP3    H141369   4.263   4.166  13.156  0.1043  1.0172 -0.0650
 6626TIP3    H241370   4.291   4.049  13.063 -0.3545 -1.1016  2.3636
 6627TIP3   OH241371   2.256   2.170   7.174 -0.3849 -0.0119  0.2518
 6627TIP3    H141372   2.220   2.145   7.089 -0.5509  0.6428  0.1267
 6627TIP3    H241373   2.280   2.087   7.215 -1.2509 -0.4099 -0.0110
 6628TIP3   OH241374   4.107   5.484  13.919 -0.5579  0.3510 -0.2701
 6628TIP3    H141375   4.144   5.463  13.833  0.8693  3.5708 -0.5784
 6628TIP3    H241376   4.050   5.559  13.902 -1.2033  0.2629  1.4171
 6629TIP3   OH241377   6.465   3.348   5.651 -0.4967  0.1981 -0.3708
 6629TIP3    H141378   6.421   3.344   5.567  1.0783  0.3430 -1.2316
 6629TIP3    H241379   6.516   3.267   5.655  0.2093  0.6556 -0.0023
 6630TIP3   OH241380   6.265   4.670  16.245  0.7808  0.5601 -0.4463
 6630TIP3    H141381   6.294   4.761  16.252  2.0895  0.0444  2.0043
 6630TIP3    H241382   6.267   4.637  16.335  0.8577 -2.0395 -1.3096
 6631TIP3   OH241383   5.244   2.249  14.237  0.0273  0.1852  0.0896
 6631TIP3    H141384   5.216   2.340  14.244 -0.6755 -0.0751  0.8813
 6631TIP3    H241385   5.272   2.240  14.146  0.8458  1.3833  0.1972
 6632TIP3   OH241386   6.231   0.365   4.499 -0.0031 -0.2335  0.3005
 6632TIP3    H141387   6.326   0.367   4.487  0.4683  0.6902  3.2703
 6632TIP3    H241388   6.197   0.425   4.433  1.3590 -1.2582 -1.3941
 6633TIP3   OH241389   2.815   0.385   4.754  0.4115 -0.1902  0.2828
 6633TIP3    H141390   2.871   0.429   4.818 -2.2287  1.9458  1.3090
 6633TIP3    H241391   2.802   0.451   4.685  2.2224 -2.0312 -1.9963
 6634TIP3   OH241392   6.005   6.500   1.484 -0.0323 -0.6010 -0.2863
 6634TIP3    H141393   6.095   6.470   1.495  0.1884 -0.2047 -0.9929
 6634TIP3    H241394   5.968   6.442   1.418  0.3774  0.6046 -1.6122
 6635TIP3   OH241395   0.004   4.744  15.217  0.6370 -0.1367 -0.1797
 6635TIP3    H141396  -0.060   4.791  15.271  1.3224  0.4743  0.1066
 6635TIP3    H241397   0.020   4.801  15.143  0.6513 -0.4144 -0.3923
 6636TIP3   OH241398   2.318   0.731  13.981 -0.0819 -0.4329 -0.1359
 6636TIP3    H141399   2.353   0.676  14.051 -1.7444 -0.2161  0.9186
 6636TIP3    H241400   2.346   0.820  14.005  0.2846 -0.4898 -0.3509
 6637TIP3   OH241401   4.358   0.537   1.916 -0.4340  0.5432  0.6814
 6637TIP3    H141402   4.439   0.587   1.924 -1.0996  1.4386  2.3303
 6637TIP3    H241403   4.368   0.488   1.834  1.0849  1.8383  0.0350
 6638TIP3   OH241404   3.674   3.316  12.653  0.1940 -0.8808  0.2059
 6638TIP3    H141405   3.614   3.255  12.609  0.1150 -0.0755 -0.8260
 6638TIP3    H241406   3.676   3.285  12.744 -1.5969 -1.0915  0.2158
 6639TIP3   OH241407   5.187   4.704  14.412 -0.0964 -0.5445  0.3100
 6639TIP3    H141408   5.230   4.645  14.349 -1.4253  1.4824 -2.7651
 6639TIP3    H241409   5.165   4.648  14.486  1.7165 -3.1091 -0.9164
 6640TIP3   OH241410   2.141   3.881   4.526  0.1364 -0.2403  0.4993
 6640TIP3    H141411   2.223   3.834   4.514 -0.4778 -1.3018  0.3521
 6640TIP3    H241412   2.162   3.973   4.508  1.2981 -0.4910  0.5497
 6641TIP3   OH241413   5.065   2.723   5.433  0.4099  0.1202  0.3395
 6641TIP3    H141414   5.068   2.741   5.339 -0.6953  1.7477  0.5531
 6641TIP3    H241415   5.087   2.807   5.473  0.4772 -0.4541  1.5362
 6642TIP3   OH241416   0.498   4.524  17.591  0.6170 -0.2924 -0.2170
 6642TIP3    H141417   0.519   4.525  17.685  0.1442 -0.0660 -0.1114
 6642TIP3    H241418   0.553   4.594  17.554  0.9372 -0.5002 -0.1404
 6643TIP3   OH241419   2.737   1.226   2.883  0.1410  0.0284  0.1101
 6643TIP3    H141420   2.693   1.147   2.913 -0.1203  0.4975  1.0315
 6643TIP3    H241421   2.823   1.223   2.925 -0.0063  0.4009  0.4495
 6644TIP3   OH241422   1.091   1.392   3.537  0.4313 -0.0231  0.8213
 6644TIP3    H141423   1.158   1.398   3.469  1.1441  0.0005  1.5130
 6644TIP3    H241424   1.018   1.445   3.504  0.9165  0.3035  0.2554
 6645TIP3   OH241425   5.462   5.581   5.284  0.0996 -0.3130  0.6683
 6645TIP3    H141426   5.495   5.631   5.359  1.9198 -0.4059 -0.0235
 6645TIP3    H241427   5.514   5.612   5.209  1.2306 -3.0881  0.1676
 6646TIP3   OH241428   4.636   6.011   6.394  0.4631 -0.0817  0.6289
 6646TIP3    H141429   4.711   6.022   6.335  2.0616  0.4211  2.6202
 6646TIP3    H241430   4.595   6.097   6.397 -0.2869 -0.3811 -0.5379
 6647TIP3   OH241431   6.443   5.344  16.946 -0.0418 -0.4478  0.0785
 6647TIP3    H141432   6.521   5.385  16.906  0.0263 -0.3791  0.2820
 6647TIP3    H241433   6.400   5.299  16.873 -0.8203  1.0660 -0.4398
 6648TIP3   OH241434   2.138   1.996   5.355  0.1290  0.3617 -0.0529
 6648TIP3    H141435   2.223   2.032   5.380  0.5041  0.9535 -2.0394
 6648TIP3    H241436   2.075   2.062   5.385  0.6349  1.5018 -1.3553
 6649TIP3   OH241437   3.538   0.043  13.353  0.6530 -0.6603  0.4420
 6649TIP3    H141438   3.579  -0.021  13.295  0.8381 -0.0929 -0.0703
 6649TIP3    H241439   3.520  -0.005  13.434 -1.0522 -1.9010 -0.6206
 6650TIP3   OH241440   5.739   3.633  12.810  0.3269  0.2383 -0.0009
 6650TIP3    H141441   5.773   3.572  12.875 -0.9021 -1.3042 -0.7291
 6650TIP3    H241442   5.756   3.591  12.726 -1.7920  0.1754 -0.4586
 6651TIP3   OH241443   2.730   4.422  15.795 -0.8762  0.1651  0.2015
 6651TIP3    H141444   2.782   4.341  15.788  0.2412  0.9423 -0.9468
 6651TIP3    H241445   2.640   4.394  15.782 -0.4503 -0.8212 -0.7633
 6652TIP3   OH241446   0.832   3.597   1.278 -0.1059  0.0357 -0.2606
 6652TIP3    H141447   0.897   3.583   1.346 -0.3494 -0.6643 -0.1673
 6652TIP3    H241448   0.808   3.509   1.249  0.5438  0.3245 -1.7739
 6653TIP3   OH241449   5.189   0.346   5.886 -0.6274 -0.0589 -0.1192
 6653TIP3    H141450   5.169   0.294   5.808 -0.6100 -1.0292  0.5179
 6653TIP3    H241451   5.284   0.341   5.894 -0.5171  0.9313 -0.6349
 6654TIP3   OH241452   0.710   5.972  15.028  0.7839  0.0003 -0.3476
 6654TIP3    H141453   0.798   6.010  15.024  0.9042 -0.0305  1.3840
 6654TIP3    H241454   0.719   5.895  15.084  0.2923 -2.0208 -2.8528
 6655TIP3   OH241455   6.323   4.333  15.076 -1.0534  0.8924 -0.2023
 6655TIP3    H141456   6.369   4.289  15.005 -0.2027  0.0326  0.8476
 6655TIP3    H241457   6.239   4.288  15.083 -0.6626  0.1837  0.0875
 6656TIP3   OH241458   6.440   4.789   5.675 -0.5404  0.1086 -0.6708
 6656TIP3    H141459   6.371   4.738   5.717 -1.7188 -0.3586 -3.0210
 6656TIP3    H241460   6.496   4.817   5.747 -2.4420 -0.6033  1.1851
 6657TIP3   OH241461   3.351   6.445  17.617  0.4656  0.4011 -0.3634
 6657TIP3    H141462   3.378   6.354  17.606  1.1139  0.2590  1.9595
 6657TIP3    H241463   3.341   6.478  17.527 -1.6876 -2.4614 -1.3347
 6658TIP3   OH241464   6.276   2.146  13.469 -0.1557  0.0042 -0.4039
 6658TIP3    H141465   6.200   2.202  13.482 -1.1709 -1.5522  0.6825
 6658TIP3    H241466   6.247   2.080  13.405  0.8599  0.3925 -1.3081
 6659TIP3   OH241467   2.745   5.818   1.100 -0.0404 -0.1765  0.0038
 6659TIP3    H141468   2.663   5.804   1.054 -0.0628 -0.1457  0.0341
 6659TIP3    H241469   2.769   5.731   1.133 -0.9936  0.1136  1.5588
 6660TIP3   OH241470   6.511   5.427  11.449  0.4062 -0.4577 -0.0916
 6660TIP3    H141471   6.517   5.517  11.481  0.2849 -0.1910 -0.8086
 6660TIP3    H241472   6.454   5.432  11.372 -0.5626 -1.3238  0.5274
 6661TIP3   OH241473   0.950   0.081   0.489 -0.6623 -0.8251 -0.3412
 6661TIP3    H141474   0.997   0.031   0.555 -1.4565  0.5893  1.3714
 6661TIP3    H241475   0.985   0.169   0.495 -0.3036 -0.7876 -2.2974
 6662TIP3   OH241476   4.387   2.019   2.868  0.1748 -0.8730  0.8529
 6662TIP3    H141477   4.479   1.992   2.875 -0.1647 -2.2093  0.3347
 6662TIP3    H241478   4.342   1.967   2.934 -0.3372 -0.7897  0.5718
 6663TIP3   OH241479   5.741   2.780  17.229  0.0652  0.0831 -0.5347
 6663TIP3    H141480   5.673   2.720  17.259 -0.0869  0.6553  0.3019
 6663TIP3    H241481   5.696   2.836  17.165  0.0437 -0.2843 -0.8397
 6664TIP3   OH241482   4.747   1.853  16.519 -0.3931 -0.5028 -0.5496
 6664TIP3    H141483   4.820   1.843  16.458  0.4465 -1.3888  0.5505
 6664TIP3    H241484   4.692   1.775  16.504 -0.4900 -0.4323 -0.5643
 6665TIP3   OH241485   2.252   0.762   5.754 -0.0226  0.7780 -0.3277
 6665TIP3    H141486   2.186   0.817   5.712 -1.1900 -0.2668  0.0770
 6665TIP3    H241487   2.242   0.780   5.848  1.3849  1.7885 -0.3210
 6666TIP3   OH241488   3.686   5.165  13.107  1.1937  0.4659 -0.3178
 6666TIP3    H141489   3.611   5.129  13.153 -0.4491  2.5344 -1.2441
 6666TIP3    H241490   3.722   5.090  13.059  1.4746 -1.1719  2.2531
 6667TIP3   OH241491   5.406   5.736   2.740  0.1549 -0.3787 -0.0957
 6667TIP3    H141492   5.319   5.773   2.755  0.5209  0.5125 -0.1023
 6667TIP3    H241493   5.389   5.655   2.691 -0.7600 -1.0099  1.2164
 6668TIP3   OH241494   4.545   1.735   1.830 -0.0134 -0.0369  0.2183
 6668TIP3    H141495   4.573   1.818   1.790 -2.0346  0.9712  0.7633
 6668TIP3    H241496   4.550   1.751   1.924  1.3033 -1.1828  0.3645
 6669TIP3   OH241497   6.126   5.570   0.341  0.3085  0.7033 -0.0621
 6669TIP3    H141498   6.200   5.607   0.390  0.1285  1.4213 -0.3241
 6669TIP3    H241499   6.069   5.644   0.324 -1.1358 -0.0538  1.2550
 6670TIP3   OH241500   3.402   1.609   5.444  0.4385 -0.2423  0.0610
 6670TIP3    H141501   3.395   1.601   5.349  3.0491  1.4385 -0.3977
 6670TIP3    H241502   3.451   1.532   5.471  0.6019 -0.1983 -0.1072
 6671TIP3   OH241503   5.800   6.273  17.380 -0.1436  0.0339  0.0938
 6671TIP3    H141504   5.715   6.302  17.348 -0.0314  0.5722  0.2716
 6671TIP3    H241505   5.833   6.215  17.311  0.2784  1.5206 -1.0031
 6672TIP3   OH241506   4.154   2.721   4.396 -0.0103 -0.3935 -0.1116
 6672TIP3    H141507   4.225   2.665   4.426  0.1244 -0.2010 -0.0670
 6672TIP3    H241508   4.109   2.670   4.328  0.2260 -0.4804 -0.2026
 6673TIP3   OH241509   3.883   1.952  15.913  0.4900  0.1492  0.3814
 6673TIP3    H141510   3.940   1.895  15.964  0.2106 -0.5968 -0.1228
 6673TIP3    H241511   3.900   2.040  15.947  2.2800  0.0091 -0.0768
 6674TIP3   OH241512   6.232   1.622   2.974 -0.3280  0.5763 -0.1941
 6674TIP3    H141513   6.158   1.635   3.033  0.4982 -0.9354  1.2675
 6674TIP3    H241514   6.283   1.702   2.981 -1.7218  1.5904 -1.1321
 6675TIP3   OH241515   0.052   3.766   2.372  0.3994  0.4484 -0.3385
 6675TIP3    H141516   0.026   3.774   2.464 -1.1190  1.0621 -0.7848
 6675TIP3    H241517   0.074   3.856   2.346 -0.6317  0.5397 -0.9566
 6676TIP3   OH241518   5.199   3.343  12.879 -0.3971  0.2381  1.1417
 6676TIP3    H141519   5.231   3.262  12.839  1.3314  1.2764  0.3153
 6676TIP3    H241520   5.261   3.363  12.949 -0.3567  1.2418  0.8397
 6677TIP3   OH241521   6.049   6.514   3.303  0.4103 -0.6244  0.1220
 6677TIP3    H141522   6.042   6.576   3.230 -3.5288 -0.0450  0.7664
 6677TIP3    H241523   6.029   6.567   3.380  0.9810 -1.9445  1.2052
 6678TIP3   OH241524   1.634   3.913  12.290  0.3699 -0.1503 -0.2895
 6678TIP3    H141525   1.558   3.858  12.271 -0.3048 -0.0085  1.7797
 6678TIP3    H241526   1.646   3.965  12.211 -0.4734 -1.5291 -1.3826
 6679TIP3   OH241527   5.345   4.254  11.623 -0.0667  0.6101  0.3098
 6679TIP3    H141528   5.383   4.287  11.542 -0.7160  2.0251  0.5669
 6679TIP3    H241529   5.368   4.319  11.689 -0.2173 -0.1364  1.1119
 6680TIP3   OH241530   0.968   3.057   1.308 -0.0456 -0.1335 -0.4136
 6680TIP3    H141531   1.039   3.004   1.344  0.0456  1.1525  1.4770
 6680TIP3    H241532   0.920   2.998   1.251  0.9807 -1.7886  0.3538
 6681TIP3   OH241533   1.703   3.544  12.140 -0.0108 -0.0939 -0.2744
 6681TIP3    H141534   1.744   3.528  12.055  0.5192  1.1911 -0.2854
 6681TIP3    H241535   1.733   3.471  12.195  2.5050  0.8562 -0.2253
 6682TIP3   OH241536   3.731   0.808  11.850  0.4691 -0.1542 -0.0809
 6682TIP3    H141537   3.801   0.873  11.838  0.1187  0.0933 -0.8102
 6682TIP3    H241538   3.777   0.726  11.867  0.9694 -0.1702 -1.4182
 6683TIP3   OH241539   0.421   6.307  13.472 -0.3301  0.0723  0.0223
 6683TIP3    H141540   0.441   6.373  13.405  0.5349 -0.9156 -0.7092
 6683TIP3    H241541   0.500   6.253  13.478 -0.3824  0.1432  1.8667
 6684TIP3   OH241542   0.777   4.839   1.636  0.0471 -0.3222 -0.6272
 6684TIP3    H141543   0.730   4.922   1.640 -2.2180 -1.5215 -0.9200
 6684TIP3    H241544   0.855   4.854   1.690 -0.2275  1.9971 -0.7482
 6685TIP3   OH241545   5.640   6.192   5.068 -0.3181  0.3977  0.5582
 6685TIP3    H141546   5.665   6.278   5.036 -0.3712  0.0383 -0.5168
 6685TIP3    H241547   5.549   6.181   5.038 -0.1910 -0.1720  0.3678
 6686TIP3   OH241548   6.303   4.951   1.013  0.3625 -0.1407  0.0053
 6686TIP3    H141549   6.337   4.917   0.930 -1.2294 -0.8883 -0.3980
 6686TIP3    H241550   6.260   5.034   0.989 -0.2394 -0.4372  0.0288
 6687TIP3   OH241551   6.541   1.025  17.090  0.3017  0.2631  0.0763
 6687TIP3    H141552   6.479   0.971  17.139  0.7886 -1.0473 -0.6809
 6687TIP3    H241553   6.624   1.014  17.136  0.5164 -0.0838 -0.3789
 6688TIP3   OH241554   4.931   3.281  17.244  0.8572 -0.2785  0.6202
 6688TIP3    H141555   4.880   3.218  17.195  1.0662 -0.5449  0.7422
 6688TIP3    H241556   4.899   3.273  17.334  0.7743 -0.0996  0.6075
 6689TIP3   OH241557   0.211   1.949   6.044 -1.1586  0.5033  0.3259
 6689TIP3    H141558   0.181   2.020   6.100 -0.4081 -0.1784  1.6744
 6689TIP3    H241559   0.156   1.874   6.069 -2.0679  0.6300 -1.2038
 6690TIP3   OH241560   2.075   5.426   6.844 -0.0026  0.1369  0.4221
 6690TIP3    H141561   1.984   5.445   6.866 -0.2511  0.1684 -0.5817
 6690TIP3    H241562   2.095   5.346   6.893 -0.7086 -0.0998  0.3405
 6691TIP3   OH241563   3.674   4.278   0.438  0.2418  0.0729 -0.3534
 6691TIP3    H141564   3.768   4.287   0.423  0.0603  1.0698 -0.9628
 6691TIP3    H241565   3.667   4.219   0.513  1.3013 -1.3273 -1.3083
 6692TIP3   OH241566   2.699   5.781   2.356  0.2971  0.0807  0.9016
 6692TIP3    H141567   2.757   5.710   2.386  0.7935 -0.2135 -0.6532
 6692TIP3    H241568   2.676   5.757   2.267 -0.3904  1.3618  0.7092
 6693TIP3   OH241569   2.518   4.066   7.021  0.2351 -0.4788 -0.2239
 6693TIP3    H141570   2.588   4.083   6.957  1.5408  0.8161  1.4651
 6693TIP3    H241571   2.564   4.035   7.099 -1.1159  0.1136  0.8339
 6694TIP3   OH241572   0.364   1.268  11.856 -0.4328 -0.0534  0.2646
 6694TIP3    H141573   0.406   1.314  11.783 -2.2754 -0.6318 -1.2446
 6694TIP3    H241574   0.436   1.225  11.902  0.7848  0.2259 -1.3043
 6695TIP3   OH241575   3.727   6.196   2.072 -0.0223 -0.3104 -0.1031
 6695TIP3    H141576   3.765   6.194   1.984  0.4937 -0.1708  0.1126
 6695TIP3    H241577   3.777   6.263   2.119 -0.6768  0.0318  0.1287
 6696TIP3   OH241578   3.573   4.799  15.671 -0.4393 -0.1389  1.0281
 6696TIP3    H141579   3.591   4.885  15.710  0.9428 -0.5002  1.2370
 6696TIP3    H241580   3.519   4.754  15.736  1.5426 -0.6059  2.4178
 6697TIP3   OH241581   3.709   6.037   0.799  0.1065 -0.1091 -0.4935
 6697TIP3    H141582   3.666   5.955   0.775  0.2892  0.1862 -1.9304
 6697TIP3    H241583   3.798   6.028   0.766  0.5438  0.1270  0.5870
 6698TIP3   OH241584   2.760   6.535  14.672  0.1668 -0.4582 -0.7654
 6698TIP3    H141585   2.708   6.594  14.617  1.0042 -0.0475 -1.1361
 6698TIP3    H241586   2.724   6.547  14.760  0.3368  0.6574 -0.8215
 6699TIP3   OH241587   2.752   4.718  15.078 -0.1426  0.2599 -0.6977
 6699TIP3    H141588   2.659   4.696  15.067 -0.1834 -0.3905  0.6945
 6699TIP3    H241589   2.790   4.640  15.119  0.8171  0.8744 -0.3893
 6700TIP3   OH241590   1.485   0.841   4.894  0.5554  0.2351 -0.5229
 6700TIP3    H141591   1.572   0.856   4.928  0.2869  0.1287  0.2185
 6700TIP3    H241592   1.499   0.819   4.801  1.3955 -0.8769 -0.1596
 6701TIP3   OH241593   0.173   3.026  12.498 -0.3197  0.4699 -0.0682
 6701TIP3    H141594   0.120   2.971  12.440 -1.4692 -0.3789  1.7088
 6701TIP3    H241595   0.233   3.072  12.439 -0.7436 -1.1016 -1.8219
 6702TIP3   OH241596   5.413   2.128   2.063 -0.3619 -0.0367  0.4991
 6702TIP3    H141597   5.448   2.066   1.999 -2.0099 -1.3817  0.8207
 6702TIP3    H241598   5.458   2.107   2.144 -2.0888 -2.0579  1.0198
 6703TIP3   OH241599   3.386   2.810  13.118  0.6490  0.2655  0.5929
 6703TIP3    H141600   3.436   2.731  13.099 -0.5526 -0.5177  0.5488
 6703TIP3    H241601   3.299   2.778  13.141  0.1902  1.5750  0.7668
 6704TIP3   OH241602   2.504   2.194   3.168 -0.2548  0.0946  0.1470
 6704TIP3    H141603   2.463   2.107   3.164 -0.5235  0.1600  1.1709
 6704TIP3    H241604   2.460   2.238   3.241 -0.3535  1.2187 -0.5771
 6705TIP3   OH241605   3.013   5.547  11.534 -0.2125 -0.4725 -0.1847
 6705TIP3    H141606   3.066   5.594  11.599  0.7591 -0.3038 -1.0825
 6705TIP3    H241607   3.076   5.515  11.470 -1.0200 -1.7942 -0.3478
 6706TIP3   OH241608   4.040   4.298  14.185  0.1767 -0.3878 -0.2936
 6706TIP3    H141609   3.949   4.272  14.167  0.3944 -0.1501 -1.9163
 6706TIP3    H241610   4.032   4.379  14.235 -0.5212 -0.1764 -0.7261
 6707TIP3   OH241611   0.700   3.209  14.171 -0.3742  0.3143  0.0476
 6707TIP3    H141612   0.667   3.187  14.258  1.0069 -1.3073  0.2039
 6707TIP3    H241613   0.766   3.277  14.187  0.6887 -0.7779  0.4274
 6708TIP3   OH241614   0.720   2.381   5.025  0.0516  0.4538  0.3303
 6708TIP3    H141615   0.735   2.447   5.094  0.4604  0.4815  0.2136
 6708TIP3    H241616   0.630   2.398   4.996 -0.0057  0.6649  0.6185
 6709TIP3   OH241617   4.286   0.062  14.688  0.0907 -0.0770 -0.2574
 6709TIP3    H141618   4.349   0.087  14.755  0.3003 -0.3444 -0.3575
 6709TIP3    H241619   4.232  -0.005  14.728  0.8887 -1.0029 -0.7071
 6710TIP3   OH241620   4.032   6.135   6.189 -0.5330 -0.1354 -0.2651
 6710TIP3    H141621   3.940   6.161   6.198 -0.1327  1.0457  0.8929
 6710TIP3    H241622   4.070   6.153   6.275  1.0961  0.7734 -1.1244
 6711TIP3   OH241623   1.983   6.712  15.460 -0.3225  0.0761 -0.7103
 6711TIP3    H141624   1.934   6.795  15.458  0.6514  0.6449 -2.1558
 6711TIP3    H241625   2.075   6.739  15.459  0.0266 -1.0219  0.0001
 6712TIP3   OH241626   2.211   3.205   4.033 -0.5590  0.2224  0.0709
 6712TIP3    H141627   2.224   3.235   3.943 -2.0312 -0.9856 -0.5748
 6712TIP3    H241628   2.298   3.177   4.062  0.4383  2.9070 -0.0641
 6713TIP3   OH241629   0.745   5.510  16.984  0.1560 -0.4087 -0.2574
 6713TIP3    H141630   0.717   5.514  17.076  1.0714  0.5581 -0.0066
 6713TIP3    H241631   0.835   5.540  16.985  0.1019 -0.1659 -1.5130
 6714TIP3   OH241632   2.381   4.293  11.335  0.2781  0.6712 -0.0199
 6714TIP3    H141633   2.465   4.271  11.295 -0.6896 -2.8217 -0.4228
 6714TIP3    H241634   2.323   4.308  11.260  0.2122  1.8568  0.2478
 6715TIP3   OH241635   4.098   0.500   2.852 -0.6012 -0.1036 -0.5611
 6715TIP3    H141636   4.087   0.510   2.757  0.7364 -0.7656 -0.8086
 6715TIP3    H241637   4.146   0.578   2.879  0.7395 -0.8305 -0.7739
 6716TIP3   OH241638   4.389   2.897  14.122  0.0243  0.1144  0.0877
 6716TIP3    H141639   4.297   2.886  14.146  0.1504 -0.0423  0.4910
 6716TIP3    H241640   4.427   2.946  14.194  0.7215 -1.5508  0.9092
 6717TIP3   OH241641   4.558   4.102  16.146 -0.0181 -0.0450 -0.0642
 6717TIP3    H141642   4.481   4.155  16.125  0.3299  1.2918  1.8044
 6717TIP3    H241643   4.606   4.154  16.211  2.5882 -0.7496 -1.3129
 6718TIP3   OH241644   1.881   1.697   6.029  0.1100  0.0568  0.8176
 6718TIP3    H141645   1.843   1.655   6.106 -0.0442  0.8353  1.1790
 6718TIP3    H241646   1.975   1.692   6.044  0.0834  0.1339  1.0189
 6719TIP3   OH241647   5.962   4.637   6.289  0.4296  0.8739 -0.4733
 6719TIP3    H141648   5.904   4.681   6.227 -0.2131 -0.1055 -0.5994
 6719TIP3    H241649   5.940   4.676   6.374  0.6594  1.5629 -0.7213
 6720TIP3   OH241650   0.812   0.119  15.878 -0.4804 -0.3111  0.0284
 6720TIP3    H141651   0.827   0.033  15.915  1.0211  0.0639  0.3332
 6720TIP3    H241652   0.776   0.170  15.950  0.1310 -0.2524  0.2939
 6721TIP3   OH241653   2.194   2.466  12.167  0.0534 -0.5252  0.2797
 6721TIP3    H141654   2.208   2.461  12.261  0.3988  0.0860  0.2634
 6721TIP3    H241655   2.275   2.432  12.128 -0.6874 -2.3027  0.1882
 6722TIP3   OH241656   1.530   5.978  16.406  0.0294  0.3088 -0.3684
 6722TIP3    H141657   1.591   6.030  16.353  0.0396 -0.9848 -1.6797
 6722TIP3    H241658   1.446   6.023  16.396  0.4302  1.2398  0.2293
 6723TIP3   OH241659   2.302   1.714   4.137  0.1445  0.0330  0.4876
 6723TIP3    H141660   2.265   1.795   4.172 -1.1110 -0.6058  0.6937
 6723TIP3    H241661   2.253   1.645   4.180  0.5875 -0.8277 -0.3510
 6724TIP3   OH241662   1.252   4.335  11.656 -0.0794 -0.2191  0.0120
 6724TIP3    H141663   1.206   4.301  11.579 -0.2832  0.8234 -0.3448
 6724TIP3    H241664   1.188   4.390  11.701  0.3470  0.0076  0.3537
 6725TIP3   OH241665   5.835   0.921  17.437  0.1515  0.3864 -0.1432
 6725TIP3    H141666   5.835   1.004  17.485  1.7570 -0.0846  0.7600
 6725TIP3    H241667   5.896   0.865  17.486 -2.7007 -2.2077  0.7652
 6726TIP3   OH241668   2.366   3.234   0.690  0.0276 -0.7009 -0.2167
 6726TIP3    H141669   2.409   3.213   0.773  0.4231 -0.5689 -0.3909
 6726TIP3    H241670   2.437   3.250   0.629 -0.1209  3.7208  0.4682
 6727TIP3   OH241671   0.718   6.499   3.799 -0.1747  0.0886  0.2412
 6727TIP3    H141672   0.682   6.582   3.832 -0.3370  0.0410  0.1871
 6727TIP3    H241673   0.812   6.505   3.815 -0.0677  0.6637 -0.5805
 6728TIP3   OH241674   2.627   6.214  15.696 -0.4446  0.0940  0.3535
 6728TIP3    H141675   2.634   6.118  15.690 -1.1387 -0.0011  0.9415
 6728TIP3    H241676   2.559   6.229  15.762 -1.6676  0.9605 -1.0219
 6729TIP3   OH241677   3.385   2.906   6.043 -0.1406  0.2279 -0.2357
 6729TIP3    H141678   3.430   2.840   6.097  1.0268  0.5753 -0.7469
 6729TIP3    H241679   3.296   2.873   6.035  0.0484 -0.5715  0.6928
 6730TIP3   OH241680   4.983   0.642  16.306 -0.4681  0.0111  0.0222
 6730TIP3    H141681   4.996   0.571  16.368  0.4452  2.1414  2.4451
 6730TIP3    H241682   5.035   0.618  16.230 -0.3030 -1.9399  0.7040
 6731TIP3   OH241683   3.750   4.348   3.741  0.3066  0.4001 -0.3720
 6731TIP3    H141684   3.667   4.312   3.774  0.3775 -0.3774 -1.0177
 6731TIP3    H241685   3.744   4.442   3.759 -1.7784  0.7721 -2.5664
 6732TIP3   OH241686   5.188   2.713   0.943  0.2522  0.3004  0.0949
 6732TIP3    H141687   5.116   2.748   0.890 -0.1826 -0.6109  0.0698
 6732TIP3    H241688   5.169   2.619   0.950  1.8778 -0.1073 -0.6119
 6733TIP3   OH241689   5.063   2.863  17.385  0.0768  0.0580 -0.0861
 6733TIP3    H141690   5.078   2.905  17.300  1.0117 -1.4526 -0.7196
 6733TIP3    H241691   5.062   2.769  17.365 -1.1396 -0.2788  1.3787
 6734TIP3   OH241692   1.540   5.283  11.445  0.7400  0.2010  0.3009
 6734TIP3    H141693   1.529   5.213  11.509  0.0301 -0.3349 -0.3966
 6734TIP3    H241694   1.538   5.240  11.360  3.2884  0.6976 -0.0921
 6735TIP3   OH241695   1.312   3.239   1.733 -0.3820  0.0758 -0.2358
 6735TIP3    H141696   1.317   3.334   1.737 -0.8167  0.0613  1.0971
 6735TIP3    H241697   1.402   3.211   1.713  0.4664  0.6572  2.4588
 6736TIP3   OH241698   2.026   0.429  12.640 -0.5461  0.7543 -0.5922
 6736TIP3    H141699   2.014   0.455  12.549  0.5638  2.4266 -0.3217
 6736TIP3    H241700   2.098   0.366  12.638  0.0246  1.4013 -0.8145
 6737TIP3   OH241701   0.797   1.793  14.066  0.0153 -0.0529 -0.4239
 6737TIP3    H141702   0.758   1.866  14.114 -0.0570 -1.3025  1.5022
 6737TIP3    H241703   0.786   1.817  13.974  0.4931  2.6080  0.1253
 6738TIP3   OH241704   6.232   2.164  12.092  0.0982  0.6041  0.6041
 6738TIP3    H141705   6.189   2.079  12.080  0.3385  0.2332  2.1791
 6738TIP3    H241706   6.277   2.179  12.009  0.4978 -1.0633  0.4709
 6739TIP3   OH241707   6.285   0.934  14.384  0.5539  0.5336 -0.2528
 6739TIP3    H141708   6.255   0.989  14.312 -2.2893 -0.2049  0.2320
 6739TIP3    H241709   6.349   0.988  14.430 -1.1422  2.9639 -0.5543
 6740TIP3   OH241710   2.718   3.988   3.382  0.0017  0.0428 -0.1609
 6740TIP3    H141711   2.787   4.003   3.317  1.6970  1.0626  1.7217
 6740TIP3    H241712   2.707   4.073   3.425 -0.5158 -0.7459  1.3508
 6741TIP3   OH241713   3.900   6.008   0.588 -0.1593 -0.0319 -0.2681
 6741TIP3    H141714   3.970   5.995   0.525 -1.1637  1.2238 -1.7063
 6741TIP3    H241715   3.855   5.923   0.592  0.0458 -0.1865 -1.0800
 6742TIP3   OH241716   6.027   6.296  14.427  0.3633 -0.4288 -0.8994
 6742TIP3    H141717   5.931   6.297  14.424  0.3030  0.2889  0.6230
 6742TIP3    H241718   6.049   6.222  14.484  0.6696  0.1234 -0.2897
 6743TIP3   OH241719   4.889   0.839  12.089 -0.1036  0.2796  0.1367
 6743TIP3    H141720   4.798   0.822  12.062  0.0528  0.3387 -0.4421
 6743TIP3    H241721   4.889   0.932  12.113 -0.0061  0.5065 -0.6957
 6744TIP3   OH241722   4.945   4.628  16.208  0.3219 -0.3287 -0.3661
 6744TIP3    H141723   4.941   4.544  16.162 -1.1252 -1.2833  1.3787
 6744TIP3    H241724   4.964   4.604  16.299  2.7140  1.4665 -0.2777
 6745TIP3   OH241725   1.287   2.653  15.474  0.2308  0.3842  0.5555
 6745TIP3    H141726   1.347   2.682  15.542  0.1196  0.2608  0.7094
 6745TIP3    H241727   1.314   2.563  15.455  0.1738  0.3714  0.5340
 6746TIP3   OH241728   1.364   2.494  14.539 -0.8267 -0.3141 -0.2983
 6746TIP3    H141729   1.279   2.472  14.500 -1.0371 -0.4188  0.2005
 6746TIP3    H241730   1.347   2.574  14.589 -0.9040 -0.9416  0.6966
 6747TIP3   OH241731   3.191   2.844   3.055 -0.1913  0.3352  0.5119
 6747TIP3    H141732   3.126   2.788   3.098  1.1708  0.2437  2.6209
 6747TIP3    H241733   3.252   2.783   3.014  0.4410  0.2609  1.5092
 6748TIP3   OH241734   5.422   5.551   3.592 -0.1643  0.4634  0.2418
 6748TIP3    H141735   5.465   5.579   3.673  0.1392 -0.4742  0.4128
 6748TIP3    H241736   5.336   5.594   3.594  1.2403  3.6206 -0.8343
 6749TIP3   OH241737   4.914   0.119   2.549  0.1068  0.4297  0.2628
 6749TIP3    H141738   4.824   0.117   2.582 -0.0580 -1.0194 -0.2163
 6749TIP3    H241739   4.956   0.043   2.589  1.2965  1.3957  0.9201
 6750TIP3   OH241740   1.707   2.218  15.894 -0.5051  0.0904  0.1086
 6750TIP3    H141741   1.669   2.130  15.889 -1.0734  0.3480 -0.2463
 6750TIP3    H241742   1.637   2.276  15.864  0.3432  0.5373 -1.1201
 6751TIP3   OH241743   6.641   5.618  12.306 -0.2327  0.4657 -0.7118
 6751TIP3    H141744   6.614   5.594  12.395 -1.3620 -0.5469 -1.2842
 6751TIP3    H241745   6.710   5.555  12.284  1.2310  1.7680  0.0203
 6752TIP3   OH241746   4.487   1.951   4.334  0.0315 -0.5586  0.4758
 6752TIP3    H141747   4.447   1.974   4.250 -0.8149  0.1253  1.0532
 6752TIP3    H241748   4.422   1.896   4.378  0.4971 -0.9612  0.6723
 6753TIP3   OH241749   1.761   3.541  14.624  0.1249  0.0451  0.1030
 6753TIP3    H141750   1.736   3.515  14.713 -0.2790  0.1489  0.0189
 6753TIP3    H241751   1.799   3.461  14.586  0.0114 -0.0841  0.2617
 6754TIP3   OH241752   0.775   6.688   1.778 -0.3125 -0.1721 -0.0293
 6754TIP3    H141753   0.723   6.640   1.843 -0.7075  0.3535  0.0480
 6754TIP3    H241754   0.752   6.649   1.694  0.4458 -1.0810  0.1592
 6755TIP3   OH241755   4.114   2.843  14.505 -0.7412 -0.5644  0.5576
 6755TIP3    H141756   4.192   2.835  14.559  1.7874  1.8863 -2.3459
 6755TIP3    H241757   4.041   2.833  14.566  1.8031 -0.7029  3.8450
 6756TIP3   OH241758   1.138   5.114  15.104  0.6862  0.1630  0.3784
 6756TIP3    H141759   1.124   5.020  15.108 -1.0249  0.2777 -1.2314
 6756TIP3    H241760   1.155   5.141  15.194 -0.6407 -1.4359  1.1521
 6757TIP3   OH241761   1.320   3.223  13.318 -0.4221  0.0876  0.5309
 6757TIP3    H141762   1.323   3.315  13.292  1.9022  0.0107  0.3184
 6757TIP3    H241763   1.304   3.226  13.412 -1.7316  0.6407  0.3087
 6758TIP3   OH241764   1.478   0.083   1.207 -0.1055 -0.3959 -0.0102
 6758TIP3    H141765   1.410   0.015   1.211 -1.2984  0.8159  0.9867
 6758TIP3    H241766   1.472   0.117   1.118 -0.5359 -0.5641 -0.0495
 6759TIP3   OH241767   0.165   3.845  17.010  0.4973  0.0671  0.2728
 6759TIP3    H141768   0.167   3.912  17.078 -0.2502 -0.1339  0.5048
 6759TIP3    H241769   0.074   3.843  16.982  0.8535  0.3729 -0.9684
 6760TIP3   OH241770   6.488   2.192   5.870  0.0499 -0.6662  0.4558
 6760TIP3    H141771   6.417   2.253   5.848  0.3871 -0.4871 -0.1608
 6760TIP3    H241772   6.446   2.106   5.872 -0.3618 -0.4604  0.9952
 6761TIP3   OH241773   3.084   6.649  14.465  0.0788  0.3326 -0.6187
 6761TIP3    H141774   3.102   6.588  14.537  1.0524  1.0879 -0.2082
 6761TIP3    H241775   3.083   6.593  14.387  1.2139 -0.1842 -0.2811
 6762TIP3   OH241776   0.558   1.649  13.962  0.2271 -0.2517 -0.3774
 6762TIP3    H141777   0.574   1.664  14.055 -1.5764 -2.7502  0.4524
 6762TIP3    H241778   0.609   1.570  13.942  1.1340  0.6302 -1.7501
 6763TIP3   OH241779   0.380   2.871   0.134 -0.2540  0.4870 -0.3808
 6763TIP3    H141780   0.293   2.868   0.094 -0.3864  0.7086 -0.1058
 6763TIP3    H241781   0.393   2.962   0.159 -0.2366  0.3238  0.2272
 6764TIP3   OH241782   4.059   5.059  14.421  0.5008  0.8037  0.0092
 6764TIP3    H141783   4.078   5.087  14.331  0.7785 -1.2835 -0.6230
 6764TIP3    H241784   4.116   5.114  14.475  0.2643  2.1640 -1.0495
 6765TIP3   OH241785   2.095   5.245  11.901 -0.4749  0.0695  0.2860
 6765TIP3    H141786   2.178   5.200  11.918 -1.5439 -1.9715  0.4762
 6765TIP3    H241787   2.093   5.317  11.964  1.4043  0.5692 -0.1577
 6766TIP3   OH241788   1.677   5.582  16.457  0.4431  0.1388  0.0125
 6766TIP3    H141789   1.649   5.665  16.497 -0.6455  0.9385 -2.2601
 6766TIP3    H241790   1.601   5.524  16.468  0.0684  0.4193 -0.9754
 6767TIP3   OH241791   5.016   2.946  11.960  0.1319 -0.4031 -0.0005
 6767TIP3    H141792   5.077   2.894  12.011 -1.3436 -1.0901  1.1574
 6767TIP3    H241793   4.986   2.887  11.891  0.3293 -0.2661 -0.2030
 6768TIP3   OH241794   6.365   4.419   0.026  0.2158  0.3077 -0.1550
 6768TIP3    H141795   6.363   4.323   0.021  0.8415  0.2719  0.1690
 6768TIP3    H241796   6.454   4.442  -0.001  1.1153  0.5841  2.7424
 6769TIP3   OH241797   1.207   1.705  16.495 -0.1895 -0.1229  0.4271
 6769TIP3    H141798   1.294   1.667  16.479  0.2421 -0.2836  2.7718
 6769TIP3    H241799   1.224   1.798  16.511 -0.9979  0.7683 -3.0816
 6770TIP3   OH241800   2.684   2.447   5.194 -0.1357  0.2458  0.4459
 6770TIP3    H141801   2.749   2.451   5.264  0.3792 -0.1912  0.0024
 6770TIP3    H241802   2.633   2.369   5.214 -0.9018  0.8956  1.1057
 6771TIP3   OH241803   2.657   5.925  17.490 -0.2583 -0.6962  0.3523
 6771TIP3    H141804   2.564   5.930  17.468 -0.5060 -0.5350  1.3740
 6771TIP3    H241805   2.660   5.943  17.584  0.7907 -0.8818  0.3651
 6772TIP3   OH241806   1.310   4.790  11.636 -0.1884 -0.5508  0.1625
 6772TIP3    H141807   1.227   4.837  11.624 -0.8931 -1.5792  0.8605
 6772TIP3    H241808   1.317   4.777  11.730  1.7122  1.1231  0.3284
 6773TIP3   OH241809   3.273   2.349   1.675 -0.2275  0.2118 -0.0142
 6773TIP3    H141810   3.322   2.405   1.735  0.3631 -0.2808 -0.0276
 6773TIP3    H241811   3.229   2.286   1.732  0.7216 -0.5615 -0.1068
 6774TIP3   OH241812   0.691   6.383   1.242 -0.0670  0.7306 -0.0093
 6774TIP3    H141813   0.675   6.330   1.320  0.7822 -0.7181 -0.7951
 6774TIP3    H241814   0.644   6.339   1.172  1.1285  0.6619 -0.7951
 6775TIP3   OH241815   3.265   2.906  12.109 -0.2886  0.0476 -0.2057
 6775TIP3    H141816   3.208   2.924  12.184 -0.7332  0.1517 -0.5650
 6775TIP3    H241817   3.205   2.896  12.035  0.2364  1.5873 -0.8755
 6776TIP3   OH241818   3.424   4.447   1.664  0.3211  0.4305  0.4427
 6776TIP3    H141819   3.419   4.394   1.744  0.3855 -0.4648 -0.1252
 6776TIP3    H241820   3.504   4.499   1.675  1.3686 -1.0563  0.1799
 6777TIP3   OH241821   2.299   0.234  10.968 -0.2244 -0.3859  0.3067
 6777TIP3    H141822   2.309   0.152  11.017  1.0541 -1.3040 -1.3619
 6777TIP3    H241823   2.241   0.211  10.895  0.0490  0.2198 -0.1060
 6778TIP3   OH241824   3.955   2.415  12.619  0.1000 -0.2836 -0.2328
 6778TIP3    H141825   3.999   2.402  12.703 -0.1961  0.2657  0.0135
 6778TIP3    H241826   3.972   2.334  12.571  1.1686 -0.1892 -0.0547
 6779TIP3   OH241827   0.826   5.760  15.929  0.0947 -0.4443  0.2153
 6779TIP3    H141828   0.769   5.758  16.006 -3.5088  0.1536 -2.1587
 6779TIP3    H241829   0.859   5.850  15.926  0.5841 -0.5876  1.2636
 6780TIP3   OH241830   3.583   4.351  11.239 -0.3469  0.3712  0.2997
 6780TIP3    H141831   3.549   4.309  11.317  0.2532 -2.9116 -1.0441
 6780TIP3    H241832   3.506   4.388  11.196 -0.9342  0.5782  1.4788
 6781TIP3   OH241833   3.205   3.208   0.772  0.6652 -0.0387 -0.0335
 6781TIP3    H141834   3.139   3.177   0.709 -0.6866  0.4197  1.0981
 6781TIP3    H241835   3.216   3.134   0.833  2.4556 -0.7273 -1.1260
 6782TIP3   OH241836   3.875   6.054   5.274  0.0912 -0.2134 -0.1375
 6782TIP3    H141837   3.804   6.118   5.277 -0.1933 -0.3538 -2.1375
 6782TIP3    H241838   3.849   5.993   5.205  1.5828 -0.9632 -0.0689
 6783TIP3   OH241839   3.870   6.299  11.694 -0.0199  0.0409 -0.4150
 6783TIP3    H141840   3.934   6.257  11.637 -0.9015 -3.4345  0.9026
 6783TIP3    H241841   3.901   6.279  11.783 -0.7108  2.0223  0.3312
 6784TIP3   OH241842   0.045   6.693   5.245 -0.1778  0.2779  0.0015
 6784TIP3    H141843   0.125   6.710   5.196 -0.3425 -0.4343 -0.5278
 6784TIP3    H241844   0.028   6.775   5.292  0.2026  0.8365 -0.8089
 6785TIP3   OH241845   4.700   5.648  13.552 -0.1027  0.5501 -0.2002
 6785TIP3    H141846   4.615   5.654  13.595  0.4809  1.7075  0.8555
 6785TIP3    H241847   4.761   5.693  13.611  0.9477  1.1484 -1.6678
 6786TIP3   OH241848   3.625   6.404  11.656  0.3728  0.0844 -0.2817
 6786TIP3    H141849   3.641   6.473  11.592  0.5358  0.0746 -0.2509
 6786TIP3    H241850   3.711   6.366  11.672  0.9148  2.1545  2.3159
 6787TIP3   OH241851   5.046   5.271   5.322 -0.0306 -0.0265  0.5434
 6787TIP3    H141852   5.036   5.362   5.353 -0.7571  0.4381 -0.9667
 6787TIP3    H241853   5.102   5.230   5.388  0.5707  1.6011  1.1180
 6788TIP3   OH241854   4.125   3.230   0.418  0.0232  0.0874 -0.0005
 6788TIP3    H141855   4.201   3.277   0.452  0.7477 -1.7781  1.1033
 6788TIP3    H241856   4.160   3.174   0.348 -0.7434  0.7951 -0.9879
 6789TIP3   OH241857   3.188   3.912  12.175  0.5372 -0.1059  0.9427
 6789TIP3    H141858   3.232   3.826  12.177 -1.8451 -1.4748 -0.3947
 6789TIP3    H241859   3.245   3.966  12.120  0.1754 -2.1161 -1.6079
 6790TIP3   OH241860   6.388   2.898  12.657 -0.2167 -0.0839  0.1464
 6790TIP3    H141861   6.440   2.978  12.656 -1.4222  0.7351 -0.2300
 6790TIP3    H241862   6.328   2.909  12.731  1.1429 -1.7243  1.5864
 6791TIP3   OH241863   6.259   2.234   4.543 -0.4559  0.0700  0.1340
 6791TIP3    H141864   6.297   2.188   4.618  0.0896  0.5124  0.1368
 6791TIP3    H241865   6.315   2.211   4.469 -0.6301  0.1248 -0.0174
 6792TIP3   OH241866   4.401   4.070  11.309 -0.4075 -0.2850 -0.0449
 6792TIP3    H141867   4.449   4.027  11.380 -1.8135 -0.4191  0.8663
 6792TIP3    H241868   4.446   4.042  11.229  2.2549  1.1798  0.8131
 6793TIP3   OH241869   6.201   5.791   0.497  0.2560  0.0231 -0.5139
 6793TIP3    H141870   6.181   5.803   0.404 -2.6201 -0.6256 -0.0721
 6793TIP3    H241871   6.183   5.876   0.536  2.9164  0.7391 -0.6836
 6794TIP3   OH241872   3.842   3.523   6.088 -0.5540 -0.8348  0.4169
 6794TIP3    H141873   3.790   3.471   6.149  0.5616 -1.0984  1.1693
 6794TIP3    H241874   3.923   3.474   6.077 -1.0114 -1.1616 -1.8912
 6795TIP3   OH241875   4.429   3.730  12.862 -0.2994 -0.2768  0.3322
 6795TIP3    H141876   4.371   3.764  12.794  0.2216 -1.4103 -0.7212
 6795TIP3    H241877   4.455   3.643  12.830  1.2752 -0.1570  1.1966
 6796TIP3   OH241878   2.159   0.152  13.544  0.0436  0.7026  0.0191
 6796TIP3    H141879   2.088   0.215  13.529  0.1825  0.7581 -0.4117
 6796TIP3    H241880   2.183   0.165  13.636 -0.4006  0.7906  0.1252
 6797TIP3   OH241881   3.445   5.492  16.101  0.3520  0.3134  0.0207
 6797TIP3    H141882   3.480   5.518  16.186 -2.5061  1.6565  0.9232
 6797TIP3    H241883   3.420   5.574  16.059 -0.8589 -0.4610 -0.8617
 6798TIP3   OH241884   4.197   6.172  11.973  0.0872  0.3270 -0.3074
 6798TIP3    H141885   4.150   6.255  11.964 -2.3274 -0.9431 -0.1749
 6798TIP3    H241886   4.234   6.156  11.886  0.0562  1.2100 -0.4969
 6799TIP3   OH241887   5.929   2.577  15.791 -0.1511 -0.0516  0.4613
 6799TIP3    H141888   5.960   2.589  15.701  1.2003 -0.2429  0.8777
 6799TIP3    H241889   5.860   2.510  15.783  1.3460 -1.6005 -0.2070
 6800TIP3   OH241890   1.295   5.609   5.920 -0.6863  1.0141  0.0410
 6800TIP3    H141891   1.275   5.665   5.845  0.1166  0.5087 -0.5728
 6800TIP3    H241892   1.214   5.607   5.970 -1.3712  1.0568 -1.0234
 6801TIP3   OH241893   0.938   4.457   0.788  0.0020  0.4068  0.0862
 6801TIP3    H141894   0.864   4.398   0.778  0.8915 -0.5261 -1.2133
 6801TIP3    H241895   0.899   4.540   0.815 -1.4144 -0.3128  0.3422
 6802TIP3   OH241896   2.534   3.843  12.785  0.2061  0.1738 -0.6725
 6802TIP3    H141897   2.496   3.908  12.725  0.7654  0.9885 -0.1666
 6802TIP3    H241898   2.485   3.854  12.866  0.8891  0.5920 -0.3073
 6803TIP3   OH241899   1.307   1.780   1.496 -0.8165 -0.2967 -0.0145
 6803TIP3    H141900   1.397   1.778   1.529 -0.0165  3.6783 -1.3010
 6803TIP3    H241901   1.306   1.716   1.425  0.8844 -0.6936  0.2774
 6804TIP3   OH241902   4.464   0.730  12.891 -0.2798  0.1807  0.2578
 6804TIP3    H141903   4.482   0.643  12.928 -2.2026 -0.3521  0.0304
 6804TIP3    H241904   4.548   0.777  12.898  1.6809 -2.5869 -2.2220
 6805TIP3   OH241905   0.418   0.013   6.565  0.2617  0.0293 -0.1563
 6805TIP3    H141906   0.331  -0.024   6.557  0.8977 -1.1553 -2.1337
 6805TIP3    H241907   0.459  -0.036   6.637  0.2378 -1.4341 -1.1016
 6806TIP3   OH241908   0.979   0.535  17.260 -0.9249  0.1562 -0.2765
 6806TIP3    H141909   0.952   0.608  17.315  0.5021  0.4695  0.0545
 6806TIP3    H241910   1.071   0.519  17.285 -0.6059 -0.4421 -1.7435
 6807TIP3   OH241911   5.808   4.786  11.965 -0.1693 -0.9134 -0.0117
 6807TIP3    H141912   5.876   4.769  12.029  1.4694  0.9074 -1.1582
 6807TIP3    H241913   5.729   4.748  12.003  1.3569 -2.6891  1.5768
 6808TIP3   OH241914   2.049   6.295   2.588 -0.5718  0.1374  0.0250
 6808TIP3    H141915   2.133   6.313   2.630 -0.4446 -0.1236 -0.1110
 6808TIP3    H241916   2.054   6.338   2.503  0.5736 -2.2242 -1.1963
 6809TIP3   OH241917   6.014   6.412   5.145 -0.8381  0.4609 -0.5979
 6809TIP3    H141918   5.969   6.375   5.070  0.4055 -0.7159 -0.8036
 6809TIP3    H241919   5.972   6.372   5.221 -0.5008 -0.2481 -0.7733
 6810TIP3   OH241920   2.735   3.237   6.180  0.8028  0.9419 -0.0793
 6810TIP3    H141921   2.649   3.204   6.206  0.6633  2.2495  1.2333
 6810TIP3    H241922   2.778   3.162   6.139 -0.3223 -0.1969  0.7517
 6811TIP3   OH241923   5.588   5.846   2.580 -0.3196  0.0764  0.0187
 6811TIP3    H141924   5.568   5.791   2.504 -2.3225  1.0572 -0.2302
 6811TIP3    H241925   5.534   5.811   2.650 -1.3085  1.4305 -0.0315
 6812TIP3   OH241926   1.899   1.590   1.477  0.1104  0.9343  0.4364
 6812TIP3    H141927   1.839   1.665   1.469  1.4428  2.0636  0.6680
 6812TIP3    H241928   1.965   1.619   1.539  1.8506  0.4096 -1.0743
 6813TIP3   OH241929   1.688   4.107   2.124  0.4026  0.5076  0.0052
 6813TIP3    H141930   1.631   4.041   2.084 -1.6501  1.9894  0.3445
 6813TIP3    H241931   1.706   4.073   2.211 -0.1484  0.1291 -0.0255
 6814TIP3   OH241932   5.799   5.283   6.282 -0.3791 -0.1450  0.0287
 6814TIP3    H141933   5.873   5.241   6.238  0.7978 -0.9481  2.5469
 6814TIP3    H241934   5.809   5.256   6.374 -3.4577  0.2530  0.5574
 6815TIP3   OH241935   3.827   6.266  12.481 -0.1959  0.3633 -0.3657
 6815TIP3    H141936   3.782   6.187  12.509  0.2192  0.6966  1.4124
 6815TIP3    H241937   3.763   6.313  12.428  0.1729 -1.9962 -3.1373
 6816TIP3   OH241938   1.145   1.532  16.748 -0.4174  0.3320 -0.5519
 6816TIP3    H141939   1.102   1.618  16.751  2.1371  1.6593  1.0590
 6816TIP3    H241940   1.171   1.522  16.656 -2.0062  0.5508 -1.0646
 6817TIP3   OH241941   1.812   4.304  12.521 -0.7903  0.3577  0.3455
 6817TIP3    H141942   1.727   4.299  12.476 -1.6663 -0.6009  2.0110
 6817TIP3    H241943   1.831   4.213  12.544  0.0215  0.7368  1.1960
 6818TIP3   OH241944   4.649   0.725   4.097  0.3415  0.0412 -0.5000
 6818TIP3    H141945   4.564   0.705   4.056  0.4492 -2.0053  0.1372
 6818TIP3    H241946   4.658   0.820   4.090 -2.2356  0.3795 -0.1509
 6819TIP3   OH241947   3.612   1.260  13.730 -0.0790 -0.1376  0.4358
 6819TIP3    H141948   3.609   1.208  13.810  1.6726  1.2809  1.5056
 6819TIP3    H241949   3.683   1.221  13.678 -0.3661 -0.2787  0.1472
 6820TIP3   OH241950   4.043   1.201   3.451 -0.4317 -0.5734  0.0441
 6820TIP3    H141951   4.015   1.125   3.501 -1.2332  0.4725  1.2321
 6820TIP3    H241952   4.049   1.170   3.361 -0.4441 -2.1060  0.5520
 6821TIP3   OH241953   2.556   3.636   6.491  0.0872 -0.4175  0.3276
 6821TIP3    H141954   2.536   3.626   6.398 -0.3589 -0.2805  0.4077
 6821TIP3    H241955   2.579   3.547   6.520  1.5532 -0.2439 -0.2093
 6822TIP3   OH241956   4.387   1.480   4.344 -0.2352 -0.2056 -0.1171
 6822TIP3    H141957   4.453   1.499   4.277  0.2505  0.5738  0.5786
 6822TIP3    H241958   4.366   1.565   4.382 -1.2317 -0.5209  0.0624
 6823TIP3   OH241959   5.383   4.470   6.204 -0.4111  0.0105  0.1868
 6823TIP3    H141960   5.430   4.545   6.168  0.4055 -0.6818 -0.2123
 6823TIP3    H241961   5.362   4.496   6.294 -0.8153  1.0096 -0.1864
 6824TIP3   OH241962   6.626   1.303  15.371  0.1163  0.1328 -0.7316
 6824TIP3    H141963   6.614   1.372  15.307  1.6993  1.6462  0.5031
 6824TIP3    H241964   6.558   1.239  15.352  0.3763  0.6302 -3.7275
 6825TIP3   OH241965   3.620   4.156   0.672  0.0719  0.5764 -0.2268
 6825TIP3    H141966   3.613   4.215   0.747  0.0403  0.3860 -0.0787
 6825TIP3    H241967   3.587   4.072   0.704  1.7575  0.0036  0.1014
 6826TIP3   OH241968   2.955   5.215  17.685 -0.0278  0.3490  0.2746
 6826TIP3    H141969   2.979   5.164  17.608 -1.6754  0.0435 -0.0739
 6826TIP3    H241970   2.929   5.150  17.750  0.6217  0.6396  0.8383
 6827TIP3   OH241971   5.266   2.316  12.780 -0.4273 -0.0013  0.0104
 6827TIP3    H141972   5.355   2.350  12.774 -0.4855  0.5451  1.8634
 6827TIP3    H241973   5.269   2.233  12.732  1.2132 -0.2741  0.5311
 6828TIP3   OH241974   1.329   4.881  15.303 -0.0244  0.3889  0.2257
 6828TIP3    H141975   1.362   4.835  15.225  0.3478  0.7111  0.1911
 6828TIP3    H241976   1.386   4.958  15.312 -0.1418  0.4220  0.7429
 6829TIP3   OH241977   2.576   0.212   1.279 -0.1045 -0.3067 -0.4998
 6829TIP3    H141978   2.498   0.183   1.230  0.0894 -0.8934 -0.4699
 6829TIP3    H241979   2.561   0.305   1.294 -1.5093 -0.7019  0.8070
 6830TIP3   OH241980   2.044   3.530   3.371  0.1994 -0.3871 -0.4555
 6830TIP3    H141981   2.108   3.549   3.439 -2.6666  0.3212  2.2865
 6830TIP3    H241982   2.065   3.441   3.342  1.5234 -0.7229  1.3971
 6831TIP3   OH241983   0.895   1.228  13.521 -0.1976  0.7586 -0.4683
 6831TIP3    H141984   0.963   1.257  13.460  2.2952 -0.7597  1.3745
 6831TIP3    H241985   0.874   1.139  13.493  0.1771  0.4478  0.2082
 6832TIP3   OH241986   0.993   4.884   2.524 -0.3161 -0.2842 -0.4067
 6832TIP3    H141987   0.992   4.848   2.435 -1.4224  0.4685 -0.7255
 6832TIP3    H241988   0.965   4.975   2.513  0.2823  0.0392  0.6323
 6833TIP3   OH241989   1.006   0.050   1.905  0.2721  0.3659  0.1336
 6833TIP3    H141990   0.930   0.008   1.863  0.8901 -0.0335 -0.6189
 6833TIP3    H241991   1.014   0.006   1.989 -0.8124  0.9721  0.5681
 6834TIP3   OH241992   1.816   3.232   6.420 -0.5290  0.1283 -0.3049
 6834TIP3    H141993   1.785   3.243   6.510 -0.7647  1.0711 -0.4901
 6834TIP3    H241994   1.774   3.152   6.389 -0.8494  0.0774  0.2539
 6835TIP3   OH241995   2.590   2.039   5.593 -0.2490 -0.0939 -0.0936
 6835TIP3    H141996   2.592   1.947   5.621 -1.2872 -0.2172 -0.3791
 6835TIP3    H241997   2.594   2.035   5.498  1.5982  0.2588 -0.0626
 6836TIP3   OH241998   1.073   1.216   5.968 -0.4763 -0.0230  0.1298
 6836TIP3    H141999   1.073   1.310   5.990 -0.3584 -0.3371  1.6170
 6836TIP3    H242000   1.156   1.184   6.003 -0.2908 -0.6006 -0.8178
 6837TIP3   OH242001   5.104   2.880   3.659 -0.5610  0.4027 -0.6015
 6837TIP3    H142002   5.075   2.854   3.571  0.8463  1.0928 -1.3051
 6837TIP3    H242003   5.166   2.951   3.643  1.5401 -1.0157  0.8002
 6838TIP3   OH242004   0.875   4.020   4.505 -0.4343 -0.0039 -0.1807
 6838TIP3    H142005   0.811   3.952   4.525 -0.5270  0.4011  0.9476
 6838TIP3    H242006   0.954   3.992   4.551 -0.2960  0.3469 -0.2062
 6839TIP3   OH242007   2.885   0.467   5.846  0.2011  0.2153 -0.0797
 6839TIP3    H142008   2.845   0.546   5.810  3.0398  1.5692 -0.5264
 6839TIP3    H242009   2.893   0.407   5.771  1.8141  1.1913 -0.7349
 6840TIP3   OH242010   0.470   5.046  14.563 -0.5276  0.0380  0.1666
 6840TIP3    H142011   0.392   5.086  14.600 -0.0254  0.6038  0.6414
 6840TIP3    H242012   0.442   4.959  14.536 -1.5437  0.5701 -0.5432
 6841TIP3   OH242013   1.526   0.330  16.324  0.0871 -0.1702  0.3009
 6841TIP3    H142014   1.436   0.360  16.311 -0.8066 -2.8196 -0.3507
 6841TIP3    H242015   1.531   0.312  16.418  0.0717  0.3937  0.4091
 6842TIP3   OH242016   2.094   5.447  13.495  0.0035  0.0116  0.1366
 6842TIP3    H142017   2.065   5.537  13.513 -0.1198 -0.5784  3.6653
 6842TIP3    H242018   2.189   5.449  13.511 -0.1934 -0.6958  1.5145
 6843TIP3   OH242019   6.121   6.022   3.060 -0.2411  0.4860  0.4398
 6843TIP3    H142020   6.094   5.993   2.973 -0.7877 -0.7965  0.9979
 6843TIP3    H242021   6.040   6.047   3.104 -0.1848 -0.4449  1.1103
 6844TIP3   OH242022   2.606   0.728   2.874  0.0702  0.4515 -0.1502
 6844TIP3    H142023   2.561   0.648   2.902  0.6493  0.3774  0.6021
 6844TIP3    H242024   2.682   0.734   2.932  0.0718  1.5112 -0.2472
 6845TIP3   OH242025   6.677   4.159  11.329 -0.0903 -0.3003  0.1713
 6845TIP3    H142026   6.735   4.166  11.253  2.3044  0.0721  1.9346
 6845TIP3    H242027   6.597   4.119  11.294 -0.5366  3.0537 -3.2288
 6846TIP3   OH242028   0.698   1.510  13.187 -0.6958  0.0573  0.2043
 6846TIP3    H142029   0.672   1.511  13.095 -0.5172 -2.0154  0.0730
 6846TIP3    H242030   0.679   1.421  13.216 -2.4409  1.1469  2.7184
 6847TIP3   OH242031   2.473   0.914  17.081  0.2741  0.1264 -0.3542
 6847TIP3    H142032   2.564   0.884  17.077  0.0936 -0.5445  0.3632
 6847TIP3    H242033   2.438   0.875  17.161 -0.6900  0.2568 -0.6972
 6848TIP3   OH242034   3.733   4.267  13.183  0.3987 -0.4568  0.0758
 6848TIP3    H142035   3.679   4.334  13.143 -0.8270  0.0635  2.3994
 6848TIP3    H242036   3.821   4.304  13.184  0.0818  0.3155 -0.3538
 6849TIP3   OH242037   3.965   4.844   4.533 -0.3326 -0.9554 -0.0585
 6849TIP3    H142038   4.057   4.847   4.561 -0.0945 -1.0098 -0.8268
 6849TIP3    H242039   3.958   4.910   4.464 -0.5589 -1.8241 -0.8914
 6850TIP3   OH242040   4.539   6.323   5.549  0.3994  0.3328 -0.2620
 6850TIP3    H142041   4.534   6.328   5.454 -0.2477  0.3047 -0.2358
 6850TIP3    H242042   4.606   6.257   5.567 -0.2033 -0.4176 -0.7050
 6851TIP3   OH242043   4.891   1.373  12.941  0.3100 -0.3887 -0.1973
 6851TIP3    H142044   4.916   1.381  13.033  0.7491 -1.1755 -0.2366
 6851TIP3    H242045   4.884   1.463  12.910 -1.5682 -0.0721  1.0381
 6852TIP3   OH242046   6.632   0.172   2.529 -1.4538 -0.0290  0.3093
 6852TIP3    H142047   6.603   0.235   2.463 -0.8048 -0.6455 -0.5796
 6852TIP3    H242048   6.641   0.089   2.481  1.0168 -0.0476  0.6833
 6853TIP3   OH242049   3.117   6.164   0.699  0.0765 -0.1642 -0.2661
 6853TIP3    H142050   3.041   6.107   0.715  0.2113 -1.1621 -2.8080
 6853TIP3    H242051   3.182   6.106   0.660  1.7607  0.9357  0.7805
 6854TIP3   OH242052   2.915   3.713  17.582  0.3787  0.0107 -0.2628
 6854TIP3    H142053   2.978   3.753  17.642  0.3517  1.3126 -1.0597
 6854TIP3    H242054   2.967   3.651  17.531  0.7170  0.0430  0.0368
 6855TIP3   OH242055   0.602   5.625  12.581  0.0234  0.1793  0.5046
 6855TIP3    H142056   0.609   5.704  12.528 -0.9683 -0.3738 -0.4920
 6855TIP3    H242057   0.586   5.657  12.670  0.3338  1.0928  0.2457
 6856TIP3   OH242058   5.433   1.971   5.819 -0.4497  0.0588  0.7202
 6856TIP3    H142059   5.474   1.942   5.900  0.7375  0.6212  0.3413
 6856TIP3    H242060   5.480   1.924   5.750  0.5752  1.7839  0.1861
 6857TIP3   OH242061   0.015   4.646   0.579 -0.5869 -0.8991 -0.1987
 6857TIP3    H142062   0.100   4.689   0.582 -0.7004 -0.7168  1.6783
 6857TIP3    H242063   0.032   4.559   0.545  0.3156 -0.7785 -0.0645
 6858TIP3   OH242064   0.791   0.873  15.240 -0.1018 -0.5732  0.0745
 6858TIP3    H142065   0.841   0.810  15.188  1.0945 -0.5627  1.1605
 6858TIP3    H242066   0.723   0.820  15.282 -1.0010 -0.5993 -1.3480
 6859TIP3   OH242067   0.413   0.603   4.289 -0.1459  0.3078  0.2472
 6859TIP3    H142068   0.377   0.691   4.292  3.6388  2.0575  0.7933
 6859TIP3    H242069   0.478   0.606   4.219  1.2826 -1.5036  1.3965
 6860TIP3   OH242070   5.930   2.017   5.022  0.2076 -0.2789 -0.4796
 6860TIP3    H142071   5.850   2.067   5.007  1.0907  0.7110 -2.2045
 6860TIP3    H242072   5.935   2.008   5.117 -0.5822  1.9413 -0.1699
 6861TIP3   OH242073   0.958   2.979   1.779  0.3329 -0.3197  0.1615
 6861TIP3    H142074   0.922   3.058   1.819  0.9708  1.2947 -2.2081
 6861TIP3    H242075   1.037   2.961   1.829 -0.0124  0.3235  0.9636
 6862TIP3   OH242076   3.376   3.341   1.541  0.4289 -0.0156 -0.1515
 6862TIP3    H142077   3.297   3.309   1.498  0.5827 -0.4197 -0.1355
 6862TIP3    H242078   3.439   3.270   1.531  0.1895 -0.5259  1.5478
 6863TIP3   OH242079   5.467   1.167  13.186  0.4602 -0.5382 -0.3384
 6863TIP3    H142080   5.430   1.217  13.259  0.9487 -0.3709 -0.2055
 6863TIP3    H242081   5.392   1.151  13.129  0.2901  0.3726 -0.3969
 6864TIP3   OH242082   5.986   0.780  10.630  0.2422  0.0543  0.2551
 6864TIP3    H142083   5.891   0.791  10.634  0.3367  1.8340 -1.2913
 6864TIP3    H242084   5.998   0.695  10.587 -0.6639  0.1571 -0.2352
 6865TIP3   OH242085   3.674   0.952  13.323  0.2766 -0.1221  0.0194
 6865TIP3    H142086   3.748   0.897  13.298  1.2661  0.5759  1.3205
 6865TIP3    H242087   3.672   1.021  13.256  1.3108  0.3072  0.4175
 6866TIP3   OH242088   0.679   1.860   4.886 -0.2292 -0.3693  0.3108
 6866TIP3    H142089   0.652   1.844   4.976  0.2403 -1.7987  0.2228
 6866TIP3    H242090   0.706   1.774   4.853  0.6579  0.3170 -0.8408
 6867TIP3   OH242091   6.643   1.387   1.266  0.3561 -0.1250 -0.6487
 6867TIP3    H142092   6.647   1.476   1.302  1.1721 -0.2377 -0.4400
 6867TIP3    H242093   6.552   1.376   1.239  0.2061  0.7096 -0.5083
 6868TIP3   OH242094   1.421   0.170  10.691 -0.2241 -0.9454 -0.7104
 6868TIP3    H142095   1.471   0.116  10.630  0.8369 -0.5008 -0.2640
 6868TIP3    H242096   1.392   0.108  10.758  1.3476 -0.9514  0.0299
 6869TIP3   OH242097   4.437   4.621   2.824  0.3151 -0.0401  0.5988
 6869TIP3    H142098   4.432   4.712   2.855 -1.5853  0.3325 -0.5635
 6869TIP3    H242099   4.529   4.607   2.803  0.6184  1.6763  0.6567
 6870TIP3   OH242100   0.734   6.010  15.363 -0.5633 -0.4869  0.2935
 6870TIP3    H142101   0.785   5.973  15.434 -0.0315  2.4094  1.5525
 6870TIP3    H242102   0.682   5.937  15.330  2.9901 -3.1739  0.1141
 6871TIP3   OH242103   0.077   3.596  16.573  0.3608  0.6233 -0.1061
 6871TIP3    H142104   0.050   3.554  16.655 -0.3993  1.6353  0.1907
 6871TIP3    H242105   0.164   3.631  16.591  0.3249  0.5724  0.1689
 6872TIP3   OH242106   1.055   0.801   4.989 -0.5352  0.4757 -0.0771
 6872TIP3    H142107   1.096   0.880   4.954  0.4964  0.3683  0.8451
 6872TIP3    H242108   1.072   0.734   4.923  2.2979  0.0191  0.9988
 6873TIP3   OH242109   1.579   5.851   3.419 -0.3470  0.1598  0.4359
 6873TIP3    H142110   1.591   5.944   3.399 -2.0715  0.5278  0.9713
 6873TIP3    H242111   1.531   5.851   3.502 -2.0896 -1.1431 -0.5120
 6874TIP3   OH242112   3.991   0.215  13.638  0.1996 -0.6033 -0.2712
 6874TIP3    H142113   4.022   0.284  13.696 -0.7939 -0.3546 -0.0258
 6874TIP3    H242114   4.009   0.134  13.687  0.3986 -0.4603 -0.1039
 6875TIP3   OH242115   3.560   0.459   1.714  0.2751 -0.0071 -0.3060
 6875TIP3    H142116   3.599   0.388   1.764 -0.4984  0.3008  0.7721
 6875TIP3    H242117   3.487   0.418   1.666  1.3646 -0.4181 -1.6854
 6876TIP3   OH242118   0.464   2.844  13.462 -0.0388 -0.0529 -0.0585
 6876TIP3    H142119   0.475   2.847  13.367  1.5660  1.8555  0.1296
 6876TIP3    H242120   0.377   2.805  13.474 -0.0401 -0.9226 -2.2592
 6877TIP3   OH242121   3.872   1.019  12.218 -0.6074 -0.2840 -0.2408
 6877TIP3    H142122   3.827   1.062  12.145  0.9256  1.2661 -0.3432
 6877TIP3    H242123   3.844   1.067  12.296 -1.1846 -1.0561  0.0386
 6878TIP3   OH242124   1.519   5.051  16.067 -0.0472  0.1271 -0.1249
 6878TIP3    H142125   1.499   4.963  16.037  2.0914 -0.3951 -0.1976
 6878TIP3    H242126   1.610   5.066  16.040 -0.4597  2.5129 -0.4724
 6879TIP3   OH242127   6.049   3.334   5.446  0.5649 -0.7275 -0.0591
 6879TIP3    H142128   6.037   3.243   5.421  0.8768 -0.8614  0.2781
 6879TIP3    H242129   6.142   3.342   5.466  0.3329 -0.6109  1.0111
 6880TIP3   OH242130   6.515   2.298   6.403 -0.2003 -0.2176  0.7519
 6880TIP3    H142131   6.484   2.208   6.413 -0.6267  0.1164  3.1388
 6880TIP3    H242132   6.609   2.292   6.417 -0.5366 -0.0487  4.1058
 6881TIP3   OH242133   4.233   0.410   5.540  0.1538  0.8460  0.6076
 6881TIP3    H142134   4.242   0.496   5.498  0.2365  1.1845  1.2911
 6881TIP3    H242135   4.322   0.374   5.540 -0.1188  0.0902 -1.0192
 6882TIP3   OH242136   3.608   4.853   5.887  0.5000 -0.3082 -0.2618
 6882TIP3    H142137   3.574   4.925   5.941  1.9662 -0.9116  1.5890
 6882TIP3    H242138   3.651   4.795   5.950  0.8462 -1.9325 -1.9238
 6883TIP3   OH242139   5.270   1.715   0.626  0.5904  0.0760 -0.4883
 6883TIP3    H142140   5.275   1.799   0.581  0.4754 -0.1670 -0.9622
 6883TIP3    H242141   5.287   1.736   0.718  1.8961  0.4318 -0.7871
 6884TIP3   OH242142   6.614   5.617   2.175  0.2817  0.3852  0.3092
 6884TIP3    H142143   6.683   5.639   2.112  0.5533 -1.1399  0.0337
 6884TIP3    H242144   6.658   5.564   2.241 -0.5805 -0.5255  0.1812
 6885TIP3   OH242145   0.719   1.014   6.426  0.3381 -1.0319 -0.0932
 6885TIP3    H142146   0.808   1.043   6.409  0.2303 -0.7921 -0.2503
 6885TIP3    H242147   0.670   1.094   6.442  0.2699 -1.2008  0.5601
 6886TIP3   OH242148   5.571   4.610  14.338 -0.3655 -0.0011  0.7079
 6886TIP3    H142149   5.620   4.550  14.393 -0.1757 -0.6186 -0.1165
 6886TIP3    H242150   5.481   4.577  14.341 -0.2762 -0.2924  0.3197
 6887TIP3   OH242151   6.306   0.719  14.021  0.6576  0.4618 -0.2056
 6887TIP3    H142152   6.240   0.736  14.089  0.8333  0.7599 -0.1087
 6887TIP3    H242153   6.310   0.624  14.015  0.2245  0.4392 -0.2037
 6888TIP3   OH242154   1.906   4.477   5.333 -0.5197  0.7988 -0.6751
 6888TIP3    H142155   1.889   4.479   5.239 -0.0308 -0.5576 -0.8180
 6888TIP3    H242156   1.992   4.436   5.341 -0.3394  1.3410  0.3513
 6889TIP3   OH242157   2.464   5.157  16.934 -0.7646 -0.6152  1.0942
 6889TIP3    H142158   2.371   5.177  16.921 -0.2895  0.2346 -1.5543
 6889TIP3    H242159   2.506   5.182  16.852  1.6522 -2.1230  1.7545
 6890TIP3   OH242160   1.167   6.618   2.981 -0.2585  0.6851  0.2752
 6890TIP3    H142161   1.115   6.679   3.032 -0.8677  1.5037 -1.2735
 6890TIP3    H242162   1.130   6.532   2.999 -0.8619  1.0410  0.7176
 6891TIP3   OH242163   2.446   3.571   4.572 -0.0015  0.2520  0.1179
 6891TIP3    H142164   2.491   3.578   4.487 -3.2528 -2.1708 -2.0618
 6891TIP3    H242165   2.428   3.478   4.582 -0.1020  0.5049  3.3911
 6892TIP3   OH242166   0.145   6.712  11.693 -0.1410 -0.1575  0.2824
 6892TIP3    H142167   0.234   6.679  11.680 -0.0090 -0.3775  1.5408
 6892TIP3    H242168   0.089   6.639  11.665  0.0463  0.2237 -1.1278
 6893TIP3   OH242169   4.513   5.030   4.879 -0.2834 -0.2267 -0.2218
 6893TIP3    H142170   4.519   4.962   4.812 -0.3332  0.0678 -0.5284
 6893TIP3    H242171   4.589   5.086   4.863  0.2953 -0.7484  0.6336
 6894TIP3   OH242172   3.643   3.621   4.730  0.3858  0.4239 -0.2791
 6894TIP3    H142173   3.582   3.640   4.801 -0.4983 -1.3919 -0.4908
 6894TIP3    H242174   3.611   3.672   4.656  0.3063  1.0186  0.1650
 6895TIP3   OH242175   3.164   1.546   3.729 -0.6607 -0.1066 -0.2526
 6895TIP3    H142176   3.223   1.471   3.733 -3.0397 -2.1204 -0.2826
 6895TIP3    H242177   3.192   1.595   3.651  0.4028 -1.4783 -0.7660
 6896TIP3   OH242178   2.192   5.174  16.937 -0.0322  0.0576  0.2018
 6896TIP3    H142179   2.167   5.210  17.022 -0.9762 -0.7077  0.2687
 6896TIP3    H242180   2.122   5.202  16.878  0.5819  0.5291 -0.3199
 6897TIP3   OH242181   0.911   2.109   1.086  0.4456  0.4349 -0.1358
 6897TIP3    H142182   0.886   2.193   1.125  1.3837  0.7308 -0.1453
 6897TIP3    H242183   0.913   2.126   0.992 -0.4048  0.1056 -0.2240
 6898TIP3   OH242184   3.463   4.136   1.677 -0.3525  0.1230 -0.0307
 6898TIP3    H142185   3.553   4.104   1.674 -1.2610 -2.8553  1.0427
 6898TIP3    H242186   3.459   4.203   1.609  2.5660  0.1642 -0.2923
 6899TIP3   OH242187   1.771   1.989   3.158  0.4682 -0.3743 -0.1438
 6899TIP3    H142188   1.792   2.082   3.157  0.2054 -0.3116  0.1885
 6899TIP3    H242189   1.856   1.946   3.167  0.4502 -0.1097  1.5416
 6900TIP3   OH242190   4.701   4.015   4.195  0.2050  0.1381  0.2624
 6900TIP3    H142191   4.642   3.949   4.232  0.7510 -1.7332 -1.9231
 6900TIP3    H242192   4.777   4.016   4.254  0.4183 -1.6579  0.0737
 6901TIP3   OH242193   1.458   2.323  14.759 -0.4963 -0.5415  0.0059
 6901TIP3    H142194   1.475   2.340  14.666 -1.1257 -1.6573 -0.3384
 6901TIP3    H242195   1.483   2.404  14.803 -1.3330  0.4647 -1.2632
 6902TIP3   OH242196   6.011   2.136  15.844  0.6064  0.0348 -0.6607
 6902TIP3    H142197   6.046   2.203  15.903  1.6284 -1.3844  0.4284
 6902TIP3    H242198   5.993   2.182  15.763  0.2821  1.8288  0.3795
 6903TIP3   OH242199   6.031   5.822   5.404 -0.0578  0.0547  0.9780
 6903TIP3    H142200   6.068   5.910   5.393 -1.0540  0.8889  3.4898
 6903TIP3    H242201   5.975   5.811   5.327  0.4051  1.4522  0.3931
 6904TIP3   OH242202   2.823   5.292  17.029 -0.0693  0.1894  0.0417
 6904TIP3    H142203   2.912   5.325  17.030 -0.2312  0.7565 -1.4016
 6904TIP3    H242204   2.784   5.329  16.949 -1.1951 -1.0733 -0.0467
 6905TIP3   OH242205   0.787   3.207   0.215  0.1185 -0.3100  0.3957
 6905TIP3    H142206   0.697   3.180   0.231 -0.6692  2.7606  1.8706
 6905TIP3    H242207   0.833   3.187   0.296  0.2015  0.1995  0.4755
 6906TIP3   OH242208   5.708   5.748   3.904  0.2198 -0.0436 -0.0246
 6906TIP3    H142209   5.618   5.724   3.885 -0.7041 -0.9260  4.3719
 6906TIP3    H242210   5.761   5.689   3.850 -1.7128  0.6450 -2.8531
 6907TIP3   OH242211   5.223   2.372   1.480 -0.5236  0.1782  0.1266
 6907TIP3    H142212   5.273   2.394   1.402  0.6822 -1.1075  0.4967
 6907TIP3    H242213   5.136   2.409   1.464 -0.5927 -0.8041 -2.2329
 6908TIP3   OH242214   1.034   5.119   1.651  0.6632  0.3395  0.5948
 6908TIP3    H142215   1.086   5.079   1.582 -1.7999  1.2201 -1.9978
 6908TIP3    H242216   1.033   5.055   1.722  2.0491 -1.3277 -0.8160
 6909TIP3   OH242217   3.168   3.935   4.345 -0.1011 -0.8030 -0.0333
 6909TIP3    H142218   3.247   3.964   4.299  0.6380 -2.0913  0.3729
 6909TIP3    H242219   3.136   3.861   4.293 -1.5750  0.2518 -0.6948
 6910TIP3   OH242220   0.607   6.591   4.310  0.0207  0.4790 -0.5747
 6910TIP3    H142221   0.638   6.502   4.290  1.8525  0.6802  1.0847
 6910TIP3    H242222   0.676   6.648   4.275 -1.1640  1.2844 -1.6630
 6911TIP3   OH242223   1.109   4.700   6.307  0.1702  0.0635  0.5719
 6911TIP3    H142224   1.054   4.654   6.369  0.4974  0.9741  1.5689
 6911TIP3    H242225   1.192   4.651   6.307 -0.9110 -1.9631 -1.7528
 6912TIP3   OH242226   5.934   0.659   1.480 -0.0542  0.3735  0.1370
 6912TIP3    H142227   5.975   0.737   1.517 -0.1335 -0.1254  1.2990
 6912TIP3    H242228   5.972   0.651   1.392  1.1612  0.7895  0.6139
 6913TIP3   OH242229   6.717   2.226   5.051  0.4333 -0.4400 -0.3382
 6913TIP3    H142230   6.622   2.225   5.043  0.3001  1.3374  0.5349
 6913TIP3    H242231   6.745   2.298   4.995  1.1699 -0.2214  0.3016
 6914TIP3   OH242232   2.474   4.405  13.867  0.0355 -0.4498  0.0183
 6914TIP3    H142233   2.395   4.361  13.835  0.6608 -1.3249 -0.3647
 6914TIP3    H242234   2.518   4.340  13.921 -1.3714  1.1964  3.4673
 6915TIP3   OH242235   4.491   5.982   4.505  0.1921  0.2246 -0.3037
 6915TIP3    H142236   4.567   6.003   4.559  0.2682  0.3706 -0.4667
 6915TIP3    H242237   4.417   5.987   4.565  0.1228  1.6337 -0.4644
 6916TIP3   OH242238   5.675   4.112  17.408  0.1007  0.4075 -0.2973
 6916TIP3    H142239   5.603   4.082  17.352 -1.9738  0.8409  2.0125
 6916TIP3    H242240   5.728   4.033  17.422 -0.5357 -0.1902 -1.1036
 6917TIP3   OH242241   6.451   3.994  16.568 -0.1974 -0.3360  0.4462
 6917TIP3    H142242   6.483   4.078  16.536  1.1929 -0.8377  0.4583
 6917TIP3    H242243   6.530   3.945  16.590 -0.7087 -2.9797 -2.8422
 6918TIP3   OH242244   5.694   5.436   5.612  0.2726  0.8717 -0.3796
 6918TIP3    H142245   5.776   5.477   5.585 -0.4239  2.7616  0.1717
 6918TIP3    H242246   5.719   5.374   5.680  1.2532  1.3734 -0.2580
 6919TIP3   OH242247   1.629   0.732  16.811 -0.1189 -0.0802 -0.8633
 6919TIP3    H142248   1.700   0.789  16.840 -1.0011  1.0250 -0.7993
 6919TIP3    H242249   1.645   0.718  16.718 -0.6275  1.4416 -1.2122
 6920TIP3   OH242250   6.444   2.075   1.095 -0.1304  0.0352  0.4801
 6920TIP3    H142251   6.477   2.102   1.180  0.2414  0.8607  0.0898
 6920TIP3    H242252   6.516   2.026   1.055 -0.3543 -0.4702  0.6921
 6921TIP3   OH242253   2.580   0.987   5.056 -0.1222 -0.2152  0.4638
 6921TIP3    H142254   2.488   0.991   5.080 -0.9224  1.4680 -2.4052
 6921TIP3    H242255   2.602   1.076   5.028  0.4952 -1.6255 -4.7365
 6922TIP3   OH242256   3.007   1.473  17.113  0.7773  0.1302 -0.6484
 6922TIP3    H142257   2.963   1.541  17.163  1.3400 -0.4531  0.6957
 6922TIP3    H242258   2.938   1.410  17.092  0.4923  0.5046 -0.8510
 6923TIP3   OH242259   5.613   4.529  14.787 -0.1417  0.0776 -0.3151
 6923TIP3    H142260   5.654   4.508  14.703  1.1099  1.2884 -0.0533
 6923TIP3    H242261   5.534   4.577  14.764 -0.5042 -0.7354 -0.8116
 6924TIP3   OH242262   5.942   1.920   6.065  0.2142  0.4568  0.0249
 6924TIP3    H142263   5.979   1.965   6.141 -0.8764 -0.1453  0.9391
 6924TIP3    H242264   5.982   1.964   5.990  1.0630  1.2896  0.9328
 6925TIP3   OH242265   6.268   0.256  11.114 -0.0685  0.4455  0.1958
 6925TIP3    H142266   6.218   0.182  11.080  0.2958 -0.2229  1.0712
 6925TIP3    H242267   6.323   0.284  11.041  1.2706 -1.4575  0.4184
 6926TIP3   OH242268   0.148   1.204  14.591 -0.0988  0.2366  0.4437
 6926TIP3    H142269   0.217   1.179  14.529  0.4307  1.2233  0.6108
 6926TIP3    H242270   0.115   1.287  14.558 -1.4688 -0.3969  0.1749
 6927TIP3   OH242271   6.547   2.968   6.044  0.3419 -0.4224  0.8326
 6927TIP3    H142272   6.480   2.899   6.050 -0.2467 -0.0672 -0.8708
 6927TIP3    H242273   6.629   2.925   6.068 -0.3126 -1.1827  1.7718
 6928TIP3   OH242274   5.182   2.921  17.149  0.7338 -0.1258  0.3111
 6928TIP3    H142275   5.252   2.856  17.145  1.5570  0.6076  1.8912
 6928TIP3    H242276   5.140   2.917  17.062  2.8951 -0.3925 -0.7882
 6929TIP3   OH242277   3.809   0.774   2.190 -0.3485  0.1035  1.0291
 6929TIP3    H142278   3.806   0.870   2.194  1.4970  0.2741 -0.1987
 6929TIP3    H242279   3.852   0.756   2.106 -0.9670 -1.8180  1.0978
 6930TIP3   OH242280   6.244   3.975  15.189 -0.0573  0.2049 -0.2796
 6930TIP3    H142281   6.205   3.980  15.102  1.0384  0.9787 -0.7483
 6930TIP3    H242282   6.320   3.918  15.178  0.1110  0.3398  0.1676
 6931TIP3   OH242283   0.815   3.566   4.545 -0.3455 -0.0709  0.4188
 6931TIP3    H142284   0.785   3.657   4.552 -2.0038 -0.6783  2.6714
 6931TIP3    H242285   0.749   3.523   4.492 -0.0417 -0.1423  0.0976
 6932TIP3   OH242286   1.310   2.770  14.992  0.1096 -0.3431 -0.0612
 6932TIP3    H142287   1.345   2.769  15.081 -0.9645 -0.6015  0.3759
 6932TIP3    H242288   1.344   2.851  14.954  0.8871 -0.4187  0.4544
 6933TIP3   OH242289   5.289   5.795  11.485  0.2161  0.0218  0.1441
 6933TIP3    H142290   5.205   5.753  11.465  0.7056 -0.6057 -0.6700
 6933TIP3    H242291   5.349   5.721  11.500  0.7447  0.4510  0.1590
 6934TIP3   OH242292   3.138   2.144  16.411 -0.4795 -0.1900 -0.2247
 6934TIP3    H142293   3.195   2.158  16.486 -2.2323  0.9330  0.9849
 6934TIP3    H242294   3.142   2.225  16.361  0.3327 -0.7690 -1.1322
 6935TIP3   OH242295   5.037   4.725   5.519  0.2003 -0.3789  0.4163
 6935TIP3    H142296   5.011   4.665   5.449 -0.7450  0.3345  0.1252
 6935TIP3    H242297   4.956   4.739   5.569  0.1667  1.3163 -0.0472
 6936TIP3   OH242298   4.322   4.848  16.394 -0.2248 -0.3655 -0.1420
 6936TIP3    H142299   4.274   4.930  16.393 -0.1705 -0.2947  1.1431
 6936TIP3    H242300   4.414   4.873  16.387 -0.2336 -0.3458 -0.1891
 6937TIP3   OH242301   5.224   2.879   6.549  0.2195 -0.2455  0.1801
 6937TIP3    H142302   5.142   2.906   6.506  0.0581  0.0277  0.6563
 6937TIP3    H242303   5.196   2.818   6.618  0.5037 -0.9050 -0.2742
 6938TIP3   OH242304   3.065   0.903   6.073 -0.1150 -0.1629 -0.0078
 6938TIP3    H142305   3.063   0.875   5.982 -1.5542 -0.5012  0.0895
 6938TIP3    H242306   2.973   0.917   6.095  0.2570  0.4589  1.2289
 6939TIP3   OH242307   0.539   4.666  13.809 -0.6144 -0.2796 -0.3960
 6939TIP3    H142308   0.464   4.680  13.751 -0.3688  1.2627 -0.3666
 6939TIP3    H242309   0.526   4.726  13.881  0.9066  0.4059 -0.6510
 6940TIP3   OH242310   2.225   2.617  14.047  0.8780 -0.0960 -0.3628
 6940TIP3    H142311   2.277   2.549  14.005 -0.7441 -0.4575 -1.8847
 6940TIP3    H242312   2.136   2.582  14.049  0.0987  1.7577 -0.7055
 6941TIP3   OH242313   5.572   4.192   5.149 -0.0292 -0.0738  0.6236
 6941TIP3    H142314   5.511   4.256   5.186 -0.9160 -0.9637  0.7310
 6941TIP3    H242315   5.645   4.190   5.212 -0.3893  0.2052  1.0594
 6942TIP3   OH242316   3.773   1.117  12.782  0.1857 -0.0077 -0.5105
 6942TIP3    H142317   3.698   1.172  12.758 -2.6428 -2.7390  1.3491
 6942TIP3    H242318   3.814   1.163  12.855 -0.7803  0.6975 -0.3941
 6943TIP3   OH242319   5.488   0.815   0.654  0.2398 -0.2550  0.1413
 6943TIP3    H142320   5.459   0.738   0.606 -1.2625  0.2313  0.1935
 6943TIP3    H242321   5.537   0.867   0.590 -0.9179 -0.0705 -0.6378
 6944TIP3   OH242322   0.808   5.269  15.154  0.2399  0.3338  0.5958
 6944TIP3    H142323   0.741   5.230  15.098  1.3541 -0.8475  0.0473
 6944TIP3    H242324   0.830   5.200  15.217  0.7686  0.7932  0.9295
 6945TIP3   OH242325   0.307   6.244  10.528 -0.0751  0.4323  0.3847
 6945TIP3    H142326   0.368   6.260  10.600 -0.1688  1.2998  0.2755
 6945TIP3    H242327   0.236   6.192  10.568  0.7766 -0.7031  0.4811
 6946TIP3   OH242328   2.899   6.236  11.773 -0.0832 -0.4689  0.1236
 6946TIP3    H142329   2.915   6.239  11.678 -0.5386 -1.3466  0.0095
 6946TIP3    H242330   2.804   6.230  11.781 -0.0247 -0.7115  0.6257
 6947TIP3   OH242331   1.256   2.563  17.143  0.1703 -0.0763 -0.1682
 6947TIP3    H142332   1.227   2.518  17.223 -2.6644  0.2351 -0.8902
 6947TIP3    H242333   1.291   2.493  17.088 -0.1394 -0.6987  0.4073
 6948TIP3   OH242334   6.505   3.743   6.447 -0.3522  0.3498  0.0958
 6948TIP3    H142335   6.498   3.715   6.538 -1.7831  0.8826  0.1768
 6948TIP3    H242336   6.506   3.838   6.451  0.9307  0.3761 -0.3869
 6949TIP3   OH242337   5.218   5.242   5.085  0.5896  0.3353  0.3877
 6949TIP3    H142338   5.188   5.255   5.174  2.1994  0.6448  0.9165
 6949TIP3    H242339   5.288   5.306   5.073  0.8778 -0.1712 -0.8466
 6950TIP3   OH242340   6.581   2.688  15.124 -0.5592  0.2286  0.3113
 6950TIP3    H142341   6.560   2.781  15.117 -1.0227  0.1015 -0.0178
 6950TIP3    H242342   6.654   2.676  15.064 -0.3652  0.4181  0.5059
 6951TIP3   OH242343   2.872   5.881  16.507 -0.1614  0.1268  0.0197
 6951TIP3    H142344   2.932   5.909  16.438 -1.1398  1.8694 -0.1677
 6951TIP3    H242345   2.920   5.813  16.554  1.6991  1.0024 -0.5361
 6952TIP3   OH242346   5.714   2.313   3.415 -0.4219  0.3308  0.2424
 6952TIP3    H142347   5.619   2.319   3.424 -0.6548 -1.4727 -0.6634
 6952TIP3    H242348   5.746   2.399   3.444 -2.1627  0.3514  2.4050
 6953TIP3   OH242349   0.013   6.324   3.453 -0.1157 -0.4287 -0.2001
 6953TIP3    H142350   0.063   6.361   3.525 -1.4762 -1.0239  1.0931
 6953TIP3    H242351  -0.001   6.397   3.393 -0.1168  0.4068  0.8045
 6954TIP3   OH242352   3.493   6.215  12.570 -0.1519  0.6592  0.1067
 6954TIP3    H142353   3.485   6.205  12.475 -0.7745  0.1424  0.2041
 6954TIP3    H242354   3.580   6.181  12.591 -0.4266 -0.2219 -0.1533
 6955TIP3   OH242355   4.270   4.109  12.625  0.2522 -0.0794 -0.5103
 6955TIP3    H142356   4.241   4.175  12.688  1.1668  1.3572 -1.5277
 6955TIP3    H242357   4.300   4.159  12.550  0.3369 -1.7049 -1.6165
 6956TIP3   OH242358   1.610   1.801   3.313 -0.2606  0.4834 -0.0630
 6956TIP3    H142359   1.633   1.885   3.273 -0.5190  1.4304  1.6682
 6956TIP3    H242360   1.534   1.771   3.264 -0.5100  1.5485 -0.3548
 6957TIP3   OH242361   1.943   2.644  16.715 -0.1088 -0.5260  0.3033
 6957TIP3    H142362   1.887   2.585  16.665  1.5832 -2.4331  0.5243
 6957TIP3    H242363   1.944   2.608  16.804  0.8230 -0.0591  0.4972
 6958TIP3   OH242364   3.458   2.261   3.399 -0.7816  0.6244  0.6220
 6958TIP3    H142365   3.470   2.353   3.377 -0.1721  0.8435  1.7817
 6958TIP3    H242366   3.382   2.233   3.348  1.7273  0.4891 -3.4210
 6959TIP3   OH242367   1.496   2.375  12.993  0.2830 -0.6350 -0.0162
 6959TIP3    H142368   1.576   2.397  12.945  0.7016 -0.0809  0.8954
 6959TIP3    H242369   1.523   2.374  13.085 -0.7301 -0.5640  0.2933
 6960TIP3   OH242370   0.577   0.537   5.234  0.5760  0.4360  0.3819
 6960TIP3    H142371   0.577   0.632   5.235 -0.2134  0.4390  1.5309
 6960TIP3    H242372   0.554   0.511   5.323  2.7855 -0.8607  0.6525
 6961TIP3   OH242373   2.809   6.656  11.648  0.7476  0.2073 -0.0411
 6961TIP3    H142374   2.724   6.663  11.605  1.3381 -0.2269 -1.3381
 6961TIP3    H242375   2.842   6.570  11.622  1.9904  0.7544 -0.3671
 6962TIP3   OH242376   0.114   6.208   2.167  0.0576  0.8985 -0.0291
 6962TIP3    H142377   0.092   6.202   2.074 -0.6169  0.5528  0.1437
 6962TIP3    H242378   0.039   6.253   2.206  0.7084  1.7941  0.2273
 6963TIP3   OH242379   3.795   3.935   2.024  0.2274 -0.3555  0.0908
 6963TIP3    H142380   3.770   4.027   2.037 -1.3691 -0.8309  0.7371
 6963TIP3    H242381   3.740   3.905   1.951  0.7647 -0.7797 -0.1421
 6964TIP3   OH242382   5.661   5.936   0.627  0.1085  0.5782  0.4787
 6964TIP3    H142383   5.621   6.022   0.611 -1.4659 -0.1911  0.1547
 6964TIP3    H242384   5.657   5.891   0.543 -0.0307 -0.2087  0.9019
 6965TIP3   OH242385   2.508   2.936   2.236 -0.1494 -0.5106  0.0763
 6965TIP3    H142386   2.537   2.925   2.327 -0.5559 -1.6041  0.0882
 6965TIP3    H242387   2.434   2.876   2.227  0.6897 -1.3893 -1.3505
 6966TIP3   OH242388   2.234   5.714   3.457  0.6387 -0.3005 -0.2329
 6966TIP3    H142389   2.237   5.767   3.537 -0.2802 -3.2109  1.9389
 6966TIP3    H242390   2.142   5.717   3.430  0.7513 -0.1237 -0.6005
 6967TIP3   OH242391   3.139   5.980  13.547  0.0331  0.3803  0.6090
 6967TIP3    H142392   3.190   6.028  13.612  0.4168  0.4278  0.2750
 6967TIP3    H242393   3.186   5.993  13.465 -0.6582  0.6398  0.2481
 6968TIP3   OH242394   3.125   5.314  15.148  0.0445  0.0034 -0.4294
 6968TIP3    H142395   3.210   5.337  15.111 -0.2763  1.9103 -0.0677
 6968TIP3    H242396   3.075   5.395  15.147 -0.6129 -0.2573  2.4743
 6969TIP3   OH242397   4.314   4.707   4.901  0.3744  0.6247  0.1973
 6969TIP3    H142398   4.348   4.746   4.981 -0.2315 -0.4230  0.9798
 6969TIP3    H242399   4.252   4.773   4.867  0.6631  1.0856  0.5563
 6970TIP3   OH242400   4.049   3.090   4.259  0.2596  0.4380 -0.3133
 6970TIP3    H142401   3.995   3.011   4.272 -1.0740  1.4945  1.0513
 6970TIP3    H242402   4.082   3.082   4.170  2.1497 -2.7990  0.4828
 6971TIP3   OH242403   0.131   0.536  10.857 -0.8047 -0.4011  0.0729
 6971TIP3    H142404   0.148   0.578  10.773 -1.4959  0.2975  0.2672
 6971TIP3    H242405   0.036   0.524  10.859 -1.0056  1.1383  1.4551
 6972TIP3   OH242406   4.677   0.924  13.290 -0.5922  0.1155 -0.3386
 6972TIP3    H142407   4.745   0.967  13.342  2.0545 -1.9597 -1.7852
 6972TIP3    H242408   4.653   0.847  13.341 -1.7905  0.7597  0.0935
 6973TIP3   OH242409   0.723   5.486  12.383  0.5432 -0.0072  0.5001
 6973TIP3    H142410   0.796   5.434  12.417 -0.9004 -3.0130 -0.6378
 6973TIP3    H242411   0.675   5.513  12.462  1.1320 -0.7256  1.1239
 6974TIP3   OH242412   3.413   0.219   4.788  0.5545  0.3390  0.3129
 6974TIP3    H142413   3.477   0.249   4.724  2.2708 -0.8306  1.4157
 6974TIP3    H242414   3.402   0.126   4.770  0.1034  0.2702  0.9036
 6975TIP3   OH242415   6.020   0.324  14.976 -0.5523  0.6552 -0.5272
 6975TIP3    H142416   6.014   0.278  15.060  1.6233 -0.2190 -0.7954
 6975TIP3    H242417   5.935   0.309  14.935 -1.0972 -0.2396  0.8504
 6976TIP3   OH242418   1.000   2.092  14.822  0.3104  0.0428 -0.2687
 6976TIP3    H142419   1.061   2.022  14.801  1.1442 -0.2865  2.8108
 6976TIP3    H242420   1.049   2.172  14.805  0.0689 -0.1109 -1.8252
 6977TIP3   OH242421   6.578   4.944   5.858 -0.7472 -0.6160 -0.3560
 6977TIP3    H142422   6.673   4.940   5.865 -0.7544 -0.2670 -0.0222
 6977TIP3    H242423   6.555   5.030   5.894 -1.2089 -0.8143 -0.1677
 6978TIP3   OH242424   1.380   4.181  13.376 -0.6712  0.3886 -0.7297
 6978TIP3    H142425   1.371   4.087  13.390 -0.8498  0.5158  0.0920
 6978TIP3    H242426   1.447   4.189  13.309  2.0497 -0.2541  1.7051
 6979TIP3   OH242427   4.709   5.317  12.883  0.4874 -0.4487  0.1554
 6979TIP3    H142428   4.745   5.229  12.869 -0.1451 -0.6623 -0.1555
 6979TIP3    H242429   4.741   5.368  12.808  1.7641 -0.1078  0.8960
 6980TIP3   OH242430   2.606   6.670  12.146 -0.8067  0.0017 -0.1381
 6980TIP3    H142431   2.584   6.610  12.075 -1.7017 -3.8204  3.0108
 6980TIP3    H242432   2.700   6.659  12.159 -0.4881  1.2983 -1.0876
 6981TIP3   OH242433   2.688   1.432  13.825 -0.3719 -0.2413  0.0439
 6981TIP3    H142434   2.781   1.417  13.808 -0.3980  1.1207 -1.5997
 6981TIP3    H242435   2.687   1.509  13.882 -0.4838 -0.7964  0.8034
 6982TIP3   OH242436   3.226   6.454  11.478 -0.4518 -0.4065  0.3961
 6982TIP3    H142437   3.155   6.430  11.419  0.6082  0.4377 -1.3170
 6982TIP3    H242438   3.305   6.421  11.435  0.4272  0.9179  0.9266
 6983TIP3   OH242439   3.206   2.579   6.256 -0.0950  0.4491  0.0747
 6983TIP3    H142440   3.166   2.660   6.288  2.5122  1.9745 -0.2558
 6983TIP3    H242441   3.295   2.604   6.232  0.1952 -2.1053 -1.9580
 6984TIP3   OH242442   5.513   2.568  13.974  0.0811  0.0489  0.4632
 6984TIP3    H142443   5.475   2.481  13.963  0.0696  0.2308 -1.2741
 6984TIP3    H242444   5.577   2.575  13.903 -1.9887  2.4852 -1.3733
 6985TIP3   OH242445   2.727   0.436  14.114 -0.3064 -0.3739 -0.2612
 6985TIP3    H142446   2.727   0.449  14.209  0.4607  0.8249 -0.4154
 6985TIP3    H242447   2.731   0.341  14.104  1.0788 -0.4873  0.9223
 6986TIP3   OH242448   5.122   0.798   5.371  0.1306  0.0748  0.0533
 6986TIP3    H142449   5.189   0.768   5.310 -0.7081  0.1499 -0.9285
 6986TIP3    H242450   5.147   0.759   5.455  1.0845 -0.3501 -0.4133
 6987TIP3   OH242451   0.864   4.198   3.915  0.0714 -0.8315  0.1337
 6987TIP3    H142452   0.834   4.178   4.004  1.3931 -1.1265  0.5220
 6987TIP3    H242453   0.903   4.116   3.884 -0.0362 -0.6152 -0.5776
 6988TIP3   OH242454   4.562   4.554   4.475  0.4063 -0.0245 -0.1946
 6988TIP3    H142455   4.557   4.590   4.563 -0.5370  1.1486 -0.7014
 6988TIP3    H242456   4.604   4.469   4.486  0.2345  0.0755  1.3911
 6989TIP3   OH242457   3.743   4.218   6.933  0.0743 -0.4410  0.0796
 6989TIP3    H142458   3.775   4.266   6.856  0.9619 -0.1879  0.5970
 6989TIP3    H242459   3.666   4.172   6.901 -0.5889  1.0123 -0.5382
 6990TIP3   OH242460   6.087   3.046   4.594 -0.0542 -0.4369  0.1186
 6990TIP3    H142461   6.150   3.018   4.527 -0.7507 -1.9849  0.0729
 6990TIP3    H242462   6.002   3.017   4.561 -0.7637  1.2140  0.3989
 6991TIP3   OH242463   4.613   2.064  16.912 -0.8501  0.1603  0.7465
 6991TIP3    H142464   4.624   2.150  16.871 -1.0031 -0.7195 -1.2559
 6991TIP3    H242465   4.629   2.001  16.841  1.4150 -1.5456  2.6350
 6992TIP3   OH242466   3.766   6.725  14.216 -0.6107 -0.7050  0.3391
 6992TIP3    H142467   3.687   6.695  14.171 -2.1017  1.0537  1.6035
 6992TIP3    H242468   3.737   6.741  14.306  0.4561  2.4851  0.2648
 6993TIP3   OH242469   0.648   2.286  17.200  0.1916 -0.2630  0.3309
 6993TIP3    H142470   0.604   2.360  17.241  0.2901 -0.4929  0.8669
 6993TIP3    H242471   0.718   2.263  17.262 -0.5730 -1.5381  0.7590
 6994TIP3   OH242472   6.079   6.200   2.771  0.1017  0.2923 -0.3376
 6994TIP3    H142473   6.142   6.247   2.825 -1.1428  1.9250 -0.2084
 6994TIP3    H242474   6.026   6.269   2.732 -0.9794 -0.9883 -1.2090
 6995TIP3   OH242475   6.570   2.441   4.259  0.0060 -0.4409  0.1700
 6995TIP3    H142476   6.599   2.350   4.251 -1.4495 -0.9314  0.2320
 6995TIP3    H242477   6.513   2.455   4.183 -0.6064  0.0879  0.7185
 6996TIP3   OH242478   2.663   3.198  16.013 -0.1498 -0.3656 -0.4129
 6996TIP3    H142479   2.653   3.253  15.935 -0.5752 -0.8497 -0.7098
 6996TIP3    H242480   2.600   3.127  15.999 -1.5540  0.4979  1.2061
 6997TIP3   OH242481   6.521   2.064   0.673 -0.4407 -0.1328 -0.0246
 6997TIP3    H142482   6.511   2.144   0.725 -0.6711 -0.8625  1.0943
 6997TIP3    H242483   6.562   2.093   0.591 -0.3102  1.0907  0.4582
 6998TIP3   OH242484   6.060   4.636   1.153 -0.6570 -0.4693 -0.3814
 6998TIP3    H142485   6.078   4.670   1.240 -2.3348 -1.1957  0.2921
 6998TIP3    H242486   6.093   4.546   1.155  1.1600  0.1439 -1.2046
 6999TIP3   OH242487   2.790   5.279  15.689  0.3567  0.1378 -0.3580
 6999TIP3    H142488   2.813   5.283  15.596  0.2661  1.1477 -0.3439
 6999TIP3    H242489   2.869   5.248  15.732  0.1285 -1.2314 -0.8552
 7000TIP3   OH242490   2.290   5.835  16.683 -0.1667 -0.3360 -0.0088
 7000TIP3    H142491   2.239   5.896  16.629 -0.8758 -0.3527  0.6239
 7000TIP3    H242492   2.295   5.877  16.768  2.1964  0.3670 -0.4370
 7001TIP3   OH242493   5.006   6.572  14.927 -0.0642 -0.7671  0.4377
 7001TIP3    H142494   4.964   6.657  14.940  1.4186 -0.0753  0.9188
 7001TIP3    H242495   4.983   6.521  15.004 -1.0424 -0.8488  0.1012
 7002TIP3   OH242496   4.522   2.255  12.760  0.0310 -0.0845 -0.0644
 7002TIP3    H142497   4.560   2.338  12.731 -2.2764  0.7397 -0.9353
 7002TIP3    H242498   4.595   2.193  12.759  1.3603  1.4258 -1.5279
 7003TIP3   OH242499   2.900   4.035   0.943 -0.0925 -0.4023 -0.8180
 7003TIP3    H142500   2.987   4.067   0.969 -0.4980 -0.8942  1.3854
 7003TIP3    H242501   2.863   4.106   0.891  1.1474  0.3364 -0.7428
 7004TIP3   OH242502   1.249   1.929  12.138 -0.5234 -0.4075  0.2309
 7004TIP3    H142503   1.268   1.898  12.227 -1.8928 -0.5042  0.5183
 7004TIP3    H242504   1.330   1.914  12.089 -0.1649 -1.5829  1.1367
 7005TIP3   OH242505   2.490   2.728   2.673 -0.0885  0.3375 -0.2149
 7005TIP3    H142506   2.439   2.718   2.754  0.2579 -0.4082 -0.0809
 7005TIP3    H242507   2.432   2.697   2.604  0.0059 -0.0716 -0.1160
 7006TIP3   OH242508   6.329   2.965   0.410 -1.0367  0.0349 -0.1090
 7006TIP3    H142509   6.294   3.049   0.440 -2.8308 -0.0904 -1.6668
 7006TIP3    H242510   6.367   2.925   0.489 -1.3658  1.6926  0.9417
 7007TIP3   OH242511   1.702   2.214  16.563  0.2439 -0.2257 -0.2060
 7007TIP3    H142512   1.746   2.182  16.641 -0.8762  1.8843  1.3982
 7007TIP3    H242513   1.625   2.158  16.554 -1.0856  1.0899  1.9023
 7008TIP3   OH242514   0.193   6.242   1.807  0.0590  0.3121 -0.0620
 7008TIP3    H142515   0.139   6.316   1.835  0.0335  0.5734 -0.7853
 7008TIP3    H242516   0.138   6.166   1.819 -2.1377  0.8513 -4.5637
 7009TIP3   OH242517   5.760   4.601  14.115  0.0500  0.3049  0.0605
 7009TIP3    H142518   5.697   4.600  14.187  0.2244  1.0555  0.2325
 7009TIP3    H242519   5.838   4.558  14.151 -0.1442 -0.0713  0.0435
 7010TIP3   OH242520   4.652   5.001  15.336  0.7552 -0.6569 -0.2861
 7010TIP3    H142521   4.717   5.062  15.372 -0.4965  0.6077 -0.0982
 7010TIP3    H242522   4.659   4.924  15.393  1.6300 -0.2941  0.1327
 7011TIP3   OH242523   2.833   3.229   4.654 -0.1843  0.4210 -0.0455
 7011TIP3    H142524   2.812   3.265   4.741 -0.5672 -2.8404  1.3832
 7011TIP3    H242525   2.928   3.229   4.651 -0.1483  0.0646  0.6611
 7012TIP3   OH242526   3.346   3.956   3.686 -0.2083 -0.1001 -0.3746
 7012TIP3    H142527   3.404   3.894   3.731 -0.2439  0.1241 -0.0131
 7012TIP3    H242528   3.264   3.951   3.736 -1.0975 -1.6726 -1.8843
 7013TIP3   OH242529   3.847   5.513   4.339  0.1341 -0.2008 -0.4902
 7013TIP3    H142530   3.760   5.479   4.319  0.6997  0.0093 -3.8512
 7013TIP3    H242531   3.832   5.588   4.397 -1.6892 -1.3890  0.6719
 7014TIP3   OH242532   5.330   4.172   2.505 -0.4398  0.4736 -0.1691
 7014TIP3    H142533   5.262   4.145   2.567 -1.1300 -0.5526 -1.3056
 7014TIP3    H242534   5.292   4.152   2.419  1.0711  0.4368 -0.8559
 7015TIP3   OH242535   4.634   4.803   3.266  0.0980 -0.0121 -0.6601
 7015TIP3    H142536   4.691   4.775   3.338  0.5419  0.2739 -0.8950
 7015TIP3    H242537   4.686   4.866   3.217 -0.6191  0.6566 -0.5759
 7016TIP3   OH242538   4.500   6.603   4.027 -0.1766  0.0806  0.2527
 7016TIP3    H142539   4.549   6.683   4.004 -1.7913  0.8950 -0.5027
 7016TIP3    H242540   4.500   6.602   4.123  2.0525 -0.4387  0.3034
 7017TIP3   OH242541   0.450   3.547   2.319  0.1877  0.0180  0.2034
 7017TIP3    H142542   0.383   3.591   2.267  0.3690  0.0586  0.0003
 7017TIP3    H242543   0.526   3.605   2.313  0.1060  0.1868  0.7926
 7018TIP3   OH242544   4.402   4.809  14.911 -0.1876 -0.1900  0.5357
 7018TIP3    H142545   4.451   4.730  14.889  0.0090  0.3738 -1.2530
 7018TIP3    H242546   4.311   4.781  14.913 -0.2210 -0.3119 -1.1138
 7019TIP3   OH242547   4.471   1.024   0.919 -0.2580  0.3782 -0.3148
 7019TIP3    H142548   4.498   1.099   0.866 -0.7933  0.9419  0.1789
 7019TIP3    H242549   4.487   1.052   1.009  0.8004 -0.6282 -0.1716
 7020TIP3   OH242550   2.056   2.022  11.801 -0.8842  0.5494 -0.0975
 7020TIP3    H142551   2.050   2.086  11.729  1.9918  1.2422  0.1575
 7020TIP3    H242552   2.019   2.067  11.876  1.0108  1.9909  0.0509
 7021TIP3   OH242553   0.072   5.573  11.178 -0.2030  0.0786 -0.1756
 7021TIP3    H142554   0.121   5.530  11.108 -0.6892 -1.3478  0.3383
 7021TIP3    H242555   0.133   5.639  11.213  0.5726 -0.2177 -0.9337
 7022TIP3   OH242556   1.417   3.018   5.246  0.1861  0.0526 -0.3561
 7022TIP3    H142557   1.346   3.063   5.291  0.2740  1.5945 -1.6462
 7022TIP3    H242558   1.486   3.083   5.240  1.3706 -1.1261  0.0370
 7023TIP3   OH242559   4.860   3.561  14.074  0.1111  0.4124  0.2540
 7023TIP3    H142560   4.838   3.522  13.990 -1.2113 -1.4351  1.3835
 7023TIP3    H242561   4.776   3.591  14.109  0.7196  1.6512  0.7057
 7024TIP3   OH242562   4.374   3.794   7.290 -0.2339 -0.5326 -0.2971
 7024TIP3    H142563   4.351   3.835   7.206  2.7151  0.4160 -0.7722
 7024TIP3    H242564   4.432   3.722   7.265  3.7983  2.0020  0.8770
 7025TIP3   OH242565   5.280   2.436  17.554  0.1582 -0.1121  0.2460
 7025TIP3    H142566   5.280   2.516  17.503  2.4925 -0.4411 -0.4226
 7025TIP3    H242567   5.320   2.461  17.638 -0.3866 -0.2971  0.5668
 7026TIP3   OH242568   5.755   1.902   3.160  0.0091  0.3787  0.1788
 7026TIP3    H142569   5.753   1.923   3.254 -0.2471 -0.5624  0.4008
 7026TIP3    H242570   5.750   1.987   3.116  0.3130  0.8469  1.0175
 7027TIP3   OH242571   4.189   2.148  15.859 -0.6513  0.6372  0.1768
 7027TIP3    H142572   4.153   2.070  15.901 -1.9560  0.9555 -0.2931
 7027TIP3    H242573   4.115   2.209  15.855 -0.0478  1.3312 -0.8209
 7028TIP3   OH242574   5.574   0.594  13.247  0.0131 -0.1759  0.1494
 7028TIP3    H142575   5.659   0.594  13.202  1.0652  1.4868  1.9651
 7028TIP3    H242576   5.571   0.678  13.293 -1.9795 -0.8270  1.3442
 7029TIP3   OH242577   5.643   4.979   6.380  0.0735 -0.4829 -0.5160
 7029TIP3    H142578   5.625   5.040   6.451  1.9265  0.0065 -0.4099
 7029TIP3    H242579   5.588   4.903   6.399 -2.5214  1.1969 -0.8176
 7030TIP3   OH242580   5.910   3.849  13.444  0.2816  0.3718 -0.0291
 7030TIP3    H142581   5.918   3.821  13.535 -0.0118 -1.0176 -0.4120
 7030TIP3    H242582   5.868   3.935  13.449  0.8934  0.6227  1.1712
 7031TIP3   OH242583   0.822   3.048   4.700 -1.0227 -0.4605  0.7401
 7031TIP3    H142584   0.836   3.024   4.609 -2.3441 -0.3741  0.4963
 7031TIP3    H242585   0.764   2.979   4.734  0.1459 -0.9835  1.7753
 7032TIP3   OH242586   6.453   5.544  14.373 -0.2863 -0.1350 -0.3611
 7032TIP3    H142587   6.410   5.582  14.450  1.8952  0.2068  0.7794
 7032TIP3    H242588   6.468   5.453  14.397 -1.2117 -0.5131 -1.1547
 7033TIP3   OH242589   5.406   4.760  14.002  0.0256  0.2663 -0.4623
 7033TIP3    H142590   5.413   4.667  13.981  1.1001 -0.0231  0.9937
 7033TIP3    H242591   5.452   4.805  13.931 -0.6569 -0.2769 -1.2643
 7034TIP3   OH242592   4.283   1.889  14.967 -0.3185 -0.1443 -0.2806
 7034TIP3    H142593   4.188   1.902  14.966 -0.4034 -0.4826  1.3196
 7034TIP3    H242594   4.295   1.807  15.014  0.8139  0.2768  0.1869
 7035TIP3   OH242595   3.702   3.078   1.805 -0.0483  0.1365 -0.7388
 7035TIP3    H142596   3.672   2.989   1.824 -1.4923  0.8854  0.7412
 7035TIP3    H242597   3.737   3.110   1.888 -0.0388  1.1384 -1.1109
 7036TIP3   OH242598   1.172   5.092   4.455  0.4867  1.0097  0.4995
 7036TIP3    H142599   1.132   5.042   4.526  0.8594 -1.1167 -0.7013
 7036TIP3    H242600   1.241   5.034   4.421  0.6516  2.1766 -1.2559
 7037TIP3   OH242601   5.869   6.028   5.590 -0.1039  0.0322 -0.4963
 7037TIP3    H142602   5.876   5.953   5.530  1.3334 -1.2462  1.1600
 7037TIP3    H242603   5.841   6.100   5.534 -1.8527 -1.7668 -2.1377
 7038TIP3   OH242604   4.012   4.946   3.091  0.2925  0.7626 -0.3818
 7038TIP3    H142605   3.982   4.959   3.181  0.2197  1.7622 -0.5403
 7038TIP3    H242606   4.099   4.986   3.089  0.0025  1.3721 -0.9408
 7039TIP3   OH242607   0.585   4.575   1.669 -0.2627  0.1797 -0.2241
 7039TIP3    H142608   0.520   4.615   1.612 -0.9885  2.5901  2.0946
 7039TIP3    H242609   0.658   4.638   1.669 -0.8935  1.0607  2.5013
 7040TIP3   OH242610   1.110   4.813  12.431 -0.3204  0.3501 -0.4139
 7040TIP3    H142611   1.197   4.831  12.394 -0.3739  0.5464 -0.4428
 7040TIP3    H242612   1.055   4.792  12.356  0.1232 -1.5398 -0.2606
 7041TIP3   OH242613   1.203   2.500  13.504 -0.1247  0.4736  0.1607
 7041TIP3    H142614   1.221   2.416  13.461  1.2347 -0.2989  2.0919
 7041TIP3    H242615   1.283   2.519  13.553 -0.3549  2.9985 -0.3144
 7042TIP3   OH242616   0.828   4.109   5.649  0.7303 -0.3101  0.0712
 7042TIP3    H142617   0.780   4.063   5.718 -2.3840 -0.5213 -2.0156
 7042TIP3    H242618   0.812   4.201   5.666  1.9319 -0.2307  0.8803
 7043TIP3   OH242619   5.558   2.399  11.788 -0.7425 -0.2738 -0.6490
 7043TIP3    H142620   5.480   2.439  11.825  0.1882  1.4250 -0.4011
 7043TIP3    H242621   5.583   2.457  11.717  1.4382  0.4353  0.5906
 7044TIP3   OH242622   4.600   2.021  16.191 -0.3152  0.3595  0.6102
 7044TIP3    H142623   4.664   1.958  16.158 -1.4230 -0.5212  0.0694
 7044TIP3    H242624   4.627   2.104  16.153 -0.2167 -0.2272 -0.6718
 7045TIP3   OH242625   1.290   2.787  17.307  0.1725  0.2915  0.0584
 7045TIP3    H142626   1.315   2.836  17.228  1.3780 -0.6543 -0.1746
 7045TIP3    H242627   1.287   2.696  17.279 -0.7100  0.0806  0.8032
 7046TIP3   OH242628   3.501   3.962   2.838  0.0634  0.5580  0.4727
 7046TIP3    H142629   3.557   4.027   2.794 -0.4560  1.3425  0.9479
 7046TIP3    H242630   3.432   4.014   2.879 -2.3318 -0.5222 -1.9363
 7047TIP3   OH242631   4.060   1.544   6.069 -0.6398  0.4790  0.5591
 7047TIP3    H142632   3.978   1.590   6.050  0.4407  2.0030 -0.6647
 7047TIP3    H242633   4.036   1.451   6.066 -2.2161  0.8661 -0.2888
 7048TIP3   OH242634   4.569   0.133   2.676 -0.1538  0.2499  0.0370
 7048TIP3    H142635   4.547   0.074   2.748  0.8831 -1.4226 -0.9708
 7048TIP3    H242636   4.535   0.218   2.705 -0.5571 -0.5369  2.0941
 7049TIP3   OH242637   5.814   0.406  15.327 -0.0063  0.0404  0.0654
 7049TIP3    H142638   5.755   0.335  15.301 -0.1096  0.8287 -2.0331
 7049TIP3    H242639   5.795   0.421  15.420  0.3768 -2.9932  0.7477
 7050TIP3   OH242640   1.174   2.274  15.505 -0.0343  0.6305 -0.9275
 7050TIP3    H142641   1.118   2.349  15.524 -0.5191 -0.2791  1.6080
 7050TIP3    H242642   1.118   2.213  15.457 -0.8581  0.2840  0.4293
 7051TIP3   OH242643   6.192   1.021   3.694 -0.0490 -0.2891  0.4854
 7051TIP3    H142644   6.102   1.042   3.668 -1.2553 -2.7312  2.1928
 7051TIP3    H242645   6.197   1.046   3.786  1.5167  1.0209  0.0860
 7052TIP3   OH242646   5.128   2.392   3.551 -0.2582 -0.0693 -0.0527
 7052TIP3    H142647   5.051   2.391   3.493  0.6076 -1.0279 -1.2348
 7052TIP3    H242648   5.111   2.323   3.615 -0.7849  0.3451  0.2655
 7053TIP3   OH242649   0.303   5.085  16.033  0.3023  0.0880  0.2181
 7053TIP3    H142650   0.268   4.996  16.036  0.1688  0.1519  1.0107
 7053TIP3    H242651   0.368   5.087  16.104  0.1394  0.6803  0.3571
 7054TIP3   OH242652   0.744   4.277   6.089  0.3873 -0.7256  0.7366
 7054TIP3    H142653   0.737   4.285   6.184 -2.1730  0.2923  0.5373
 7054TIP3    H242654   0.792   4.354   6.061 -1.1558  0.4005  1.0459
 7055TIP3   OH242655   5.294   3.563  13.498 -0.1482 -0.0625  0.2716
 7055TIP3    H142656   5.240   3.516  13.561 -1.6161  0.2557 -0.6849
 7055TIP3    H242657   5.318   3.497  13.433 -0.2344  0.0054  0.1695
 7056TIP3   OH242658   5.378   6.173   4.941  0.3066  0.3399 -0.2985
 7056TIP3    H142659   5.299   6.181   4.994  0.3048  0.8768 -0.3734
 7056TIP3    H242660   5.383   6.080   4.919 -1.5362  0.5988 -2.1351
 7057TIP3   OH242661   5.938   1.751   2.609 -0.1499 -0.4942 -0.3451
 7057TIP3    H142662   5.930   1.834   2.563  0.3024 -0.2176  0.0635
 7057TIP3    H242663   5.980   1.692   2.546  1.7562  0.2619  0.1246
 7058TIP3   OH242664   0.285   5.350  11.922  0.4567  0.4071  0.2198
 7058TIP3    H142665   0.311   5.261  11.944  1.0349  0.6350  0.4859
 7058TIP3    H242666   0.355   5.383  11.866  1.7609  1.6439  2.3966
 7059TIP3   OH242667   1.061   4.684  15.541 -0.2406  0.2350  0.2682
 7059TIP3    H142668   1.152   4.655  15.550 -0.3886 -0.4171 -0.2509
 7059TIP3    H242669   1.026   4.630  15.471 -1.4401 -0.4760  1.3876
 7060TIP3   OH242670   2.740   3.583  12.278  0.0391 -0.1926  0.1560
 7060TIP3    H142671   2.809   3.552  12.336 -1.0705 -1.4541  0.8710
 7060TIP3    H242672   2.785   3.639  12.215  1.5299 -0.1036  1.2345
 7061TIP3   OH242673   5.861   3.277   1.184  0.0926  0.2973  0.0438
 7061TIP3    H142674   5.939   3.237   1.145  0.6052  1.3475 -0.0445
 7061TIP3    H242675   5.894   3.353   1.232 -0.9440  1.1991 -0.6183
 7062TIP3   OH242676   2.229   1.460   1.331 -0.0251  0.1378  0.3881
 7062TIP3    H142677   2.250   1.435   1.421  0.6987  1.0768  0.4996
 7062TIP3    H242678   2.268   1.547   1.321 -2.5057  1.2958  0.0749
 7063TIP3   OH242679   3.312   0.701   2.473 -0.3152  0.0735 -0.0713
 7063TIP3    H142680   3.269   0.637   2.416 -0.2165  0.3414 -0.4569
 7063TIP3    H242681   3.404   0.675   2.473 -0.4094 -0.2673  0.4358
 7064TIP3   OH242682   1.817   4.233  13.372 -0.2907  0.3812  0.5892
 7064TIP3    H142683   1.776   4.164  13.425  0.6234 -0.1591  0.6121
 7064TIP3    H242684   1.797   4.314  13.419 -2.5111  0.3095 -0.1374
 7065TIP3   OH242685   6.476   2.770   2.770  0.1262 -0.3147 -0.3710
 7065TIP3    H142686   6.487   2.721   2.689  2.1098  0.0710 -0.3706
 7065TIP3    H242687   6.523   2.852   2.756  0.4817 -0.2309  1.1641
 7066TIP3   OH242688   2.162   0.406   3.705 -0.7418 -0.1588 -0.0763
 7066TIP3    H142689   2.184   0.486   3.751 -3.2757 -0.2202  1.4640
 7066TIP3    H242690   2.223   0.402   3.631 -0.5169  3.1253 -0.1811
 7067TIP3   OH242691   5.857   1.646  11.246  0.3687  0.4104  0.5191
 7067TIP3    H142692   5.824   1.678  11.162  0.5746  1.5333  0.8528
 7067TIP3    H242693   5.783   1.655  11.306  0.3591  0.0328  0.5646
 7068TIP3   OH242694   1.853   4.006   5.875 -0.7632 -0.1910  0.0528
 7068TIP3    H142695   1.760   4.027   5.877 -1.7398 -3.6770 -1.7554
 7068TIP3    H242696   1.882   4.034   5.788 -0.7339 -1.2359 -0.2818
 7069TIP3   OH242697   4.632   2.189   5.150  0.3841 -0.1332  0.7770
 7069TIP3    H142698   4.637   2.246   5.074  1.2780  1.0719  1.7051
 7069TIP3    H242699   4.566   2.229   5.206 -0.1343 -0.9080  0.7419
 7070TIP3   OH242700   0.949   2.948   3.018 -0.2712  0.7068  0.5178
 7070TIP3    H142701   0.961   2.930   2.925 -1.7443  0.5878  0.3331
 7070TIP3    H242702   0.970   3.041   3.028 -2.0963  1.2457 -0.3273
 7071TIP3   OH242703   1.345   3.529   2.345  0.4020  0.4871 -0.2857
 7071TIP3    H142704   1.369   3.473   2.271  1.4525 -1.2100  1.2432
 7071TIP3    H242705   1.428   3.562   2.379  0.1820 -0.6652  1.5145
 7072TIP3   OH242706   6.150   4.435  14.394 -0.1708 -0.3195  0.2395
 7072TIP3    H142707   6.199   4.509  14.358  0.3722 -0.0972  1.3939
 7072TIP3    H242708   6.215   4.386  14.444 -0.7152 -1.1196  0.1724
 7073TIP3   OH242709   3.781   4.979  12.894  0.0025 -0.1929  0.1091
 7073TIP3    H142710   3.795   5.047  12.828 -0.4677 -0.5671 -0.3944
 7073TIP3    H242711   3.692   4.947  12.876 -0.8140  0.8390  1.9877
 7074TIP3   OH242712   5.660   2.977  12.243 -0.1155 -0.3475 -0.3059
 7074TIP3    H142713   5.732   3.025  12.284 -0.2933 -0.7117  0.4531
 7074TIP3    H242714   5.702   2.903  12.199  0.0637 -0.0263 -0.6833
 7075TIP3   OH242715   2.855   6.509   3.860  0.5333  0.0733 -0.2956
 7075TIP3    H142716   2.760   6.501   3.848  0.6978 -2.8566 -0.4827
 7075TIP3    H242717   2.869   6.494   3.953  0.7490  2.1770  0.0512
 7076TIP3   OH242718   5.119   5.791  16.337  0.0573  0.0023 -0.1104
 7076TIP3    H142719   5.047   5.847  16.308  0.7987  0.4283 -1.1753
 7076TIP3    H242720   5.161   5.761  16.257  0.3916 -1.1539  0.4706
 7077TIP3   OH242721   4.192   5.115   5.368 -0.0418 -0.5928  0.1502
 7077TIP3    H142722   4.287   5.103   5.370  0.7338  3.7909  0.1226
 7077TIP3    H242723   4.177   5.198   5.415 -3.5623  0.1158 -1.8496
 7078TIP3   OH242724   6.702   5.494   3.810  0.1409 -0.1736 -0.1231
 7078TIP3    H142725   6.736   5.413   3.772 -0.1298 -0.4679  0.2548
 7078TIP3    H242726   6.751   5.564   3.766  1.4587 -0.5899  0.6191
 7079TIP3   OH242727   6.337   0.810   4.014 -0.3235  0.0074  0.3555
 7079TIP3    H142728   6.339   0.789   3.920 -0.4143  0.7192  0.1918
 7079TIP3    H242729   6.282   0.888   4.020  0.2588  0.3787  0.9185
 7080TIP3   OH242730   0.796   3.985  14.795 -0.3106 -0.3543  0.8291
 7080TIP3    H142731   0.806   4.025  14.709 -1.4693 -0.3278  0.6846
 7080TIP3    H242732   0.885   3.963  14.822  0.2292  1.1227  0.3478
 7081TIP3   OH242733   3.639   5.776  12.375 -0.2800 -0.5169  0.1995
 7081TIP3    H142734   3.566   5.805  12.430  1.8580  2.3437  1.8460
 7081TIP3    H242735   3.702   5.739  12.437 -0.1108 -2.6020 -1.1343
 7082TIP3   OH242736   1.868   5.168   5.023  0.2913  0.0174  0.2139
 7082TIP3    H142737   1.789   5.209   5.057 -1.0834 -1.0720 -1.4554
 7082TIP3    H242738   1.863   5.077   5.054  0.8923 -0.0595  0.1009
 7083TIP3   OH242739   2.383   4.088   2.161 -0.9687 -0.1060  0.0019
 7083TIP3    H142740   2.444   4.023   2.125 -1.3813 -0.3785 -0.2083
 7083TIP3    H242741   2.438   4.164   2.178 -0.3705 -0.6806  0.7570
 7084TIP3   OH242742   0.999   0.513  13.670  0.3416 -0.1670  0.5323
 7084TIP3    H142743   1.036   0.568  13.601 -1.2880 -1.7088 -1.7119
 7084TIP3    H242744   1.053   0.434  13.669  0.7799  0.0935  1.6118
 7085TIP3   OH242745   1.092   1.557   3.129  0.3961 -0.1157 -0.7153
 7085TIP3    H142746   0.998   1.545   3.122  0.2343  0.7435 -0.1738
 7085TIP3    H242747   1.109   1.642   3.089  0.4117  1.4875  2.4238
 7086TIP3   OH242748   3.331   4.287  15.227  0.0616  0.0597 -0.0091
 7086TIP3    H142749   3.392   4.250  15.292  1.3085 -2.1728 -2.2789
 7086TIP3    H242750   3.378   4.362  15.190 -0.1813  0.6331  0.8044
 7087TIP3   OH242751   4.651   5.271   5.871 -0.2969 -0.1294  0.0157
 7087TIP3    H142752   4.637   5.235   5.783  0.0327  0.6593 -0.3607
 7087TIP3    H242753   4.673   5.194   5.924 -0.5917 -0.6277 -0.5623
 7088TIP3   OH242754   1.578   3.395  17.072  0.9956  0.6032  0.0055
 7088TIP3    H142755   1.652   3.403  17.132  1.4070  1.1140 -0.5549
 7088TIP3    H242756   1.602   3.323  17.014 -0.4945 -1.5994  1.9335
 7089TIP3   OH242757   6.239   2.426  12.619  0.7183 -0.7506  0.0488
 7089TIP3    H142758   6.272   2.487  12.684  0.4367 -0.8209  0.2624
 7089TIP3    H242759   6.144   2.439  12.620  0.8630  3.5399 -4.5208
 7090TIP3   OH242760   4.535   5.396  15.801 -0.2137 -0.0281  0.7389
 7090TIP3    H142761   4.573   5.406  15.888  1.0952  0.3785  0.1346
 7090TIP3    H242762   4.455   5.449  15.803  0.3850  0.8550  1.3443
 7091TIP3   OH242763   6.360   6.221  16.581  0.2684 -0.4611 -0.3176
 7091TIP3    H142764   6.268   6.200  16.573  0.0612  0.4591 -0.5310
 7091TIP3    H242765   6.401   6.180  16.505  0.1133 -1.2474  0.0166
 7092TIP3   OH242766   6.343   2.594  11.793 -0.2511 -0.3828 -0.2262
 7092TIP3    H142767   6.249   2.584  11.804 -0.4317 -0.2994 -1.5495
 7092TIP3    H242768   6.370   2.517  11.743  0.3778 -0.3928  0.1165
 7093TIP3   OH242769   3.551   4.278   6.533 -0.9145  0.1142  0.2203
 7093TIP3    H142770   3.569   4.242   6.446 -0.3720  0.1258  0.3240
 7093TIP3    H242771   3.515   4.365   6.516 -3.5924 -0.9540 -0.0830
 7094TIP3   OH242772   2.780   4.202   3.532 -0.1764 -0.0366 -0.1939
 7094TIP3    H142773   2.845   4.232   3.596 -1.3410  1.5213  0.2964
 7094TIP3    H242774   2.703   4.255   3.549 -0.9855 -0.5667 -1.9921
 7095TIP3   OH242775   5.974   1.705   0.932  0.0933 -0.1781 -0.3389
 7095TIP3    H142776   6.023   1.656   0.998  0.8122  2.3094  1.1250
 7095TIP3    H242777   5.890   1.723   0.974 -0.9736 -1.7941 -1.6547
 7096TIP3   OH242778   0.817   4.757   5.159 -0.3394  0.7300  0.2282
 7096TIP3    H142779   0.861   4.704   5.092 -2.8062 -0.9905 -0.1740
 7096TIP3    H242780   0.812   4.699   5.235  0.5918  1.9337  1.2441
 7097TIP3   OH242781   0.827   1.173  15.371  0.3980  0.2534 -1.0857
 7097TIP3    H142782   0.825   1.080  15.347 -0.4755  0.5056 -2.0756
 7097TIP3    H242783   0.818   1.173  15.466  1.4084 -0.6974 -0.9538
 7098TIP3   OH242784   1.615   4.847   0.558  0.0701 -0.4174 -0.1061
 7098TIP3    H142785   1.641   4.761   0.524  0.4895 -0.1134 -0.5749
 7098TIP3    H242786   1.591   4.897   0.480 -0.6250 -0.2543  0.2056
 7099TIP3   OH242787   3.367   0.301  11.202  0.2614  0.3636  0.1268
 7099TIP3    H142788   3.396   0.211  11.192  0.8744  0.3525  1.7384
 7099TIP3    H242789   3.271   0.296  11.196 -0.0209 -0.9621  3.4548
 7100TIP3   OH242790   4.672   0.056   6.788  0.3922  0.2786  0.1078
 7100TIP3    H142791   4.726   0.064   6.710  0.9961  2.6691  0.6918
 7100TIP3    H242792   4.621   0.138   6.790 -2.1975 -1.2245  0.3807
 7101TIP3   OH242793   4.875   4.089  14.938  0.7364 -0.3091  0.2380
 7101TIP3    H142794   4.960   4.125  14.912 -0.5018  0.9087 -2.4592
 7101TIP3    H242795   4.851   4.030  14.867 -1.2383  0.3928  0.2600
 7102TIP3   OH242796   3.525   3.765   3.747  0.2575  0.1118 -0.4671
 7102TIP3    H142797   3.495   3.696   3.688  0.4316 -1.0895  0.8022
 7102TIP3    H242798   3.615   3.741   3.769  0.2404  0.6103  0.1769
 7103TIP3   OH242799   2.293   5.378  16.300  0.2239  0.0757  0.2305
 7103TIP3    H142800   2.300   5.296  16.252  1.5723 -0.3468  1.0752
 7103TIP3    H242801   2.218   5.366  16.357 -0.4071 -0.0344 -0.6057
 7104TIP3   OH242802   6.292   4.121   5.164  0.2843  0.1515  0.4842
 7104TIP3    H142803   6.223   4.066   5.201  1.7228 -1.2915  1.1345
 7104TIP3    H242804   6.268   4.129   5.071 -1.2707  0.5557  0.8803
 7105TIP3   OH242805   4.098   2.595   4.699  0.3514  0.3183 -0.0800
 7105TIP3    H142806   4.029   2.567   4.639 -2.0490 -0.8138  2.9274
 7105TIP3    H242807   4.152   2.518   4.711  1.1839  0.7121 -1.1334
 7106TIP3   OH242808   4.337   2.859  13.708 -0.3024  0.2947  0.0403
 7106TIP3    H142809   4.388   2.832  13.785  2.8060  1.3020 -1.5352
 7106TIP3    H242810   4.359   2.951  13.696 -2.1485  0.6376 -1.0806
 7107TIP3   OH242811   2.628   0.274   5.648 -0.0286 -0.5510 -0.1269
 7107TIP3    H142812   2.669   0.195   5.684 -0.1579  0.0946  1.5175
 7107TIP3    H242813   2.653   0.273   5.556  1.1867 -1.7469  0.1703
 7108TIP3   OH242814   3.370   6.561   3.380 -0.3765 -0.0431  0.2676
 7108TIP3    H142815   3.318   6.637   3.354  0.2126  0.3118  0.0921
 7108TIP3    H242816   3.349   6.495   3.315 -1.2258 -0.1822  0.6733
 7109TIP3   OH242817   1.715   0.803   2.820 -0.3360 -0.0525  0.2720
 7109TIP3    H142818   1.635   0.753   2.838 -0.4012 -0.2407 -0.5181
 7109TIP3    H242819   1.783   0.756   2.868 -0.3370 -1.1184 -0.7421
 7110TIP3   OH242820   5.385   1.748   4.970 -0.1435  0.1092  0.0260
 7110TIP3    H142821   5.391   1.653   4.980  0.8068  0.0089 -1.3252
 7110TIP3    H242822   5.422   1.783   5.051  0.5600 -0.6676  0.0476
 7111TIP3   OH242823   1.986   6.339  12.111  0.1821  0.2644  0.3580
 7111TIP3    H142824   2.020   6.265  12.061 -0.7399 -0.0067  0.1124
 7111TIP3    H242825   1.921   6.301  12.169  0.7220  0.6890  1.2608
 7112TIP3   OH242826   5.364   1.950  15.570  0.2295  0.2806 -0.4740
 7112TIP3    H142827   5.317   1.904  15.501  0.0351 -0.3248  0.0498
 7112TIP3    H242828   5.380   2.038  15.535  0.3830 -0.1075 -1.3855
 7113TIP3   OH242829   0.374   4.797   3.014  0.2763  0.6240  0.3677
 7113TIP3    H142830   0.408   4.769   3.099  3.5725 -0.4227 -1.1122
 7113TIP3    H242831   0.398   4.889   3.009  0.7935  0.4887  0.2811
 7114TIP3   OH242832   6.216   1.684   0.277  0.4956  0.7145 -0.5940
 7114TIP3    H142833   6.300   1.663   0.235  0.8131  1.1985 -0.2177
 7114TIP3    H242834   6.212   1.627   0.353  0.7495  1.0805 -0.3008
 7115TIP3   OH242835   5.260   2.762  13.125  0.4915 -0.1151 -0.2202
 7115TIP3    H142836   5.289   2.684  13.078 -0.1063  0.3355 -1.3610
 7115TIP3    H242837   5.165   2.752  13.132  0.2669  1.0216 -1.3613
 7116TIP3   OH242838   5.896   2.982   3.382 -0.0982 -0.1558 -0.2789
 7116TIP3    H142839   5.820   2.928   3.404 -0.5026  0.3505 -0.3887
 7116TIP3    H242840   5.905   2.973   3.287 -0.0289 -0.2058 -0.2674
 7117TIP3   OH242841   0.718   2.931  14.645 -0.2729 -0.4378  0.0304
 7117TIP3    H142842   0.750   2.842  14.660 -1.9207 -1.1264 -0.3574
 7117TIP3    H242843   0.765   2.960  14.567 -2.4770 -2.4970 -2.2663
 7118TIP3   OH242844   2.420   5.196   5.685 -0.1050 -0.3274  0.0620
 7118TIP3    H142845   2.382   5.256   5.749  0.2958 -0.7528  0.7073
 7118TIP3    H242846   2.481   5.250   5.635 -0.1770 -0.0605  0.2607
 7119TIP3   OH242847   1.496   4.804   1.634  0.6886  0.3723 -0.0637
 7119TIP3    H142848   1.568   4.746   1.658  1.8510  1.9681  0.4764
 7119TIP3    H242849   1.417   4.756   1.660  1.5326 -1.3795 -0.5957
 7120TIP3   OH242850   6.696   5.303   0.024 -0.0667  0.5598 -0.4158
 7120TIP3    H142851   6.671   5.395   0.037  2.0865  1.0646  0.8011
 7120TIP3    H242852   6.643   5.255   0.088 -0.3627  1.1266 -0.2221
 7121TIP3   OH242853   3.083   0.416  16.844 -0.3026  0.0309 -0.3705
 7121TIP3    H142854   2.994   0.435  16.873 -1.2075 -1.0473 -2.2463
 7121TIP3    H242855   3.106   0.488  16.786  0.7585  1.1937  1.4163
 7122TIP3   OH242856   1.625   4.257  15.508  0.6761 -0.1209  0.3019
 7122TIP3    H142857   1.572   4.267  15.429  1.6324 -0.5350 -0.4205
 7122TIP3    H242858   1.595   4.176  15.548  0.3759 -0.0503  0.2198
 7123TIP3   OH242859   3.598   5.770   1.551  0.4516 -0.2389  0.1291
 7123TIP3    H142860   3.534   5.729   1.609 -1.2598 -0.3626 -1.7300
 7123TIP3    H242861   3.666   5.803   1.609  0.2871 -2.8307  1.9687
 7124TIP3   OH242862   2.238   4.594   5.382 -0.1689  0.2643 -0.2568
 7124TIP3    H142863   2.194   4.589   5.298 -2.6010 -0.3485  0.9748
 7124TIP3    H242864   2.281   4.508   5.391 -1.4443 -0.3850 -0.1127
 7125TIP3   OH242865   0.993   2.220  13.098  0.0801  0.1061 -0.4720
 7125TIP3    H142866   1.055   2.292  13.111 -0.1735  0.1681  0.5044
 7125TIP3    H242867   0.914   2.249  13.144  0.1665 -1.0255  0.4168
 7126TIP3   OH242868   6.731   6.210  14.356  0.4660  0.5188 -0.2096
 7126TIP3    H142869   6.687   6.224  14.440  0.9561  1.6802 -0.1202
 7126TIP3    H242870   6.720   6.117  14.338  0.7698  0.1384  1.3968
 7127TIP3   OH242871   4.747   1.194  15.059  0.7152  0.4327  0.2331
 7127TIP3    H142872   4.721   1.141  14.984  1.5015  1.9892 -1.1947
 7127TIP3    H242873   4.838   1.169  15.076  0.4446 -0.1343  0.8764
 7128TIP3   OH242874   5.875   2.622   4.137 -0.1087  0.1489  0.1585
 7128TIP3    H142875   5.907   2.655   4.221 -1.0100 -0.5162  0.7876
 7128TIP3    H242876   5.790   2.582   4.158  0.2266 -1.1563 -0.8336
 7129TIP3   OH242877   4.398   1.568   4.037  0.7762  0.3239 -0.5708
 7129TIP3    H142878   4.383   1.474   4.027  2.4051 -0.3827  2.2927
 7129TIP3    H242879   4.314   1.604   4.063 -0.0769 -0.1310 -2.5514
 7130TIP3   OH242880   5.286   5.691   4.568  0.7751  0.0088  0.0862
 7130TIP3    H142881   5.241   5.688   4.483  0.0811 -0.9505  0.4636
 7130TIP3    H242882   5.290   5.784   4.590 -0.0085  0.1918 -0.4973
 7131TIP3   OH242883   2.712   4.392   1.084  0.2005  0.0148  0.3686
 7131TIP3    H142884   2.658   4.432   1.152 -1.3201  1.4625 -1.5759
 7131TIP3    H242885   2.774   4.461   1.059  0.5253 -0.3780  0.0723
 7132TIP3   OH242886   1.213   3.443   4.035 -0.2206 -0.3393  0.3011
 7132TIP3    H142887   1.201   3.348   4.032  1.1276 -0.5273  0.2702
 7132TIP3    H242888   1.137   3.476   4.084 -0.5871 -1.4454  0.4929
 7133TIP3   OH242889   0.143   0.217   5.751 -0.0483 -0.0715 -0.4887
 7133TIP3    H142890   0.057   0.258   5.756  0.4967  1.1222 -0.5081
 7133TIP3    H242891   0.151   0.167   5.832 -0.4469  0.4441 -0.1250
 7134TIP3   OH242892   5.417   6.041  16.169  0.3470  0.2508  0.5758
 7134TIP3    H142893   5.345   6.100  16.192  0.9329  1.1867  0.0850
 7134TIP3    H242894   5.457   6.081  16.092  0.0460 -1.4270 -0.4915
 7135TIP3   OH242895   4.106   4.811  13.835 -0.3991  0.2509 -0.5614
 7135TIP3    H142896   4.050   4.799  13.912  0.0352  1.6762  0.0186
 7135TIP3    H242897   4.052   4.784  13.761 -1.2878  0.0868  0.1288
 7136TIP3   OH242898   0.196   1.112  16.846 -0.2656 -0.0058  0.0228
 7136TIP3    H142899   0.134   1.180  16.872  1.6221  1.5510  0.6982
 7136TIP3    H242900   0.210   1.126  16.753  1.0135  1.3767  0.3866
 7137TIP3   OH242901   5.111   2.124  16.930  1.0685  0.2256  0.5751
 7137TIP3    H142902   5.123   2.186  16.858  2.3694 -1.9676 -1.2322
 7137TIP3    H242903   5.016   2.121  16.943  0.7903  0.6365 -1.1365
 7138TIP3   OH242904   5.254   4.053   2.908  0.5860 -0.0881 -0.3156
 7138TIP3    H142905   5.323   4.114   2.934 -0.1258  1.2643 -1.5017
 7138TIP3    H242906   5.291   4.004   2.835  0.7677 -0.3333 -0.0628
 7139TIP3   OH242907   5.592   6.487  17.383  0.1571 -0.4728  0.4772
 7139TIP3    H142908   5.603   6.499  17.477 -0.5523  0.5882  0.4454
 7139TIP3    H242909   5.634   6.563  17.344 -2.0370  0.6224  0.1006
 7140TIP3   OH242910   5.255   1.589  15.642 -0.2134 -0.1860 -0.4412
 7140TIP3    H142911   5.256   1.654  15.712  1.5295  0.4600 -1.0265
 7140TIP3    H242912   5.198   1.625  15.575  0.4489  0.5875 -0.5999
 7141TIP3   OH242913   0.454   6.049  13.954 -0.9570  0.1208  0.3392
 7141TIP3    H142914   0.456   5.960  13.989  2.6858 -0.1092 -0.0688
 7141TIP3    H242915   0.480   6.041  13.863  0.0942  1.6088  0.4564
 7142TIP3   OH242916   3.777   1.365  15.933 -1.4287  0.0532 -0.1340
 7142TIP3    H142917   3.845   1.431  15.946 -1.2213 -0.4759  1.9360
 7142TIP3    H242918   3.709   1.409  15.882  0.4131  0.6018 -2.2853
 7143TIP3   OH242919   4.779   5.970   6.123  0.2033 -0.0886  0.0218
 7143TIP3    H142920   4.684   5.959   6.112 -0.2788  3.3674 -0.5125
 7143TIP3    H242921   4.813   5.965   6.034  0.3669 -0.2980  0.0974
 7144TIP3   OH242922   5.695   1.480  11.471 -0.7199  0.1334  0.0921
 7144TIP3    H142923   5.637   1.544  11.514 -0.7428 -0.9628  1.7790
 7144TIP3    H242924   5.639   1.433  11.411 -0.9080  1.0356 -0.4672
 7145TIP3   OH242925   5.158   2.300  16.743 -0.0619 -0.4441 -0.0803
 7145TIP3    H142926   5.144   2.391  16.771 -1.5519 -1.2654  2.0556
 7145TIP3    H242927   5.232   2.305  16.682 -0.4426  2.2616 -0.4343
 7146TIP3   OH242928   2.383   6.633   0.084  0.0019  0.2846  0.2490
 7146TIP3    H142929   2.358   6.558   0.138  0.5217  1.1352  1.7180
 7146TIP3    H242930   2.478   6.627   0.077 -0.1160 -0.1758 -1.1449
 7147TIP3   OH242931   0.694   2.956   5.718  0.2201  0.0878 -0.3785
 7147TIP3    H142932   0.621   2.907   5.755 -0.2812 -0.4473 -1.9599
 7147TIP3    H242933   0.740   2.893   5.662  1.9530  0.3980  0.6100
 7148TIP3   OH242934   5.165   4.067  11.544 -0.1420 -0.2843 -0.3500
 7148TIP3    H142935   5.219   3.990  11.529 -0.2874 -0.7651  1.3914
 7148TIP3    H242936   5.226   4.131  11.582 -0.2213  0.1555 -0.9481
 7149TIP3   OH242937   0.139   6.250   5.581 -0.0296  0.4823 -0.4129
 7149TIP3    H142938   0.207   6.225   5.644  0.3570  2.7968  0.1837
 7149TIP3    H242939   0.158   6.197   5.503  1.4758 -0.0776  0.2911
 7150TIP3   OH242940   1.376   2.041   1.153  0.2593 -0.2479  0.4330
 7150TIP3    H142941   1.442   2.110   1.146 -1.5928  1.6477  0.6256
 7150TIP3    H242942   1.362   2.031   1.247 -1.3076  1.0572  0.3928
 7151TIP3   OH242943   4.436   5.686   5.240 -0.2540  0.3274  0.0811
 7151TIP3    H142944   4.377   5.685   5.165  0.2202 -0.8960 -0.2968
 7151TIP3    H242945   4.505   5.624   5.218 -0.3336 -0.4077  1.7199
 7152TIP3   OH242946   3.088   1.133   4.580 -0.1230 -0.0695  0.2098
 7152TIP3    H142947   3.060   1.042   4.587 -1.0106  0.0372 -1.4436
 7152TIP3    H242948   3.032   1.170   4.512  2.8207  0.6619 -2.0389
 7153TIP3   OH242949   3.186   2.581   5.658 -0.0144 -0.4202 -0.0132
 7153TIP3    H142950   3.200   2.545   5.571 -0.8936  2.1577 -1.3190
 7153TIP3    H242951   3.274   2.584   5.697  0.7121  0.1677 -1.5878
 7154TIP3   OH242952   6.487   3.196  13.544  0.1972 -0.1054 -0.5749
 7154TIP3    H142953   6.572   3.238  13.559 -0.0589  0.1316  0.2557
 7154TIP3    H242954   6.508   3.104  13.528  0.6731  0.1176 -1.2822
 7155TIP3   OH242955   4.254   5.233  12.932 -0.0369  0.1701  0.0601
 7155TIP3    H142956   4.280   5.317  12.894 -0.3291  1.2747  2.1294
 7155TIP3    H242957   4.321   5.215  12.999 -1.1486 -0.1019  1.1434
 7156TIP3   OH242958   5.566   0.630  15.732 -0.0208 -0.7210 -0.1770
 7156TIP3    H142959   5.580   0.725  15.734  0.9327 -0.8373  2.0530
 7156TIP3    H242960   5.478   0.620  15.696 -0.1435  1.0155 -0.4712
 7157TIP3   OH242961   0.286   6.219   3.775  0.2276  0.1190  0.3946
 7157TIP3    H142962   0.254   6.218   3.865  0.3176 -0.0769  0.4256
 7157TIP3    H242963   0.374   6.181   3.781  1.2862  2.4189  0.6282
 7158TIP3   OH242964   2.886   3.771  16.098 -0.3395  0.0364  0.4271
 7158TIP3    H142965   2.926   3.806  16.019 -1.0448 -0.7887 -0.3202
 7158TIP3    H242966   2.891   3.842  16.162 -2.9715  2.0796 -1.4205
 7159TIP3   OH242967   3.104   1.041  14.538 -0.0246  0.0683  0.0798
 7159TIP3    H142968   3.166   0.977  14.571 -1.2024 -1.7771 -1.0842
 7159TIP3    H242969   3.120   1.043  14.443 -0.6120  0.8312 -0.0182
 7160TIP3   OH242970   3.852   2.281   3.885  0.1028 -0.1613  0.7010
 7160TIP3    H142971   3.766   2.260   3.920 -0.5118  1.1457  0.0613
 7160TIP3    H242972   3.857   2.234   3.802 -0.8260  1.2457 -0.2054
 7161TIP3   OH242973   0.234   0.642   6.731  0.1245 -0.0610 -0.0302
 7161TIP3    H142974   0.236   0.653   6.826  0.4949 -1.0486  0.0885
 7161TIP3    H242975   0.323   0.615   6.708 -0.4681 -1.8928 -0.3614
 7162TIP3   OH242976   2.256   3.272   4.501 -0.4630  0.6347  0.0836
 7162TIP3    H142977   2.199   3.315   4.566 -1.1610 -1.0156  0.6183
 7162TIP3    H242978   2.331   3.241   4.552 -0.2851  0.6443 -0.1751
 7163TIP3   OH242979   4.426   5.145   3.708  0.3425  0.5430  0.0257
 7163TIP3    H142980   4.439   5.089   3.784 -1.6502  0.7462  0.5513
 7163TIP3    H242981   4.473   5.099   3.637 -0.4753 -1.3520  0.6401
 7164TIP3   OH242982   3.459   1.676  12.255  0.0898 -0.0838  0.6997
 7164TIP3    H142983   3.523   1.743  12.234  0.4229 -0.5044  0.3412
 7164TIP3    H242984   3.394   1.682  12.184  0.2456 -0.2932  0.5368
 7165TIP3   OH242985   0.445   2.197   5.237 -0.4402 -0.0494  0.2242
 7165TIP3    H142986   0.355   2.168   5.252 -0.0388 -0.9376  0.9918
 7165TIP3    H242987   0.442   2.292   5.252 -1.1554 -0.1366  0.7146
 7166TIP3   OH242988   3.859   0.173  11.652  0.2779  0.2819  0.2527
 7166TIP3    H142989   3.844   0.082  11.677  0.2827  0.4101  0.7343
 7166TIP3    H242990   3.830   0.224  11.728  0.6838  0.6587  0.1627
 7167TIP3   OH242991   6.346   6.410   3.157  0.0764  0.0263  0.3847
 7167TIP3    H142992   6.340   6.504   3.141 -1.2911 -0.1265 -0.1956
 7167TIP3    H242993   6.427   6.398   3.206 -0.4458  1.6789  1.7326
 7168TIP3   OH242994   2.097   1.112   0.604 -0.0753  0.2133  0.2662
 7168TIP3    H142995   2.037   1.056   0.654 -0.4765  0.3710 -0.0344
 7168TIP3    H242996   2.042   1.183   0.572  0.1740  0.1053 -0.4152
 7169TIP3   OH242997   0.003   4.861  13.440  0.4225 -0.3447 -0.3426
 7169TIP3    H142998   0.014   4.956  13.441  0.6328 -0.3679 -0.4786
 7169TIP3    H242999  -0.078   4.847  13.391  0.3068 -0.2277 -0.1859
 7170TIP3   OH243000   2.322   3.847  16.207  0.5304 -0.2557  0.4347
 7170TIP3    H143001   2.280   3.774  16.161  1.8585 -0.3215 -0.7544
 7170TIP3    H243002   2.365   3.805  16.282 -0.6863 -0.3208  1.1170
 7171TIP3   OH243003   5.752   0.409   0.766  0.5980  0.3256  0.2229
 7171TIP3    H143004   5.681   0.358   0.727  1.2031  0.3762 -0.9830
 7171TIP3    H243005   5.765   0.369   0.852 -0.7414  0.1860  0.3922
 7172TIP3   OH243006   5.686   3.627   3.976  0.1007 -0.1008  0.1697
 7172TIP3    H143007   5.684   3.570   4.053 -0.3197  0.5592  0.6605
 7172TIP3    H243008   5.698   3.567   3.903 -1.8203 -1.0095  0.5258
 7173TIP3   OH243009   0.824   1.582   4.145  0.2181 -0.1257 -0.2764
 7173TIP3    H143010   0.825   1.626   4.060 -1.1257  0.4096 -0.0316
 7173TIP3    H243011   0.884   1.634   4.199 -0.8924  1.0834 -0.1679
 7174TIP3   OH243012   1.634   2.642   0.092  0.2521  0.2332  0.2169
 7174TIP3    H143013   1.698   2.584   0.132 -1.6451 -3.0705 -1.1433
 7174TIP3    H243014   1.579   2.671   0.164 -0.4497 -2.0071  0.6314
 7175TIP3   OH243015   0.900   1.934  11.422  0.2804 -0.0371 -0.4986
 7175TIP3    H143016   0.870   1.851  11.385 -0.6603  0.7893 -1.6619
 7175TIP3    H243017   0.993   1.918  11.443 -0.4656 -2.1246  1.6660
 7176TIP3   OH243018   4.093   6.133   3.115  0.1399  0.5261 -0.0074
 7176TIP3    H143019   4.126   6.216   3.150  1.6558  0.5938 -1.4772
 7176TIP3    H243020   4.021   6.158   3.058  1.2540  0.9802 -1.2651
 7177TIP3   OH243021   2.901   2.192   2.323 -0.0854 -0.0272  0.1082
 7177TIP3    H143022   2.827   2.250   2.307  0.1553 -0.0564 -1.1848
 7177TIP3    H243023   2.932   2.167   2.236  2.8658  1.7651  0.5236
 7178TIP3   OH243024   5.321   4.882  15.566 -0.3584 -0.7060  0.5818
 7178TIP3    H143025   5.339   4.956  15.624  2.9726  0.2145 -1.3639
 7178TIP3    H243026   5.292   4.923  15.484  0.1654 -1.6269 -0.0719
 7179TIP3   OH243027   3.109   0.659   2.791  0.6434 -0.8114  0.7292
 7179TIP3    H143028   3.030   0.702   2.758  0.2421 -0.3291  2.2390
 7179TIP3    H243029   3.170   0.661   2.717 -0.0759  0.5603  0.1299
 7180TIP3   OH243030   5.056   0.176  15.033 -0.1949 -0.3396 -0.0179
 7180TIP3    H143031   5.126   0.240  15.020  0.9996 -1.8529 -1.6996
 7180TIP3    H243032   4.977   0.219  15.001 -0.9230  2.6447  4.8995
 7181TIP3   OH243033   0.162   0.255   1.701 -0.3270  0.4056  0.3442
 7181TIP3    H143034   0.112   0.297   1.631  0.3606  1.2108  0.3189
 7181TIP3    H243035   0.096   0.212   1.756 -0.8386 -0.7231 -1.0985
 7182TIP3   OH243036   4.008   1.229  11.842 -0.3774 -0.0223  0.0974
 7182TIP3    H143037   4.045   1.317  11.854 -0.5168  0.0397  0.0785
 7182TIP3    H243038   4.063   1.172  11.897  0.8771 -0.2281 -1.3182
 7183TIP3   OH243039   1.852   5.969   1.722  0.2005 -0.2868 -0.1708
 7183TIP3    H143040   1.823   5.903   1.785 -1.5302  0.9831  0.4436
 7183TIP3    H243041   1.822   5.937   1.638 -0.5027 -0.3493  0.1009
 7184TIP3   OH243042   3.401   5.637   2.776  0.6135 -0.2491 -0.3299
 7184TIP3    H143043   3.372   5.722   2.743  2.0146  0.2411 -0.3707
 7184TIP3    H243044   3.338   5.574   2.739 -0.6664  0.7907  0.0124
 7185TIP3   OH243045   1.986   5.642  17.107 -0.5415  0.6502 -0.4648
 7185TIP3    H143046   1.893   5.654  17.126 -0.3168  1.3523  0.2718
 7185TIP3    H243047   1.998   5.681  17.020 -0.1919  4.4861  1.1211
 7186TIP3   OH243048   0.072   4.770   6.012 -0.5220  0.2253  0.3508
 7186TIP3    H143049   0.052   4.832   6.082 -0.0832 -0.1742  0.8434
 7186TIP3    H243050   0.104   4.692   6.058  0.9242  0.3809 -0.3295
 7187TIP3   OH243051   4.700   3.686   4.601 -0.0339  0.1711  1.3002
 7187TIP3    H143052   4.656   3.734   4.671 -0.7702  2.6046 -0.6897
 7187TIP3    H243053   4.765   3.748   4.567 -0.1560 -0.6774 -0.5939
 7188TIP3   OH243054   0.706   5.098  12.152 -0.4373  0.7875 -0.1546
 7188TIP3    H143055   0.678   5.032  12.090  0.4132  0.8179 -0.5864
 7188TIP3    H243056   0.625   5.134  12.188 -0.9894 -2.0193  1.7802
 7189TIP3   OH243057   3.907   4.301  14.723 -0.0574 -0.2440  0.2832
 7189TIP3    H143058   3.891   4.346  14.806 -0.2865  0.6783 -0.2352
 7189TIP3    H243059   3.889   4.368  14.656  1.9538 -0.3869 -0.4662
 7190TIP3   OH243060   5.058   4.939  11.703 -0.8837  0.4485  0.1924
 7190TIP3    H143061   5.066   4.843  11.698  0.6643  0.5963 -0.8410
 7190TIP3    H243062   5.127   4.965  11.764  1.3069  1.1367 -2.3784
 7191TIP3   OH243063   6.073   2.225   3.536  0.2057  0.0891  0.1122
 7191TIP3    H143064   6.064   2.260   3.447  0.1996  0.6209  0.3239
 7191TIP3    H243065   6.168   2.223   3.551  0.1665  1.1420  0.5474
 7192TIP3   OH243066   5.790   5.189   1.376  0.0396  0.0007 -0.0672
 7192TIP3    H143067   5.875   5.204   1.418  0.1886  1.3290 -0.7935
 7192TIP3    H243068   5.808   5.119   1.313  0.7113  0.5631 -0.5193
 7193TIP3   OH243069   1.905   5.440  16.365 -0.0233 -0.6017 -0.2366
 7193TIP3    H143070   1.907   5.353  16.405 -1.2575 -1.1139 -1.2195
 7193TIP3    H243071   1.838   5.487  16.414 -0.7985 -0.8903 -0.9954
 7194TIP3   OH243072   1.952   5.213   2.067 -0.2736  0.2397 -0.2327
 7194TIP3    H143073   2.004   5.212   1.986 -2.0419  1.0478 -1.4430
 7194TIP3    H243074   1.863   5.190   2.039 -0.9112  0.4020  1.5251
 7195TIP3   OH243075   0.480   2.960  11.188 -0.0334 -0.3706 -0.0511
 7195TIP3    H143076   0.396   2.993  11.155  0.1048  0.5972  0.5409
 7195TIP3    H243077   0.527   2.933  11.109 -0.2864  0.5483 -0.5381
 7196TIP3   OH243078   1.122   4.620  14.000  0.3393  0.6144  0.9975
 7196TIP3    H143079   1.097   4.698  13.949 -0.4933  0.0130  0.4603
 7196TIP3    H243080   1.071   4.549  13.961  4.1039 -1.1027 -1.3660
 7197TIP3   OH243081   5.751   5.766  14.831  0.0229 -0.2469  0.0868
 7197TIP3    H143082   5.811   5.692  14.833  1.0471  0.5477  2.4644
 7197TIP3    H243083   5.803   5.837  14.792 -0.9436 -0.6841 -2.1567
 7198TIP3   OH243084   1.298   4.650   0.793  0.2024 -0.1591  0.4930
 7198TIP3    H143085   1.267   4.615   0.710  0.7540 -1.2712  0.7264
 7198TIP3    H243086   1.390   4.671   0.777  0.1983  0.0220  0.7055
 7199TIP3   OH243087   1.865   3.146   2.116 -0.8004 -0.0279  0.0954
 7199TIP3    H143088   1.910   3.126   2.033  0.1768  1.9770  0.0836
 7199TIP3    H243089   1.934   3.141   2.182 -1.3666 -0.5819  0.6570
 7200TIP3   OH243090   0.646   6.637   1.042  0.5433 -0.4586 -0.1962
 7200TIP3    H143091   0.660   6.725   1.007 -1.0816 -0.6779 -1.4983
 7200TIP3    H243092   0.697   6.580   0.985 -2.0699 -0.8109 -2.3568
 7201TIP3   OH243093   3.854   0.164  12.192 -0.0184 -0.0447 -0.4067
 7201TIP3    H143094   3.805   0.231  12.146 -2.4996 -0.8608  0.8676
 7201TIP3    H243095   3.916   0.213  12.246 -0.8530  1.1661 -0.5088
 7202TIP3   OH243096   4.810   2.014  12.975 -0.1893 -0.5074  0.2960
 7202TIP3    H143097   4.752   2.077  13.018  0.2555 -0.6938  1.2097
 7202TIP3    H243098   4.771   1.929  12.992  0.1778 -0.6106  0.6583
 7203TIP3   OH243099   2.559   5.363   1.263 -0.1025 -0.1811 -0.1051
 7203TIP3    H143100   2.497   5.331   1.197  0.5156 -0.2854 -0.6383
 7203TIP3    H243101   2.558   5.296   1.331  0.2490 -0.7334 -0.6337
 7204TIP3   OH243102   4.693   2.903  11.023  0.0778 -0.5370  0.1996
 7204TIP3    H143103   4.614   2.877  10.975 -0.8327  1.5579  0.4401
 7204TIP3    H243104   4.729   2.975  10.972  1.5729 -1.1304  0.3824
 7205TIP3   OH243105   4.267   4.374   5.712 -0.2875  0.0343 -0.0498
 7205TIP3    H143106   4.271   4.314   5.787 -1.2799 -0.5545 -0.4446
 7205TIP3    H243107   4.324   4.447   5.737 -0.3679 -0.2816  1.1550
 7206TIP3   OH243108   0.518   6.088   3.866  0.4720 -0.2608 -0.2662
 7206TIP3    H143109   0.579   6.162   3.877  1.1226 -0.8194 -0.0499
 7206TIP3    H243110   0.556   6.036   3.795  0.7945 -1.1421  0.5320
 7207TIP3   OH243111   3.811   1.080  13.599  0.1816 -0.5549  0.0291
 7207TIP3    H143112   3.883   1.097  13.538  1.1751 -0.1771  1.2665
 7207TIP3    H243113   3.753   1.020  13.551  0.5162  0.3432 -1.5588
 7208TIP3   OH243114   6.130   6.296   0.419 -0.5584  0.7086  0.1643
 7208TIP3    H143115   6.189   6.223   0.404  0.0423  1.2317 -0.0519
 7208TIP3    H243116   6.173   6.371   0.378 -2.6257  0.6005 -2.4521
 7209TIP3   OH243117   5.902   3.269   3.159  0.3021  0.3021 -0.1290
 7209TIP3    H143118   5.880   3.263   3.252  0.2416 -0.3211 -0.1780
 7209TIP3    H243119   5.908   3.363   3.141  1.3741  0.4220  0.7555
 7210TIP3   OH243120   5.205   3.547   1.342 -0.1470  0.0271  0.0726
 7210TIP3    H143121   5.148   3.556   1.266  0.4325 -0.9775 -0.4977
 7210TIP3    H243122   5.171   3.469   1.388  0.6111 -0.4419 -0.1497
 7211TIP3   OH243123   0.703   4.308  11.913 -0.0426 -0.2393  0.0776
 7211TIP3    H143124   0.734   4.389  11.955 -2.0600  0.8527 -0.4456
 7211TIP3    H243125   0.680   4.251  11.986 -1.2457  0.7391  0.5023
 7212TIP3   OH243126   3.288   2.802  17.316 -0.2936  0.3051  0.6208
 7212TIP3    H143127   3.212   2.860  17.304 -0.8192 -0.5906 -0.7211
 7212TIP3    H243128   3.331   2.803  17.230  0.9256  0.3861  1.2206
 7213TIP3   OH243129   0.665   3.648  15.556  0.2442 -0.3355  0.3039
 7213TIP3    H143130   0.575   3.641  15.524 -0.8925  0.5537  3.0056
 7213TIP3    H243131   0.681   3.566  15.602  0.8473 -0.4745 -0.1337
 7214TIP3   OH243132   2.968   0.953  12.258 -0.0245  0.0269  0.2665
 7214TIP3    H143133   3.019   0.912  12.328 -0.1196 -0.0758  0.2773
 7214TIP3    H243134   2.928   0.880  12.211 -0.4149  0.1158  0.4549
 7215TIP3   OH243135   3.301   3.769   6.396  0.2649 -0.2469  0.2916
 7215TIP3    H143136   3.347   3.686   6.384 -0.2177 -0.6359  1.0293
 7215TIP3    H243137   3.307   3.786   6.490 -0.7542 -0.1106  0.3438
 7216TIP3   OH243138   3.910   1.950   5.111  0.3427  0.5962  0.2133
 7216TIP3    H143139   3.850   2.009   5.158 -1.4571 -1.5740  0.7838
 7216TIP3    H243140   3.932   1.998   5.032 -1.9505  1.6494  0.1144
 7217TIP3   OH243141   3.714   6.021   3.153 -0.2175  0.9181 -0.4732
 7217TIP3    H143142   3.653   5.956   3.119  0.2791  0.3850 -0.3786
 7217TIP3    H243143   3.725   5.997   3.245  0.3009  0.8694 -0.5447
 7218TIP3   OH243144   3.599   4.470   5.574 -0.2796 -0.0638  0.3498
 7218TIP3    H143145   3.546   4.420   5.636 -1.2910  0.6918  0.1240
 7218TIP3    H243146   3.658   4.405   5.535  0.3308 -0.5547  2.0167
 7219TIP3   OH243147   4.054   6.411  16.569 -0.3384 -0.3872  0.1262
 7219TIP3    H143148   4.147   6.433  16.577 -0.6268  0.7553  0.4329
 7219TIP3    H243149   4.011   6.462  16.637 -1.3194 -0.1808 -0.6303
 7220TIP3   OH243150   5.165   6.159   5.120  0.1824  0.4978  0.2083
 7220TIP3    H143151   5.073   6.167   5.145  0.0854 -0.8758  0.3920
 7220TIP3    H243152   5.214   6.189   5.196 -0.1142 -0.0658  0.6248
 7221TIP3   OH243153   5.521   6.643  11.799  0.5179 -0.3172 -0.5777
 7221TIP3    H143154   5.465   6.720  11.791  0.8947  0.1131  0.6610
 7221TIP3    H243155   5.470   6.582  11.853 -0.0184 -1.2041 -2.0208
 7222TIP3   OH243156   3.501   1.560   2.578  0.1957  0.2317 -0.2778
 7222TIP3    H143157   3.410   1.584   2.591 -0.1443 -0.9419 -0.3960
 7222TIP3    H243158   3.498   1.470   2.545  1.3901  0.1615 -0.2407
 7223TIP3   OH243159   4.599   1.468  11.645  0.1095 -0.2625  0.0438
 7223TIP3    H143160   4.542   1.544  11.660 -0.3257 -0.7490  0.9072
 7223TIP3    H243161   4.597   1.455  11.550 -2.8226 -1.4715  0.1552
 7224TIP3   OH243162   3.454   1.308   3.771  0.2871 -0.0414 -0.0269
 7224TIP3    H143163   3.477   1.325   3.680 -1.0522 -1.6990 -0.7232
 7224TIP3    H243164   3.529   1.341   3.821  2.9224 -2.6020 -1.9496
 7225TIP3   OH243165   5.075   0.583  16.031  0.1471 -0.6226  0.2640
 7225TIP3    H143166   5.008   0.515  16.023  0.4638 -0.8482 -0.6641
 7225TIP3    H243167   5.073   0.627  15.945  1.0624 -0.5202  0.2930
 7226TIP3   OH243168   4.112   0.891  14.328 -0.3649 -0.4301 -0.0409
 7226TIP3    H143169   4.165   0.925  14.400  2.8835 -1.7771 -1.5538
 7226TIP3    H243170   4.096   0.966  14.271  0.9131 -0.1556 -0.0583
 7227TIP3   OH243171   0.032   1.648  17.062 -0.4866  0.7860 -0.1622
 7227TIP3    H143172   0.088   1.571  17.072 -0.3123  0.4993 -2.6888
 7227TIP3    H243173  -0.048   1.626  17.110  0.0763 -0.3977  0.2749
 7228TIP3   OH243174   1.381   4.145   1.775  0.2097 -0.3185 -0.9500
 7228TIP3    H143175   1.378   4.081   1.846 -1.9403 -0.9346 -1.5216
 7228TIP3    H243176   1.344   4.099   1.700 -0.1388  1.1798 -1.7289
 7229TIP3   OH243177   5.199   4.401  13.052  0.1702 -0.4190 -0.4577
 7229TIP3    H143178   5.155   4.378  12.970  0.5890  1.4254 -1.2398
 7229TIP3    H243179   5.193   4.322  13.105 -1.7008 -1.0781 -1.5684
 7230TIP3   OH243180   1.709   5.213  14.675  0.0821  0.7994  0.0478
 7230TIP3    H143181   1.646   5.151  14.711 -0.1147  0.5639 -0.6802
 7230TIP3    H243182   1.693   5.211  14.581  0.3525  1.6561 -0.0208
 7231TIP3   OH243183   2.884   2.024   4.175 -0.1767 -0.1037  0.3560
 7231TIP3    H143184   2.854   2.101   4.223  1.1941  1.3035 -0.9095
 7231TIP3    H243185   2.805   1.990   4.133 -0.8004  0.6325  0.9047
 7232TIP3   OH243186   1.033   4.631   4.584 -0.6153  0.1135 -0.4687
 7232TIP3    H143187   1.066   4.564   4.524  1.8604  1.3244 -0.6016
 7232TIP3    H243188   0.996   4.698   4.526  1.7903  1.2908 -0.7630
 7233TIP3   OH243189   4.722   0.322   6.220  0.5282 -0.0568  0.2318
 7233TIP3    H143190   4.767   0.245   6.185  0.7019  0.1334  0.0326
 7233TIP3    H243191   4.678   0.360   6.144  0.1148 -0.1833  0.4063
 7234TIP3   OH243192   5.534   5.684  16.229  0.5978  0.4507 -0.2987
 7234TIP3    H143193   5.526   5.674  16.134 -0.8740 -2.1457  0.0064
 7234TIP3    H243194   5.492   5.768  16.247 -0.2273  0.4127 -1.8293
 7235TIP3   OH243195   3.046   6.573   4.666 -0.5383  0.3422  0.3452
 7235TIP3    H143196   3.019   6.519   4.740 -3.4310  0.7003 -0.3312
 7235TIP3    H243197   3.053   6.512   4.593 -1.1025  0.4654  0.1824
 7236TIP3   OH243198   5.707   4.377  16.636 -0.7305  0.4530  0.0001
 7236TIP3    H143199   5.618   4.414  16.638 -1.9889 -2.3295 -0.4257
 7236TIP3    H243200   5.712   4.331  16.552  0.8905  0.0098  0.3100
 7237TIP3   OH243201   6.411   6.412  12.900  0.4246 -0.0749 -0.3364
 7237TIP3    H143202   6.397   6.368  12.815  0.0391  0.5898 -0.6228
 7237TIP3    H243203   6.506   6.408  12.913  0.3486 -1.6866  0.0314
 7238TIP3   OH243204   3.400   1.033  11.717  0.5882 -0.3156  0.2421
 7238TIP3    H143205   3.359   1.058  11.801 -0.4260  3.4656 -1.1730
 7238TIP3    H243206   3.494   1.041  11.733  0.4642 -0.8072  1.3100
 7239TIP3   OH243207   0.346   2.755   2.999  0.0307  0.1552  0.3387
 7239TIP3    H143208   0.343   2.828   2.937  1.1341  0.1398  0.2540
 7239TIP3    H243209   0.418   2.700   2.969 -0.4101 -0.6760  0.7440
 7240TIP3   OH243210   6.389   4.052   2.578 -0.6135 -0.4447  0.0871
 7240TIP3    H143211   6.470   4.037   2.626 -0.2814 -0.7851 -0.5669
 7240TIP3    H243212   6.417   4.091   2.495 -1.1740  0.1161  0.1551
 7241TIP3   OH243213   0.096   1.596  13.780 -0.6229 -0.1752  0.2528
 7241TIP3    H143214   0.148   1.616  13.858 -0.0915 -3.8350  1.0097
 7241TIP3    H243215   0.006   1.592  13.812 -0.2894 -2.8941  1.1146
 7242TIP3   OH243216   2.576   0.231  12.055  0.0937 -0.3679  0.0046
 7242TIP3    H143217   2.600   0.140  12.072 -0.3231 -0.5236 -0.2330
 7242TIP3    H243218   2.575   0.238  11.960 -0.1761 -0.2027  0.0167
 7243TIP3   OH243219   4.330   2.097  16.237  0.2183 -0.3894  0.0777
 7243TIP3    H143220   4.390   2.039  16.284 -0.2950 -0.6495  0.4120
 7243TIP3    H243221   4.384   2.136  16.168  0.7838 -0.5877  0.4049
 7244TIP3   OH243222   0.861   3.819   0.735 -0.5114 -0.1721 -0.6917
 7244TIP3    H143223   0.893   3.904   0.705 -1.3501  1.0365  1.5867
 7244TIP3    H243224   0.765   3.826   0.727 -0.7555  0.1048  1.7926
 7245TIP3   OH243225   1.042   1.509  14.979  0.1694 -0.2749  0.1046
 7245TIP3    H143226   1.107   1.574  15.007 -1.5570  1.2033  0.8829
 7245TIP3    H243227   1.002   1.548  14.902 -0.0608 -0.9970 -0.1395
 7246TIP3   OH243228   0.960   4.656  16.174  0.0853 -0.2957 -0.2380
 7246TIP3    H143229   0.886   4.607  16.208  0.4965 -1.1699 -0.5611
 7246TIP3    H243230   1.029   4.645  16.240 -0.3679  1.3834  0.5759
 7247TIP3   OH243231   1.234   0.491   4.673  0.1356  0.2122 -0.2570
 7247TIP3    H143232   1.223   0.410   4.623 -3.1974  1.1139 -1.3058
 7247TIP3    H243233   1.328   0.505   4.676  0.6880 -2.0061 -2.8793
 7248TIP3   OH243234   6.233   2.829   1.168  0.1919  0.3484 -0.6284
 7248TIP3    H143235   6.149   2.835   1.124  0.3016  2.0621 -0.6567
 7248TIP3    H243236   6.216   2.773   1.244 -0.6828 -0.2519 -1.2528
 7249TIP3   OH243237   2.289   0.699   1.506 -0.1194 -0.0540 -0.2476
 7249TIP3    H143238   2.309   0.761   1.577 -1.1754  0.3239 -0.2699
 7249TIP3    H243239   2.233   0.749   1.446 -1.2836 -1.1417 -0.0887
 7250TIP3   OH243240   2.545   4.865  15.302 -0.6602 -0.3426  0.0406
 7250TIP3    H143241   2.463   4.823  15.327  0.4363 -2.5652  0.1491
 7250TIP3    H243242   2.520   4.927  15.233 -2.7392  0.8985  1.8019
 7251TIP3   OH243243   6.144   1.521   5.146  0.0382 -0.4325 -0.5405
 7251TIP3    H143244   6.050   1.502   5.146  0.0738 -0.7595  1.2954
 7251TIP3    H243245   6.175   1.487   5.062 -1.3622 -0.9864 -0.8551
 7252TIP3   OH243246   4.255   1.586   5.585 -0.1846  0.1475 -0.3021
 7252TIP3    H143247   4.308   1.665   5.589 -0.9025  0.6708 -0.7461
 7252TIP3    H243248   4.253   1.553   5.675 -0.2845  0.9214 -0.0132
 7253TIP3   OH243249   1.957   4.963  17.112  1.1815  0.2202 -0.2802
 7253TIP3    H143250   1.902   5.019  17.057  1.4894 -0.0174 -0.8315
 7253TIP3    H243251   1.970   5.015  17.192  0.2582  0.3237 -0.1857
 7254TIP3   OH243252   3.334   2.219  16.804 -0.9643  0.3387  0.1564
 7254TIP3    H143253   3.350   2.229  16.710 -0.2018 -0.9643  0.1313
 7254TIP3    H243254   3.268   2.285  16.823 -0.8501  0.8952 -1.2154
 7255TIP3   OH243255   4.158   2.294  16.245  1.3320  0.5096  0.1122
 7255TIP3    H143256   4.174   2.203  16.221  1.8560  1.1186 -2.1121
 7255TIP3    H243257   4.241   2.339  16.225  0.5279  1.7597 -0.5934
 7256TIP3   OH243258   0.044   0.005  12.159 -0.0837  0.6209  0.4713
 7256TIP3    H143259  -0.051  -0.012  12.161 -0.1076  0.7204  2.7202
 7256TIP3    H243260   0.054   0.091  12.201  1.0424  0.2942  0.9137
 7257TIP3   OH243261   3.810   0.705  16.807  0.2699  0.3365  0.2651
 7257TIP3    H143262   3.811   0.612  16.784  0.5793  0.3194  0.3407
 7257TIP3    H243263   3.726   0.737  16.774 -0.0295 -0.0672  0.6238
 7258TIP3   OH243264   5.110   3.285  13.253 -0.0316 -0.6382 -0.0071
 7258TIP3    H143265   5.204   3.306  13.257 -0.3262  0.6873  2.2543
 7258TIP3    H243266   5.094   3.234  13.333 -1.3974  0.0687  0.2027
 7259TIP3   OH243267   2.136   6.493  16.123 -0.0025 -0.3070  0.2188
 7259TIP3    H143268   2.061   6.519  16.069  1.0476  1.7946 -0.3497
 7259TIP3    H243269   2.208   6.545  16.089  1.4807 -1.4652  1.4717
 7260TIP3   OH243270   6.428   4.634  16.922  0.7176  0.4723  0.0013
 7260TIP3    H143271   6.414   4.721  16.885 -0.5198  0.3043 -0.0010
 7260TIP3    H243272   6.522   4.622  16.922  1.0090  2.2859  1.0964
 7261TIP3   OH243273   3.839   4.538  14.572  0.6812  0.0762 -0.0841
 7261TIP3    H143274   3.875   4.592  14.501 -0.6166 -1.3895 -1.9612
 7261TIP3    H243275   3.765   4.588  14.605  0.4343  0.1482 -0.7352
 7262TIP3   OH243276   6.658   3.000   3.616 -0.5516  0.1054  0.2398
 7262TIP3    H143277   6.726   2.967   3.674 -0.2623 -1.3360 -0.8815
 7262TIP3    H243278   6.596   2.928   3.607 -0.7096  0.3802 -1.0616
 7263TIP3   OH243279   4.295   6.126  14.890  0.0455  0.3874  0.2930
 7263TIP3    H143280   4.312   6.219  14.884  1.1414  0.1774 -0.0609
 7263TIP3    H243281   4.381   6.086  14.900 -0.2745 -0.6701 -0.8403
 7264TIP3   OH243282   3.910   0.465  15.652  0.6160 -0.4730  0.3936
 7264TIP3    H143283   3.879   0.555  15.651  1.4651 -0.1778 -1.1130
 7264TIP3    H243284   3.859   0.420  15.585  0.9170 -0.8655  0.4213
 7265TIP3   OH243285   0.819   2.437  17.033  0.1439  0.0733 -0.1976
 7265TIP3    H143286   0.842   2.519  17.077 -3.7116  2.0431 -1.3648
 7265TIP3    H243287   0.761   2.392  17.094  0.6089 -0.8082 -0.3877
 7266TIP3   OH243288   3.309   4.255  16.600  0.3881 -0.4242  0.1455
 7266TIP3    H143289   3.382   4.216  16.552 -0.8996 -0.7541 -1.6605
 7266TIP3    H243290   3.253   4.292  16.532  0.7108  3.2703  1.6231
 7267TIP3   OH243291   5.545   0.198   5.727  0.0009  0.0069  0.1662
 7267TIP3    H143292   5.633   0.163   5.718 -0.1726 -0.2965 -0.3940
 7267TIP3    H243293   5.488   0.122   5.718 -0.4046  0.4656 -1.5884
 7268TIP3   OH243294   3.591   1.780  15.447 -0.1439  0.5703 -0.0274
 7268TIP3    H143295   3.634   1.694  15.441 -0.3237  0.5521 -1.2351
 7268TIP3    H243296   3.663   1.843  15.448 -0.0110  0.4257  0.8669
 7269TIP3   OH243297   1.600   1.556   5.854 -0.3943 -0.0717  0.7262
 7269TIP3    H143298   1.594   1.466   5.887  0.3702 -0.1609  0.6577
 7269TIP3    H243299   1.513   1.593   5.868 -1.0393 -1.1654 -0.2704
 7270TIP3   OH243300   1.456   6.165   5.960 -0.2837 -0.0012 -0.3838
 7270TIP3    H143301   1.364   6.142   5.949 -0.2623  0.0490 -0.6701
 7270TIP3    H243302   1.455   6.237   6.024 -0.4747  0.2689 -0.6895
 7271TIP3   OH243303   4.403   1.598   0.579  0.3202  0.6129  0.0422
 7271TIP3    H143304   4.490   1.580   0.543  0.2799  1.0155 -0.2638
 7271TIP3    H243305   4.421   1.627   0.668  0.4429 -0.0658  0.2446
 7272TIP3   OH243306   3.998   5.875   0.902 -0.3117 -0.3997 -0.3814
 7272TIP3    H143307   4.092   5.863   0.913 -0.1078  0.1798 -1.3072
 7272TIP3    H243308   3.986   5.881   0.807 -1.0676  1.1510 -0.2186
 7273TIP3   OH243309   2.382   1.139   3.997 -0.4520 -0.2452 -0.9046
 7273TIP3    H143310   2.309   1.091   3.958 -0.7899 -0.5515  0.0666
 7273TIP3    H243311   2.460   1.106   3.952 -0.7796 -0.9767 -0.9371
 7274TIP3   OH243312   6.331   2.219   3.627  0.1051  0.1840 -0.1021
 7274TIP3    H143313   6.318   2.307   3.593  1.5967 -0.0859 -1.5455
 7274TIP3    H243314   6.323   2.228   3.722  0.5255  1.9257 -0.1937
 7275TIP3   OH243315   1.972   2.740   2.997  0.2560  0.6911 -0.7806
 7275TIP3    H143316   2.012   2.818   2.958  3.7145 -0.7593 -0.5838
 7275TIP3    H243317   1.966   2.760   3.090  1.9438  0.5203 -0.5957
 7276TIP3   OH243318   2.035   5.917   5.193  0.3071 -0.4714 -0.5748
 7276TIP3    H143319   2.080   5.956   5.118 -0.5641  0.0975 -0.8161
 7276TIP3    H243320   2.029   5.988   5.257 -1.4330 -0.1242 -1.0822
 7277TIP3   OH243321   3.980   5.993   4.236  0.4435 -0.0686  0.0983
 7277TIP3    H143322   3.933   6.015   4.316 -0.0497 -0.7149 -0.0103
 7277TIP3    H243323   3.958   6.064   4.175  1.3178  0.7612  0.7127
 7278TIP3   OH243324   5.635   5.383   3.545  0.1523 -0.2729 -0.4245
 7278TIP3    H143325   5.579   5.325   3.493  0.5094 -1.1026  0.0887
 7278TIP3    H243326   5.575   5.444   3.587 -0.3994 -1.2337  0.2281
 7279TIP3   OH243327   1.490   3.787   3.400 -0.1800 -0.5403 -0.0153
 7279TIP3    H143328   1.527   3.845   3.467 -0.6858  1.7235 -1.5587
 7279TIP3    H243329   1.533   3.703   3.415  0.4687  0.1307  2.4758
 7280TIP3   OH243330   0.278   0.405  13.149  0.4628  0.6567 -0.3603
 7280TIP3    H143331   0.278   0.391  13.054  1.8835 -2.9638  0.0259
 7280TIP3    H243332   0.186   0.397  13.174  0.1959  0.6348 -1.3201
 7281TIP3   OH243333   1.612   0.105  15.957  0.3118 -0.7870 -0.2416
 7281TIP3    H143334   1.531   0.133  15.915  0.2833  0.0535  0.3596
 7281TIP3    H243335   1.680   0.125  15.893  0.2680  0.4913  0.0869
 7282TIP3   OH243336   5.868   6.322   5.346  0.6456 -0.0707  0.1782
 7282TIP3    H143337   5.883   6.361   5.432 -1.8874 -1.2895  1.2739
 7282TIP3    H243338   5.783   6.280   5.353  1.3307 -2.1165 -2.2670
 7283TIP3   OH243339   5.481   2.075   4.870 -0.2950 -0.0410  0.0944
 7283TIP3    H143340   5.441   1.995   4.835  0.8341 -0.1452 -1.0292
 7283TIP3    H243341   5.452   2.078   4.961 -2.0641 -0.6032 -0.4040
 7284TIP3   OH243342   1.557   4.341  17.535  0.0692  0.0326 -0.3704
 7284TIP3    H143343   1.631   4.281  17.538  1.5125  1.7472  0.0077
 7284TIP3    H243344   1.482   4.286  17.510  1.7177 -1.4861 -2.2735
 7285TIP3   OH243345   2.823   3.685   1.966 -0.7750 -0.3004  0.1348
 7285TIP3    H143346   2.838   3.595   1.937 -1.3508 -0.3166 -0.1097
 7285TIP3    H243347   2.891   3.700   2.032  0.5114 -0.2887 -1.1453
 7286TIP3   OH243348   4.620   3.953   0.078  0.3799  0.0303 -0.4918
 7286TIP3    H143349   4.597   4.015   0.008 -0.3597 -0.2302 -0.4962
 7286TIP3    H243350   4.667   4.006   0.142  0.2554  0.4790 -0.7636
 7287TIP3   OH243351   2.209   5.475  17.628 -0.7337 -0.2614  0.0731
 7287TIP3    H143352   2.136   5.493  17.569 -0.7075  0.1442  0.1612
 7287TIP3    H243353   2.168   5.444  17.709 -0.7872 -0.4553 -0.0295
 7288TIP3   OH243354   3.534   6.142  14.077 -0.1462  0.1663 -0.7050
 7288TIP3    H143355   3.491   6.227  14.090  0.6873  0.6494 -0.9965
 7288TIP3    H243356   3.470   6.078  14.106  0.2600  0.9933  2.3529
 7289TIP3   OH243357   4.188   2.475   5.082  0.0897  0.1071 -0.1104
 7289TIP3    H143358   4.251   2.455   5.012  1.0648 -0.6931  0.9687
 7289TIP3    H243359   4.109   2.504   5.035  1.4011  1.6473 -1.4953
 7290TIP3   OH243360   5.112   2.604  17.290  0.0327  0.4596  0.5221
 7290TIP3    H143361   5.197   2.612  17.247  1.2685 -0.2789  2.7000
 7290TIP3    H243362   5.054   2.569  17.222  1.5169  0.6554 -0.9176
 7291TIP3   OH243363   0.618   5.514   0.982  0.1142 -0.3155 -0.5579
 7291TIP3    H143364   0.692   5.539   1.037 -0.5466 -2.2210  1.3000
 7291TIP3    H243365   0.646   5.433   0.939 -1.5644 -2.3218  1.8732
 7292TIP3   OH243366   3.445   6.246  12.210  0.1961 -0.0079  0.1489
 7292TIP3    H143367   3.390   6.292  12.273  0.3317 -0.4768  0.6135
 7292TIP3    H243368   3.435   6.296  12.128  0.5529  1.0095  0.7092
 7293TIP3   OH243369   5.793   3.245  14.203  0.4990 -0.4227  0.6342
 7293TIP3    H143370   5.805   3.323  14.150 -0.9330  1.2798  2.6403
 7293TIP3    H243371   5.710   3.207  14.174 -0.9609  1.2431  2.3573
 7294TIP3   OH243372   5.099   6.213  14.342 -0.1558 -0.7104  0.1936
 7294TIP3    H143373   5.087   6.131  14.294  0.0983 -1.0999  0.7937
 7294TIP3    H243374   5.146   6.269  14.280 -0.5924 -0.9056 -0.3281
 7295TIP3   OH243375   2.285   5.236   0.456  0.5704 -0.3400  0.4134
 7295TIP3    H143376   2.333   5.308   0.498 -0.5655  0.9563 -0.4004
 7295TIP3    H243377   2.193   5.260   0.466  0.2288 -0.3557 -2.0882
 7296TIP3   OH243378   5.472   5.641   4.146  0.0640  0.2493 -1.0636
 7296TIP3    H143379   5.553   5.609   4.106 -0.6811 -0.1612 -2.3128
 7296TIP3    H243380   5.492   5.650   4.239  1.3534 -0.4351 -1.2607
 7297TIP3   OH243381   1.689   5.737  10.893 -0.6097 -0.0891  0.3949
 7297TIP3    H143382   1.595   5.723  10.904 -0.5713 -0.4339  0.3042
 7297TIP3    H243383   1.697   5.771  10.804 -0.6784  0.2581  0.5200
 7298TIP3   OH243384   5.670   6.363   0.594  0.2369 -0.3512  0.4607
 7298TIP3    H143385   5.672   6.454   0.622  2.8687 -0.3410  0.4728
 7298TIP3    H243386   5.650   6.314   0.674 -1.5063  0.2011  0.3884
 7299TIP3   OH243387   3.062   6.416  15.219  0.3559  0.1698  0.0065
 7299TIP3    H143388   3.072   6.384  15.308 -0.3944 -0.8150 -0.2471
 7299TIP3    H243389   3.111   6.498  15.217 -0.5048  0.7685  1.6333
 7300TIP3   OH243390   5.624   4.589  12.091 -0.0961 -0.3611  0.5020
 7300TIP3    H143391   5.629   4.566  11.999 -0.8831 -0.3913  0.4543
 7300TIP3    H243392   5.609   4.506  12.136  2.0207 -0.5977  0.8576
 7301TIP3   OH243393   3.557   5.535  14.250 -0.6454 -0.1930 -0.2121
 7301TIP3    H143394   3.642   5.577  14.258 -0.8332  0.3167 -0.8647
 7301TIP3    H243395   3.574   5.454  14.202 -0.3440 -0.7210  0.7366
 7302TIP3   OH243396   4.518   1.669  15.066 -0.1318 -0.7470 -0.1152
 7302TIP3    H143397   4.540   1.696  14.976 -0.0847  0.0751  0.1309
 7302TIP3    H243398   4.458   1.595  15.054 -1.1873  0.1862 -0.8595
 7303TIP3   OH243399   1.646   5.920  12.769  0.3235 -0.3014 -0.0859
 7303TIP3    H143400   1.578   5.941  12.706 -1.0629 -1.5625  0.9232
 7303TIP3    H243401   1.604   5.930  12.855  1.6212 -0.4154  0.5893
 7304TIP3   OH243402   3.621   0.299  13.293  0.3705  0.0901 -0.0086
 7304TIP3    H143403   3.599   0.211  13.321  0.3174 -0.7552 -2.4318
 7304TIP3    H243404   3.698   0.322  13.345  2.3463 -2.6927 -1.3956
 7305TIP3   OH243405   2.083   5.996  14.580 -0.2767  0.3002  0.3649
 7305TIP3    H143406   2.157   5.936  14.569 -0.4016  0.2456 -0.2512
 7305TIP3    H243407   2.051   6.011  14.490 -0.0312  1.5653  0.4772
 7306TIP3   OH243408   2.286   2.581  16.884  0.2696 -0.1134 -0.1778
 7306TIP3    H143409   2.341   2.615  16.813  2.5838 -0.7892  1.1646
 7306TIP3    H243410   2.316   2.491  16.896 -1.3027 -0.5763  0.5341
 7307TIP3   OH243411   3.430   1.464   6.314 -0.4111  0.6148  0.1450
 7307TIP3    H143412   3.461   1.376   6.338  1.7328  1.0155 -0.9448
 7307TIP3    H243413   3.475   1.523   6.374  1.1354  1.2189 -1.5113
 7308TIP3   OH243414   1.144   5.913   2.976  0.1483  0.6006 -0.8251
 7308TIP3    H143415   1.207   5.849   2.944  0.7715  0.7911  0.0033
 7308TIP3    H243416   1.186   5.953   3.052 -0.7768  1.0581 -0.5357
 7309TIP3   OH243417   2.872   2.583  11.450  0.4306 -0.4587 -0.3905
 7309TIP3    H143418   2.886   2.560  11.542 -0.5960  0.9423  0.1640
 7309TIP3    H243419   2.897   2.505  11.401  1.3400 -1.1139  1.0518
 7310TIP3   OH243420   2.748   4.576  17.647 -0.4347  0.0545 -0.6070
 7310TIP3    H143421   2.682   4.507  17.649  0.1659 -0.5655 -1.1997
 7310TIP3    H243422   2.751   4.602  17.555 -0.0186  0.2363 -0.5427
 7311TIP3   OH243423   5.235   3.246  14.083 -0.2161  0.2158  0.1790
 7311TIP3    H143424   5.290   3.181  14.039 -1.2808 -1.8716  1.7491
 7311TIP3    H243425   5.288   3.279  14.155 -0.5253 -0.9011  0.9545
 7312TIP3   OH243426   0.521   0.573   0.659  0.2248  0.2346  0.2898
 7312TIP3    H143427   0.468   0.494   0.672  0.9351 -0.7304 -2.1986
 7312TIP3    H243428   0.569   0.582   0.741 -2.4880  0.2216  2.0238
 7313TIP3   OH243429   5.748   0.385  16.789 -0.0830 -0.5326 -0.2373
 7313TIP3    H143430   5.786   0.313  16.738 -0.9299 -2.3523  1.5772
 7313TIP3    H243431   5.661   0.353  16.813  0.2445  0.2719  2.2461
 7314TIP3   OH243432   1.877   2.932  14.977 -0.2097 -0.0304 -0.0228
 7314TIP3    H143433   1.795   2.910  15.020 -0.5641  1.2909  0.0095
 7314TIP3    H243434   1.912   3.005  15.028  1.7834 -1.5438  0.9196
 7315TIP3   OH243435   1.003   5.473   3.923 -0.1005 -0.2352 -0.2373
 7315TIP3    H143436   0.998   5.386   3.961  1.5822 -0.0786  0.4559
 7315TIP3    H243437   1.049   5.461   3.840  1.2268  0.0887  0.4099
 7316TIP3   OH243438   1.152   0.874   0.529 -0.6656  0.3249 -0.2240
 7316TIP3    H143439   1.126   0.914   0.446 -1.4228  0.3669  0.0295
 7316TIP3    H243440   1.243   0.903   0.542 -1.0175  1.5356 -0.3040
 7317TIP3   OH243441   5.402   5.423   4.965 -0.2643  0.3880  0.5057
 7317TIP3    H143442   5.351   5.490   4.919  0.3387  0.2993 -0.3267
 7317TIP3    H243443   5.451   5.472   5.031 -1.6943  0.4219  1.6007
 7318TIP3   OH243444   3.244   0.701  16.233  0.1285  0.6371  0.2062
 7318TIP3    H143445   3.272   0.704  16.325 -1.2962  1.7907  0.6275
 7318TIP3    H243446   3.165   0.647  16.234  0.9447 -0.6192 -0.6059
 7319TIP3   OH243447   0.736   2.598  16.630 -0.3070 -0.3874  0.7983
 7319TIP3    H143448   0.823   2.570  16.657  0.6374  2.2607  0.7837
 7319TIP3    H243449   0.678   2.566  16.699  0.5230 -2.6406  0.5483
 7320TIP3   OH243450   1.401   3.940   0.506 -0.0473  0.1661  0.2597
 7320TIP3    H143451   1.370   4.026   0.535  1.5878  0.7857  0.3066
 7320TIP3    H243452   1.323   3.897   0.471 -0.8559  1.7986 -0.0787
 7321TIP3   OH243453   1.736   1.438   2.338  0.3623 -0.4940  0.0650
 7321TIP3    H143454   1.719   1.530   2.315  0.6769 -0.6315 -0.7280
 7321TIP3    H243455   1.826   1.422   2.311  0.2231 -1.1154 -0.0533
 7322TIP3   OH243456   2.690   6.263  12.041  0.0752  0.3027  0.2579
 7322TIP3    H143457   2.765   6.218  12.078  1.3904  0.7898 -1.6733
 7322TIP3    H243458   2.662   6.207  11.968 -0.9650  0.5077  0.4781
 7323TIP3   OH243459   1.759   0.094  12.493  0.2770 -0.3417 -0.1475
 7323TIP3    H143460   1.765   0.035  12.568 -2.9399 -0.2962  0.3022
 7323TIP3    H243461   1.763   0.037  12.416  2.1108 -0.5450  0.0673
 7324TIP3   OH243462   4.111   5.895  16.381  0.2287 -0.1785 -0.0182
 7324TIP3    H143463   4.126   5.842  16.302 -0.9974 -0.1593 -0.2878
 7324TIP3    H243464   4.019   5.879  16.404  0.1505  0.9489  0.5528
 7325TIP3   OH243465   2.152   2.497   0.394  0.5701  0.0239  0.2629
 7325TIP3    H143466   2.086   2.557   0.428 -0.9298 -0.8611 -0.9559
 7325TIP3    H243467   2.205   2.550   0.335 -0.2701  0.3510 -0.2196
 7326TIP3   OH243468   1.482   1.968  16.301  0.4403  0.2744 -0.1080
 7326TIP3    H143469   1.448   2.040  16.247 -0.2314 -0.1464 -0.2655
 7326TIP3    H243470   1.513   1.904  16.237 -2.5825 -1.3234 -0.1665
 7327TIP3   OH243471   4.657   0.206  13.595 -0.2658  0.5752  0.0877
 7327TIP3    H143472   4.638   0.253  13.676  1.1483  0.3081  0.6080
 7327TIP3    H243473   4.706   0.269  13.542  0.3524  0.1826  0.1812
 7328TIP3   OH243474   4.001   5.883  12.353 -0.0314 -0.0548 -0.3149
 7328TIP3    H143475   3.976   5.926  12.271 -0.0352  1.2138  0.3292
 7328TIP3    H243476   4.060   5.945  12.395  0.2628 -0.8561  0.4767
 7329TIP3   OH243477   3.017   2.059  12.359 -0.1571 -0.7637 -0.4878
 7329TIP3    H143478   3.035   1.966  12.373 -3.3016 -1.4302 -0.1810
 7329TIP3    H243479   2.974   2.088  12.440  0.3025  0.8550 -0.7772
 7330TIP3   OH243480   1.750   1.182  14.446  0.2805 -0.2858  0.5204
 7330TIP3    H143481   1.720   1.256  14.499 -0.4506  0.1992 -0.5408
 7330TIP3    H243482   1.684   1.114  14.461  1.2085 -0.9382  1.8793
 7331TIP3   OH243483   3.617   1.886  12.203 -0.0729  0.0714  0.2864
 7331TIP3    H143484   3.662   1.881  12.287  0.0016  0.3215  0.2641
 7331TIP3    H243485   3.676   1.938  12.148  0.6897 -1.5197 -0.4448
 7332TIP3   OH243486   4.797   2.353  16.505 -0.0703  0.5844  0.3812
 7332TIP3    H143487   4.872   2.344  16.446 -0.3031  1.4713 -0.0607
 7332TIP3    H243488   4.770   2.444  16.496 -1.9083  0.0208 -0.2970
 7333TIP3   OH243489   4.707   1.071  17.363 -0.5709 -0.0188 -0.5301
 7333TIP3    H143490   4.795   1.067  17.324 -1.0246 -0.5152 -1.5264
 7333TIP3    H243491   4.721   1.047  17.455  0.1581 -1.5286 -0.9943
 7334TIP3   OH243492   6.351   5.245  16.714 -0.0545  0.9628 -0.1564
 7334TIP3    H143493   6.422   5.299  16.677  0.5298 -0.8661 -1.8607
 7334TIP3    H243494   6.306   5.209  16.638 -0.2227 -1.2015  0.8915
 7335TIP3   OH243495   6.120   4.887   6.095 -0.0175 -0.3877 -0.0517
 7335TIP3    H143496   6.043   4.879   6.150  0.5248  0.1396  0.8120
 7335TIP3    H243497   6.181   4.941   6.146  0.6923 -0.2976 -0.9577
 7336TIP3   OH243498   4.146   1.576  17.222 -0.4146 -0.1641 -0.1407
 7336TIP3    H143499   4.183   1.604  17.305 -0.6715 -1.1222  0.3067
 7336TIP3    H243500   4.185   1.635  17.157 -0.2753  0.6414  0.6564
 7337TIP3   OH243501   6.519   6.466   1.745  0.3705  0.1341 -0.2979
 7337TIP3    H143502   6.607   6.488   1.774  0.2658 -1.3649  1.3683
 7337TIP3    H243503   6.469   6.547   1.756  1.6860  1.2471 -2.1146
 7338TIP3   OH243504   3.566   5.515  15.238  0.2222 -0.3053 -0.1375
 7338TIP3    H143505   3.479   5.508  15.198  0.7269  0.0448 -1.3309
 7338TIP3    H243506   3.552   5.564  15.319 -0.3173  2.1470 -1.6325
 7339TIP3   OH243507   3.092   1.609  14.282  0.9542 -0.3311 -0.9634
 7339TIP3    H143508   3.179   1.636  14.252  0.9477 -0.5294 -1.1587
 7339TIP3    H243509   3.104   1.518  14.311  0.1639 -1.4702 -3.8721
 7340TIP3   OH243510   5.418   6.043   5.442  0.1370  0.1428  0.4224
 7340TIP3    H143511   5.346   5.988   5.409  0.7226 -0.3206 -0.1105
 7340TIP3    H243512   5.398   6.055   5.535 -0.0712 -0.8726  0.5203
 7341TIP3   OH243513   0.656   3.246   5.692 -0.0495 -0.1666  0.1377
 7341TIP3    H143514   0.681   3.154   5.695  1.0201  0.1259  0.4397
 7341TIP3    H243515   0.610   3.255   5.609 -0.4169 -1.0287  0.2336
 7342TIP3   OH243516   4.876   0.252   2.304 -0.0321 -0.2639 -0.2651
 7342TIP3    H143517   4.859   0.192   2.232  1.8234 -0.9536 -0.1717
 7342TIP3    H243518   4.893   0.196   2.379  1.1920  0.3665 -0.0522
 7343TIP3   OH243519   4.964   6.098  12.134 -0.2421  0.0095 -0.2502
 7343TIP3    H143520   4.906   6.164  12.096 -0.7222 -0.8962 -1.1442
 7343TIP3    H243521   5.037   6.148  12.169 -0.4260  0.9961 -1.2037
 7344TIP3   OH243522   2.847   0.161   1.749 -0.3215 -0.3702  0.1609
 7344TIP3    H143523   2.901   0.235   1.775 -0.1015 -0.1752 -0.7909
 7344TIP3    H243524   2.786   0.198   1.685  0.0364 -1.0777 -0.6083
 7345TIP3   OH243525   1.294   4.125  13.711  0.3511  0.4353  0.6027
 7345TIP3    H143526   1.224   4.190  13.720  1.0493  1.2493  0.3070
 7345TIP3    H243527   1.279   4.085  13.626  0.9514  1.5003 -0.0313
 7346TIP3   OH243528   1.447   2.275   5.570 -0.5279  0.0188  0.1597
 7346TIP3    H143529   1.445   2.231   5.484  0.1541 -0.3923  0.3439
 7346TIP3    H243530   1.451   2.368   5.549  1.7914 -0.1382 -0.3085
 7347TIP3   OH243531   0.363   2.559   3.220 -0.1279  0.0797 -0.4270
 7347TIP3    H143532   0.353   2.506   3.141 -0.1007  1.7117 -1.5638
 7347TIP3    H243533   0.404   2.640   3.190  0.4754  0.4943  1.3713
 7348TIP3   OH243534   4.754   2.789   5.021 -0.0982 -0.1968 -0.0613
 7348TIP3    H143535   4.841   2.821   4.998  0.3608 -1.2441  0.1612
 7348TIP3    H243536   4.700   2.868   5.028  1.0679  0.5503  0.8073
 7349TIP3   OH243537   0.389   1.134  13.564 -0.1347  0.1300  0.2813
 7349TIP3    H143538   0.347   1.118  13.649 -0.0183  0.3676  0.3843
 7349TIP3    H243539   0.475   1.094  13.572 -0.0120  0.4145  0.3797
 7350TIP3   OH243540   5.885   2.741  16.863  0.7284 -0.2749  0.2313
 7350TIP3    H143541   5.866   2.739  16.770 -0.6143 -2.5367  0.4779
 7350TIP3    H243542   5.977   2.766  16.869  0.9695 -0.5884 -1.7205
 7351TIP3   OH243543   2.663   1.753   1.420 -0.2753  0.0134 -0.4771
 7351TIP3    H143544   2.680   1.828   1.363  1.3090  0.9970  1.1992
 7351TIP3    H243545   2.732   1.691   1.399  0.3466  0.4040  0.3943
 7352TIP3   OH243546   0.710   1.955  16.706  0.2907  0.1710 -0.1645
 7352TIP3    H143547   0.732   1.885  16.645 -0.6752 -0.5207  0.2534
 7352TIP3    H243548   0.637   1.920  16.758 -0.9483  1.8907 -0.6578
 7353TIP3   OH243549   3.664   3.780  13.559 -0.2411  0.2559 -0.2133
 7353TIP3    H143550   3.690   3.872  13.552  0.9552 -0.1004 -0.7604
 7353TIP3    H243551   3.628   3.759  13.474  0.0785  0.0526 -0.2997
 7354TIP3   OH243552   3.614   3.468   3.716  0.1920  0.1781 -0.7574
 7354TIP3    H143553   3.528   3.430   3.731 -0.1680  1.1086 -0.3882
 7354TIP3    H243554   3.656   3.469   3.802  1.8741 -3.1644 -1.3352
 7355TIP3   OH243555   1.076   5.588   6.098  0.5783 -0.0896  0.2554
 7355TIP3    H143556   1.022   5.607   6.021  1.5002 -1.9377 -0.9404
 7355TIP3    H243557   1.030   5.628   6.171 -1.0532  0.5665 -1.0788
 7356TIP3   OH243558   1.589   5.434  14.932  0.1415 -0.5076  0.3277
 7356TIP3    H143559   1.589   5.492  15.009 -0.6503  1.2596 -0.9487
 7356TIP3    H243560   1.679   5.400  14.929  1.4202  2.5388 -0.1752
 7357TIP3   OH243561   3.954   2.258   0.308 -0.2552  0.2186  0.3225
 7357TIP3    H143562   3.909   2.175   0.290 -1.6600  0.8495  0.7479
 7357TIP3    H243563   3.926   2.316   0.238 -1.5865  1.1436  1.5650
 7358TIP3   OH243564   4.808   4.463   0.244  0.2008 -0.5145 -0.2583
 7358TIP3    H143565   4.745   4.410   0.195 -0.2356  0.4042 -0.7172
 7358TIP3    H243566   4.794   4.437   0.335 -1.2262  0.0204 -0.2939
 7359TIP3   OH243567   5.014   3.697   3.026 -0.2442  0.1633 -0.1260
 7359TIP3    H143568   5.109   3.700   3.037 -0.1365  0.0305 -0.9513
 7359TIP3    H243569   4.997   3.744   2.944 -0.8398 -0.2376 -0.2454
 7360TIP3   OH243570   2.772   3.306   4.315  0.0480  0.1538  0.4892
 7360TIP3    H143571   2.769   3.293   4.410 -1.4334  0.2525  0.4864
 7360TIP3    H243572   2.789   3.219   4.279  0.5716  0.1074  0.8457
 7361TIP3   OH243573   0.531   5.409  13.591 -0.0022  1.1527 -0.2678
 7361TIP3    H143574   0.572   5.496  13.592 -1.1906  1.7416 -0.2632
 7361TIP3    H243575   0.564   5.366  13.670  1.8471  0.9637 -1.0859
 7362TIP3   OH243576   4.896   5.752  12.638 -0.2404  0.3098 -0.5146
 7362TIP3    H143577   4.947   5.676  12.610  2.0465  2.2734 -2.1622
 7362TIP3    H243578   4.813   5.744  12.591 -0.2494 -1.3684 -0.2798
 7363TIP3   OH243579   1.816   1.716   5.768 -0.5153 -0.2870  0.1283
 7363TIP3    H143580   1.750   1.648   5.761  0.1634 -0.9100 -0.4398
 7363TIP3    H243581   1.838   1.719   5.861  0.1578 -1.5680  0.0384
 7364TIP3   OH243582   6.343   0.600  16.387 -0.0610  0.6677  0.0382
 7364TIP3    H143583   6.366   0.526  16.332 -0.4953  1.2154 -0.9017
 7364TIP3    H243584   6.387   0.583  16.471 -0.5288 -0.8580 -0.0150
 7365TIP3   OH243585   1.858   5.472   7.040  0.8167 -0.1653 -0.0889
 7365TIP3    H143586   1.852   5.536   6.969 -0.5886 -0.3333 -0.1532
 7365TIP3    H243587   1.781   5.417   7.028  0.2899  0.0913  1.8317
 7366TIP3   OH243588   6.695   4.303  11.992  1.0721 -0.0368 -0.0617
 7366TIP3    H143589   6.678   4.351  11.912  3.9002 -0.3966 -1.0194
 7366TIP3    H243590   6.789   4.282  11.988  1.5628  0.6331  3.7162
 7367TIP3   OH243591   1.319   3.949   6.713 -0.1029 -0.5554 -0.2297
 7367TIP3    H143592   1.273   3.980   6.791  0.3251 -0.4649 -0.0100
 7367TIP3    H243593   1.251   3.906   6.660 -0.9244  1.5115 -0.9599
 7368TIP3   OH243594   0.519   5.083  16.191  0.0742  0.2602  0.2629
 7368TIP3    H143595   0.588   5.136  16.230  0.0907  0.8171 -0.4866
 7368TIP3    H243596   0.522   5.000  16.238  1.4615  0.1651  0.0433
 7369TIP3   OH243597   3.259   6.582  15.108  0.6340 -0.0598 -0.4441
 7369TIP3    H143598   3.344   6.616  15.081 -0.0289 -0.4510 -3.2514
 7369TIP3    H243599   3.196   6.643  15.071 -0.3791 -1.1505 -0.5778
 7370TIP3   OH243600   3.383   6.181   1.083  0.0956 -0.7159  0.7174
 7370TIP3    H143601   3.405   6.174   0.990  0.1411 -0.7593  0.7316
 7370TIP3    H243602   3.296   6.143   1.091  0.1196 -0.7726  0.7040
 7371TIP3   OH243603   5.960   3.984   2.007  0.2611  0.1750 -0.1063
 7371TIP3    H143604   6.027   3.924   2.039  0.0451  0.4856  0.9876
 7371TIP3    H243605   6.006   4.066   1.992  0.3391  0.0645 -0.4763
 7372TIP3   OH243606   1.317   2.767   4.761 -0.6952 -0.4996 -0.1964
 7372TIP3    H143607   1.245   2.704   4.753 -1.5320  0.4909 -0.5905
 7372TIP3    H243608   1.387   2.717   4.804 -1.8863 -1.2570  0.9340
 7373TIP3   OH243609   2.285   2.540   2.497  0.3616 -0.3848 -0.2048
 7373TIP3    H143610   2.206   2.595   2.486  0.7659  0.4008  0.6982
 7373TIP3    H243611   2.251   2.455   2.525 -0.1490  0.1896  1.0167
 7374TIP3   OH243612   3.749   3.644  17.214 -0.6159 -0.0489  0.2542
 7374TIP3    H143613   3.784   3.733  17.219  0.3270 -0.2314 -2.0739
 7374TIP3    H243614   3.787   3.599  17.290  0.9536  0.8533  0.0391
 7375TIP3   OH243615   5.086   1.112  11.515 -0.1971 -0.0207  0.0420
 7375TIP3    H143616   5.022   1.080  11.579  0.8210 -2.6190 -0.0912
 7375TIP3    H243617   5.060   1.071  11.432 -0.4455  1.8595 -0.8720
 7376TIP3   OH243618   4.446   2.882  11.734  0.1331 -0.0287  0.2556
 7376TIP3    H143619   4.421   2.972  11.758 -1.1304 -0.1288 -0.5474
 7376TIP3    H243620   4.392   2.826  11.790  1.8486 -0.3402  1.6760
 7377TIP3   OH243621   1.438   0.814  17.202  0.5754 -0.0832  0.0240
 7377TIP3    H143622   1.416   0.822  17.109  0.4241 -0.6086  0.0090
 7377TIP3    H243623   1.358   0.839  17.248 -0.0310 -1.8350 -0.0252
 7378TIP3   OH243624   5.462   5.005   3.063  0.3457 -0.1081 -0.3395
 7378TIP3    H143625   5.556   5.016   3.076 -0.0785  1.8396  1.7286
 7378TIP3    H243626   5.439   5.071   2.997  0.4632 -0.8874 -1.1791
 7379TIP3   OH243627   0.750   4.768  14.694  0.1465  0.3078 -0.2172
 7379TIP3    H143628   0.692   4.759  14.619  0.7588  0.5160 -0.7143
 7379TIP3    H243629   0.713   4.708  14.759  0.1026 -0.5088 -0.9797
 7380TIP3   OH243630   3.159   0.245   2.472 -0.1053  0.6461 -0.1725
 7380TIP3    H143631   3.135   0.248   2.565  0.6986  0.5265  0.0445
 7380TIP3    H243632   3.120   0.163   2.440 -0.8244  0.9408 -0.0766
 7381TIP3   OH243633   3.576   3.544   0.636 -0.3379 -0.5866 -0.7550
 7381TIP3    H143634   3.497   3.489   0.641 -0.8156  0.1623  2.8541
 7381TIP3    H243635   3.631   3.513   0.708  2.9279 -1.2554 -3.3376
 7382TIP3   OH243636   2.024   3.404   2.115  0.1327 -0.6740  0.9143
 7382TIP3    H143637   1.936   3.433   2.140 -0.1909  2.1194 -2.5516
 7382TIP3    H243638   2.083   3.453   2.172 -0.5610 -0.1911  1.2332
 7383TIP3   OH243639   3.393   5.770   2.004  0.4964  0.1024 -0.2915
 7383TIP3    H143640   3.460   5.753   1.938  0.9151 -1.0263  0.3920
 7383TIP3    H243641   3.401   5.697   2.066 -0.8384  0.3654  0.2333
 7384TIP3   OH243642   4.558   1.785   5.317 -0.5919  0.0927 -0.0870
 7384TIP3    H143643   4.650   1.777   5.343 -0.1495  1.5747 -1.0680
 7384TIP3    H243644   4.509   1.738   5.386  0.8451 -0.2775  0.7193
 7385TIP3   OH243645   5.939   3.442   2.478  0.2838 -0.1549  0.1351
 7385TIP3    H143646   6.008   3.399   2.528  0.7693  1.6769  1.1382
 7385TIP3    H243647   5.956   3.535   2.490 -1.3555  0.3336 -1.0431
 7386TIP3   OH243648   4.944   0.890   2.683 -0.1849 -0.5370 -0.7305
 7386TIP3    H143649   5.029   0.928   2.662  0.0891 -0.7622 -0.0465
 7386TIP3    H243650   4.964   0.807   2.726 -0.7644 -1.0279 -1.3573
 7387TIP3   OH243651   5.800   6.154   1.823  0.4828  0.3038  0.7787
 7387TIP3    H143652   5.713   6.193   1.810  0.9038  0.9411 -0.2633
 7387TIP3    H243653   5.784   6.078   1.879 -1.3133 -1.6999 -2.1716
 7388TIP3   OH243654   1.782   6.107  16.680 -0.1464  0.2582  0.3410
 7388TIP3    H143655   1.849   6.050  16.718 -1.0236 -1.2497 -0.2826
 7388TIP3    H243656   1.793   6.098  16.585 -0.1089  1.4028  0.2151
 7389TIP3   OH243657   1.356   5.473  13.445 -0.3512 -0.5477  0.2208
 7389TIP3    H143658   1.415   5.445  13.375  0.5726 -0.9561  1.1491
 7389TIP3    H243659   1.364   5.568  13.445 -0.6240 -0.5159 -0.4497
 7390TIP3   OH243660   3.854   3.169  13.206 -0.1115 -0.1222  0.1596
 7390TIP3    H143661   3.864   3.264  13.199 -0.2747 -0.1447 -0.4561
 7390TIP3    H243662   3.760   3.155  13.212 -0.1728 -0.3105 -1.0089
 7391TIP3   OH243663   6.619   0.761  14.772 -0.1002  0.2582 -0.1230
 7391TIP3    H143664   6.558   0.824  14.812 -0.2427 -0.4006  0.7254
 7391TIP3    H243665   6.701   0.775  14.819 -0.4176 -0.9034  0.8239
 7392TIP3   OH243666   4.373   2.793  16.589 -0.2215  0.6165  0.3893
 7392TIP3    H143667   4.392   2.702  16.614  0.5461  0.4721 -0.6641
 7392TIP3    H243668   4.429   2.809  16.513 -0.0552  2.1102  0.8011
 7393TIP3   OH243669   4.527   0.006  16.421 -0.4244  0.4746 -0.0198
 7393TIP3    H143670   4.572  -0.022  16.341 -1.8285  2.0511 -1.4422
 7393TIP3    H243671   4.598   0.023  16.483  0.7345 -0.3557 -1.0644
 7394TIP3   OH243672   3.973   1.974   0.088 -0.0307 -0.5822  0.1760
 7394TIP3    H143673   3.998   1.911   0.020  2.0787 -0.0479  0.3642
 7394TIP3    H243674   4.052   2.026   0.101 -0.2536 -0.8422  3.2276
 7395TIP3   OH243675   6.597   4.209   0.377  0.5442  0.0807 -0.1949
 7395TIP3    H143676   6.657   4.147   0.419  0.9955  0.8205  0.2865
 7395TIP3    H243677   6.517   4.159   0.362  0.4930 -0.3227  1.2407
 7396TIP3   OH243678   4.679   0.152  11.475  0.1937 -0.0789  0.4075
 7396TIP3    H143679   4.594   0.193  11.460  0.9557  2.2240  1.8919
 7396TIP3    H243680   4.683   0.140  11.570  1.1229 -1.1324  0.2552
 7397TIP3   OH243681   2.930   6.529   5.561 -0.1584 -0.3404 -0.1377
 7397TIP3    H143682   2.990   6.557   5.630  0.7974  0.4105 -1.2344
 7397TIP3    H243683   2.921   6.434   5.574  0.5897 -0.3250  0.5569
 7398TIP3   OH243684   1.365   6.272   3.312  0.1779 -0.3014 -0.3112
 7398TIP3    H143685   1.412   6.260   3.395 -1.2327  0.5541  0.6646
 7398TIP3    H243686   1.385   6.361   3.286 -0.6452 -0.0289 -0.0383
 7399TIP3   OH243687   0.279   5.858  14.304  0.4710 -0.2559 -0.4108
 7399TIP3    H143688   0.373   5.874  14.301  0.4250  0.2470  0.5326
 7399TIP3    H243689   0.268   5.791  14.372 -0.0310  1.3086  1.1332
 7400TIP3   OH243690   0.058   4.929   1.356 -0.8333 -0.0855  0.0816
 7400TIP3    H143691   0.083   4.837   1.342 -0.1507  0.2945 -1.2678
 7400TIP3    H243692  -0.029   4.936   1.318 -0.5732  0.0013 -0.5077
 7401TIP3   OH243693   3.911   3.775  17.670  0.3663 -0.6216  0.2437
 7401TIP3    H143694   3.868   3.804  17.590 -1.0301 -0.7431  0.9174
 7401TIP3    H243695   3.937   3.856  17.714 -0.1026 -0.5078  0.3137
 7402TIP3   OH243696   5.935   2.140  13.034 -0.0583  0.4727  0.3300
 7402TIP3    H143697   6.021   2.157  13.070 -0.5371 -1.4287  2.6781
 7402TIP3    H243698   5.874   2.158  13.106 -1.4972  0.3389 -0.7850
 7403TIP3   OH243699   5.299   0.148  12.554  0.3911  0.2293 -0.0064
 7403TIP3    H143700   5.289   0.208  12.628 -0.8801 -0.4138  0.3578
 7403TIP3    H243701   5.356   0.195  12.493  0.4691  1.2684  0.8406
 7404TIP3   OH243702   0.433   6.437   5.781  0.0957  0.2689 -0.2521
 7404TIP3    H143703   0.358   6.485   5.744 -0.6701 -0.0618  0.8338
 7404TIP3    H243704   0.506   6.498   5.771 -0.4873  0.9531 -0.5424
 7405TIP3   OH243705   4.102   3.637  17.237 -0.0540  0.0729  0.2383
 7405TIP3    H143706   4.105   3.543  17.220  0.6437 -0.3255  2.2384
 7405TIP3    H243707   4.031   3.647  17.301 -0.2020  0.9256 -0.0567
 7406TIP3   OH243708   6.692   3.884  11.421 -0.4609 -0.3754 -0.4701
 7406TIP3    H143709   6.765   3.935  11.384  1.0496 -0.7750  1.7520
 7406TIP3    H243710   6.614   3.929  11.390  0.7533  1.1683 -1.4956
 7407TIP3   OH243711   5.540   0.536  12.266  0.1112  0.3488  0.6038
 7407TIP3    H143712   5.623   0.544  12.220 -0.2084  1.5333  0.1821
 7407TIP3    H243713   5.474   0.546  12.198 -0.3690  0.8047  1.1251
 7408TIP3   OH243714   0.720   0.606   6.236 -0.6101 -0.1314  0.2408
 7408TIP3    H143715   0.669   0.528   6.217 -0.7500 -0.0614  0.3250
 7408TIP3    H243716   0.654   0.672   6.259 -0.4535 -0.1778  0.8419
 7409TIP3   OH243717   1.927   2.646   5.804  0.3552 -0.2510 -0.0009
 7409TIP3    H143718   1.859   2.621   5.742  0.6815  1.8917 -1.3211
 7409TIP3    H243719   1.956   2.563   5.843 -0.4831 -1.5800 -2.0613
 7410TIP3   OH243720   4.336   4.813  12.440 -0.1078 -0.2116 -0.1200
 7410TIP3    H143721   4.422   4.855  12.439  0.0810 -0.5606  0.8358
 7410TIP3    H243722   4.352   4.725  12.472 -1.1580  0.5911  3.0173
 7411TIP3   OH243723   4.920   4.329   5.085 -0.3613  0.1515  0.2183
 7411TIP3    H143724   4.940   4.240   5.114  0.2466  0.0715 -0.4187
 7411TIP3    H243725   4.873   4.368   5.159 -3.0337 -1.5365 -0.4517
 7412TIP3   OH243726   5.222   2.446   5.298 -0.7147 -0.0649 -0.1161
 7412TIP3    H143727   5.178   2.440   5.383 -1.3834  0.6389 -0.4099
 7412TIP3    H243728   5.165   2.399   5.238  0.1869 -1.3265 -0.0320
 7413TIP3   OH243729   3.131   3.438  13.050 -0.6751  0.0337  0.0982
 7413TIP3    H143730   3.086   3.391  12.979 -0.6138  1.4016 -0.8838
 7413TIP3    H243731   3.224   3.429  13.029 -0.4804 -1.7210  1.4442
 7414TIP3   OH243732   2.257   6.594  11.531 -0.1893  0.1308 -0.3346
 7414TIP3    H143733   2.284   6.506  11.556  1.3638  0.6446 -0.1021
 7414TIP3    H243734   2.161   6.593  11.540 -0.2010 -1.5071 -0.3126
 7415TIP3   OH243735   5.778   3.025   4.010  0.0720  0.3476 -0.3134
 7415TIP3    H143736   5.845   2.960   4.028  0.4822  0.9089  0.2481
 7415TIP3    H243737   5.711   3.010   4.076 -0.1918  0.0195 -0.6504
 7416TIP3   OH243738   6.034   3.316  13.894 -0.3650  0.1373 -0.1707
 7416TIP3    H143739   6.069   3.382  13.954 -0.4057 -0.2450  0.2780
 7416TIP3    H243740   6.017   3.364  13.813 -0.0810  0.6085  0.0448
 7417TIP3   OH243741   5.188   1.017   2.514 -0.6116  0.2131  0.0233
 7417TIP3    H143742   5.180   0.922   2.520  0.1202  0.0602 -1.2106
 7417TIP3    H243743   5.164   1.048   2.602  3.2635 -1.3681  1.8632
 7418TIP3   OH243744   3.004   3.945  15.896  0.3201  0.1397  0.5686
 7418TIP3    H143745   2.927   3.984  15.937  0.8197  1.0708  0.6552
 7418TIP3    H243746   3.068   4.016  15.893  0.1706  0.2713 -2.2534
 7419TIP3   OH243747   0.025   2.036   1.683  0.1588  0.2317  0.5364
 7419TIP3    H143748  -0.034   1.978   1.635  0.4677  1.0012 -0.8106
 7419TIP3    H243749   0.018   2.120   1.639  1.3640  0.6585  1.0995
 7420TIP3   OH243750   6.442   4.081   6.723 -0.2623  0.3578 -0.1924
 7420TIP3    H143751   6.514   4.065   6.662  0.4264  0.7767  0.4850
 7420TIP3    H243752   6.364   4.049   6.678  0.2528  0.5062 -1.2149
 7421TIP3   OH243753   3.560   4.804  17.482 -0.3859 -0.3166 -0.0509
 7421TIP3    H143754   3.563   4.756  17.565 -0.9903  0.8417  0.6872
 7421TIP3    H243755   3.644   4.850  17.478 -0.8927  0.7246  0.6516
 7422TIP3   OH243756   1.721   2.394  12.358  1.0081 -0.3732 -0.5206
 7422TIP3    H143757   1.748   2.482  12.329  0.1979  0.7009  1.7535
 7422TIP3    H243758   1.792   2.366  12.416 -0.0965  0.1024  1.1100
 7423TIP3   OH243759   4.197   1.205  17.588  0.5945  0.7703  0.1248
 7423TIP3    H143760   4.196   1.254  17.506  0.7774 -0.7935 -0.8648
 7423TIP3    H243761   4.145   1.126  17.570  0.1682  0.6459  1.6923
 7424TIP3   OH243762   0.575   5.672  17.280 -0.0517  0.6592  0.0231
 7424TIP3    H143763   0.608   5.745  17.334  0.9477  0.9863 -0.9790
 7424TIP3    H243764   0.622   5.595  17.313  0.3284  0.8037 -0.1794
 7425TIP3   OH243765   0.310   5.154   5.405 -0.1556  0.8281  0.0031
 7425TIP3    H143766   0.231   5.100   5.400 -0.2123  0.6985  1.5927
 7425TIP3    H243767   0.374   5.096   5.447  1.7416 -0.0692 -3.7021
 7426TIP3   OH243768   4.257   6.179   0.620  0.4664  0.4115 -0.1202
 7426TIP3    H143769   4.311   6.100   0.615 -0.8153 -0.5808  1.0848
 7426TIP3    H243770   4.291   6.235   0.550  1.8323 -0.9196 -0.5842
 7427TIP3   OH243771   3.643   0.618  15.926  0.8131 -0.1525  0.4145
 7427TIP3    H143772   3.646   0.661  16.011 -1.7572 -0.5754  0.7763
 7427TIP3    H243773   3.735   0.606  15.902  1.6776  3.7272  1.1559
 7428TIP3   OH243774   4.748   3.555   5.163 -0.0011  0.3076 -0.4115
 7428TIP3    H143775   4.743   3.514   5.077  0.4321 -0.4464 -0.0877
 7428TIP3    H243776   4.841   3.578   5.174 -0.2056  1.2565 -0.5211
 7429TIP3   OH243777   4.955   3.510  14.775 -0.2957  0.4712  0.2614
 7429TIP3    H143778   5.004   3.540  14.699  0.9764  0.2577  0.9548
 7429TIP3    H243779   4.975   3.575  14.843 -3.0955  1.8456 -0.1107
 7430TIP3   OH243780   4.181   6.724  15.710 -0.6718  0.8407  0.0307
 7430TIP3    H143781   4.101   6.775  15.718 -1.2719 -0.1790  0.8108
 7430TIP3    H243782   4.230   6.766  15.639 -1.9150  1.4587 -0.4900
 7431TIP3   OH243783   3.555   4.744   2.632 -0.3174 -0.3165 -0.5244
 7431TIP3    H143784   3.562   4.839   2.624  0.8130 -0.4218 -1.0528
 7431TIP3    H243785   3.487   4.720   2.569 -1.7372  0.2694  0.7302
 7432TIP3   OH243786   1.480   2.672  13.151  0.0211 -0.4773  0.2868
 7432TIP3    H143787   1.487   2.683  13.056  2.4779 -2.1728  0.1804
 7432TIP3    H243788   1.437   2.752  13.181 -0.8524  0.1041 -2.2255
 7433TIP3   OH243789   3.727   4.697  17.217  0.2393  0.3355  0.3392
 7433TIP3    H143790   3.731   4.663  17.306 -1.6282  0.2982  0.4450
 7433TIP3    H243791   3.664   4.768  17.222 -0.1850  0.0773 -1.0320
 7434TIP3   OH243792   4.208   3.796  15.176 -0.0535 -0.0399  0.1799
 7434TIP3    H143793   4.168   3.856  15.238 -1.2679 -0.0859 -0.5309
 7434TIP3    H243794   4.267   3.742  15.229  0.3426  1.1380  0.9727
 7435TIP3   OH243795   4.095   3.334   2.411  0.1314 -0.3729  0.2640
 7435TIP3    H143796   4.165   3.270   2.424 -0.7070 -1.1140  1.3634
 7435TIP3    H243797   4.138   3.419   2.414  1.0755 -0.8440  0.2047
 7436TIP3   OH243798   5.763   6.611  14.792  0.2708  0.0465 -0.6483
 7436TIP3    H143799   5.671   6.590  14.777  0.0700  0.3520  0.1364
 7436TIP3    H243800   5.795   6.642  14.707  0.4005 -2.6574 -1.7211
 7437TIP3   OH243801   4.871   4.166   0.954 -0.5447 -0.0170  0.3542
 7437TIP3    H143802   4.819   4.165   1.034 -0.7902  1.3977  0.2480
 7437TIP3    H243803   4.821   4.220   0.893  1.6971  2.8089  0.7769
 7438TIP3   OH243804   4.286   0.662  13.822 -0.0559  0.3948 -0.3293
 7438TIP3    H143805   4.282   0.580  13.871  0.9620 -1.1671 -2.7001
 7438TIP3    H243806   4.331   0.722  13.881  3.2604 -2.0679 -0.0480
 7439TIP3   OH243807   1.071   4.219   2.288  0.5794  0.7952  0.5553
 7439TIP3    H143808   1.022   4.160   2.346  0.4155 -0.3990 -0.7254
 7439TIP3    H243809   1.018   4.222   2.208  2.6865 -0.8043 -1.0261
 7440TIP3   OH243810   1.498   5.793   2.171 -0.2384 -0.3328  0.2254
 7440TIP3    H143811   1.504   5.706   2.132 -1.2068 -0.9436  1.3823
 7440TIP3    H243812   1.569   5.796   2.235  1.8182  0.9341 -1.9224
 7441TIP3   OH243813   5.619   4.257  14.899 -0.3258 -0.3740  0.2718
 7441TIP3    H143814   5.629   4.349  14.874  1.6923 -0.8172 -0.7192
 7441TIP3    H243815   5.571   4.260  14.982 -0.1996  1.5615  0.3171
 7442TIP3   OH243816   2.328   4.700  16.826  0.0774  0.2994  0.0495
 7442TIP3    H143817   2.260   4.759  16.859 -1.3810 -1.7054  0.8567
 7442TIP3    H243818   2.302   4.682  16.736 -0.7433 -0.7839  0.4820
 7443TIP3   OH243819   4.194   5.090   1.956 -0.2255  0.3419 -0.1235
 7443TIP3    H143820   4.162   5.180   1.943 -0.3392  0.5878  1.5748
 7443TIP3    H243821   4.140   5.056   2.027  0.7798 -0.5593  0.2289
 7444TIP3   OH243822   4.408   4.680   1.379  0.1504 -0.8109  0.5399
 7444TIP3    H143823   4.451   4.721   1.454  1.2226 -0.9982  0.0376
 7444TIP3    H243824   4.452   4.716   1.302 -2.0800  0.7403 -0.1284
 7445TIP3   OH243825   4.791   4.238  13.859 -0.1631  0.4456  0.0911
 7445TIP3    H143826   4.860   4.195  13.808  0.1151  0.5504  0.3700
 7445TIP3    H243827   4.734   4.168  13.888  0.5821  0.1884  0.9895
 7446TIP3   OH243828   5.293   2.109   5.572  0.3601 -0.0371  0.3137
 7446TIP3    H143829   5.317   2.199   5.549  5.1373 -1.5120 -1.7704
 7446TIP3    H243830   5.271   2.113   5.665 -0.5934  3.3550  0.0968
 7447TIP3   OH243831   2.815   5.205   1.722  0.1147 -0.1700  0.5185
 7447TIP3    H143832   2.724   5.192   1.694 -0.0871  2.1742 -0.0694
 7447TIP3    H243833   2.812   5.284   1.776  1.9570  0.4934 -0.2873
 7448TIP3   OH243834   2.974   0.535   4.381 -0.2971  0.0452  0.3409
 7448TIP3    H143835   2.970   0.444   4.412  0.7773 -0.1068  0.0657
 7448TIP3    H243836   2.888   0.572   4.404 -0.6818 -0.9848  0.6069
 7449TIP3   OH243837   2.707   3.836   6.591 -0.2368  0.3922  0.6817
 7449TIP3    H143838   2.652   3.767   6.555  0.8545 -0.7148  1.0589
 7449TIP3    H243839   2.762   3.864   6.518  1.0619 -0.9251  1.1310
 7450TIP3   OH243840   0.778   3.943  12.935 -0.1848  0.5176 -0.1620
 7450TIP3    H143841   0.783   3.875  13.002 -2.8423  0.5753  0.1866
 7450TIP3    H243842   0.699   3.923  12.885  1.3939  0.7899 -3.0061
 7451TIP3   OH243843   0.331   4.103   4.003  0.2943 -0.0580 -0.0168
 7451TIP3    H143844   0.418   4.066   4.014 -0.6015 -2.6016 -0.7372
 7451TIP3    H243845   0.282   4.035   3.955 -2.3813  0.7848  1.3331
 7452TIP3   OH243846   6.248   4.667  13.291 -0.1521 -0.1436 -0.7369
 7452TIP3    H143847   6.261   4.671  13.197 -0.3339 -0.1653 -0.7619
 7452TIP3    H243848   6.165   4.621  13.303 -0.2129  0.0046 -0.5718
 7453TIP3   OH243849   4.542   3.519  13.518 -0.1055 -0.0111  0.0660
 7453TIP3    H143850   4.595   3.443  13.542  3.3279  1.5719 -1.7196
 7453TIP3    H243851   4.498   3.494  13.437  1.5503  0.0621 -0.8876
 7454TIP3   OH243852   5.683   5.193   2.646  0.6207 -0.3957  0.1974
 7454TIP3    H143853   5.591   5.181   2.670  0.8803 -0.5812  1.1073
 7454TIP3    H243854   5.696   5.133   2.572  0.0798 -0.5566  0.2321
 7455TIP3   OH243855   5.528   3.353  12.306  0.5557 -0.4867 -0.4949
 7455TIP3    H143856   5.552   3.341  12.214  1.4392 -0.6268 -0.2529
 7455TIP3    H243857   5.442   3.396  12.303  0.0313 -1.5404 -1.3849
 7456TIP3   OH243858   5.674   3.641  15.703 -0.3712 -0.3166 -0.4102
 7456TIP3    H143859   5.758   3.600  15.722 -0.0838 -0.1022 -1.1780
 7456TIP3    H243860   5.638   3.592  15.629 -0.9891 -0.4960  0.0026
 7457TIP3   OH243861   0.721   6.624   2.395 -0.1023  0.3407 -0.3569
 7457TIP3    H143862   0.793   6.652   2.452 -1.2573  1.5502  0.5802
 7457TIP3    H243863   0.646   6.614   2.454 -0.5592 -1.6583 -1.1835
 7458TIP3   OH243864   3.233   6.160  12.378  0.3466 -0.4937 -0.0189
 7458TIP3    H143865   3.183   6.207  12.312  1.0018 -0.1263 -0.2628
 7458TIP3    H243866   3.284   6.096  12.329  0.3434 -0.6636  0.1973
 7459TIP3   OH243867   4.844   0.583   5.224 -0.3932  0.3124 -0.0332
 7459TIP3    H143868   4.861   0.664   5.178 -1.1396  1.6257  1.8820
 7459TIP3    H243869   4.928   0.560   5.264 -0.5204  1.0172  0.6761
 7460TIP3   OH243870   5.265   1.228   1.248  0.0914  0.1849 -0.6232
 7460TIP3    H143871   5.234   1.264   1.165 -0.5224  0.7395 -0.1683
 7460TIP3    H243872   5.330   1.290   1.279 -0.1558  0.3275 -0.3801
 7461TIP3   OH243873   1.000   4.919   1.818 -0.2639 -0.2195  0.1358
 7461TIP3    H143874   1.062   4.956   1.881  0.1515 -0.7225  0.0277
 7461TIP3    H243875   1.037   4.834   1.795 -1.3155 -0.8139  0.5546
 7462TIP3   OH243876   3.512   1.697   1.028  0.6744 -0.7054  0.3253
 7462TIP3    H143877   3.585   1.700   1.091  0.1601 -2.0728  1.0347
 7462TIP3    H243878   3.553   1.715   0.944  1.6940 -0.6007  0.8209
 7463TIP3   OH243879   2.273   5.660   5.618  0.2260 -0.6420 -0.9347
 7463TIP3    H143880   2.249   5.723   5.549  0.8418 -0.4528 -0.9845
 7463TIP3    H243881   2.344   5.609   5.579  0.3817 -0.7265 -0.5384
 7464TIP3   OH243882   3.815   6.594  16.231  0.2760 -0.3422  0.2666
 7464TIP3    H143883   3.814   6.501  16.210 -0.3415 -0.1434 -0.6892
 7464TIP3    H243884   3.771   6.601  16.315 -1.1429 -0.7711 -0.4136
 7465TIP3   OH243885   5.781   5.064   3.350 -0.2077  0.2192  0.1915
 7465TIP3    H143886   5.749   5.077   3.440  0.8606 -0.2405  0.6573
 7465TIP3    H243887   5.711   5.016   3.306 -0.8900  0.7429  0.6718
 7466TIP3   OH243888   5.942   0.795  16.137  0.1612 -0.2789  0.4811
 7466TIP3    H143889   5.987   0.726  16.185  0.8416  0.7042  1.2957
 7466TIP3    H243890   5.852   0.764  16.129 -0.0193 -0.4179  2.5520
 7467TIP3   OH243891   6.039   6.537  15.675 -0.2925  0.3741  0.0156
 7467TIP3    H143892   6.105   6.513  15.739  1.1301 -1.6169 -2.0643
 7467TIP3    H243893   6.088   6.571  15.600 -1.7993  1.2609 -0.6380
 7468TIP3   OH243894   6.054   2.930  13.593  0.0083 -0.1933  0.0887
 7468TIP3    H143895   5.973   2.963  13.555  0.5200 -0.6509 -1.4881
 7468TIP3    H243896   6.096   3.006  13.633  0.0940  0.6269 -1.4946
 7469TIP3   OH243897   1.613   2.064   4.535 -0.4519  0.5012 -0.1039
 7469TIP3    H143898   1.561   2.017   4.470  0.7085  1.0349 -1.4715
 7469TIP3    H243899   1.611   2.008   4.613 -0.4718 -1.0118 -1.1532
 7470TIP3   OH243900   0.325   0.581   3.234 -0.6937  0.4613 -0.0357
 7470TIP3    H143901   0.272   0.660   3.235 -0.3571  0.6892 -0.2566
 7470TIP3    H243902   0.270   0.515   3.277 -0.4618  1.1390  1.3460
 7471TIP3   OH243903   6.669   4.540   3.315  0.0048 -0.2012 -0.5901
 7471TIP3    H143904   6.683   4.630   3.284  0.0096  0.2153  0.5635
 7471TIP3    H243905   6.622   4.497   3.243 -0.0613  0.7437 -1.1330
 7472TIP3   OH243906   0.790   5.720   5.995  1.1427 -0.5336  0.2409
 7472TIP3    H143907   0.732   5.681   6.060  2.0739 -2.6087 -0.1151
 7472TIP3    H243908   0.731   5.750   5.926  0.1110  1.9082  2.0045
 7473TIP3   OH243909   3.690   5.565   0.922 -0.0617  0.0374  0.3862
 7473TIP3    H143910   3.619   5.502   0.931 -0.2207  0.2320  0.4996
 7473TIP3    H243911   3.702   5.601   1.010 -0.9696  1.2309  0.0550
 7474TIP3   OH243912   2.341   2.346   5.111 -0.5715 -0.5959  0.6695
 7474TIP3    H143913   2.289   2.345   5.030  1.3281 -0.4623 -0.6065
 7474TIP3    H243914   2.421   2.299   5.088  0.9230  1.2807  1.8422
 7475TIP3   OH243915   1.592   3.156   0.634  0.1026 -0.2897 -0.4947
 7475TIP3    H143916   1.515   3.209   0.614 -0.5301 -1.3130 -0.7857
 7475TIP3    H243917   1.585   3.079   0.578  0.9558 -0.7528  0.0045
 7476TIP3   OH243918   0.008   2.113  13.425 -0.3981  0.3148 -0.3763
 7476TIP3    H143919   0.036   2.077  13.509  1.3405 -0.6843 -1.3366
 7476TIP3    H243920  -0.076   2.070  13.406 -0.8271  0.5824  0.8270
 7477TIP3   OH243921   3.632   5.567   5.194  0.5465 -0.6446 -0.1747
 7477TIP3    H143922   3.540   5.554   5.217  0.9601 -2.6866  0.5209
 7477TIP3    H243923   3.666   5.621   5.266 -0.3168  1.1455 -1.0336
 7478TIP3   OH243924   6.227   5.356   2.485  0.6058  0.1442 -0.0342
 7478TIP3    H143925   6.182   5.296   2.425  0.2176  0.2980  0.0976
 7478TIP3    H243926   6.296   5.395   2.432  1.5746 -1.2272  0.1676
 7479TIP3   OH243927   5.352   1.873   4.696 -0.2818 -0.1335  0.6299
 7479TIP3    H143928   5.276   1.916   4.733  0.2043  0.5588  0.8430
 7479TIP3    H243929   5.364   1.795   4.750 -1.1422 -0.5266  0.2684
 7480TIP3   OH243930   5.897   1.260  14.802 -0.5101  0.2433 -0.1322
 7480TIP3    H143931   5.885   1.254  14.897 -1.5243 -1.1346 -0.3100
 7480TIP3    H243932   5.911   1.354  14.786 -1.2071  0.6296  1.2823
 7481TIP3   OH243933   0.068   5.953   3.908  0.0864 -0.1475 -0.2936
 7481TIP3    H143934   0.146   5.915   3.868  0.0934 -1.5291  0.9279
 7481TIP3    H243935   0.099   5.990   3.991 -0.4512 -0.1978 -0.0665
 7482TIP3   OH243936   2.873   2.667  12.718  1.0123 -0.0465  0.7316
 7482TIP3    H143937   2.885   2.610  12.794  2.3485  1.0056  1.3385
 7482TIP3    H243938   2.896   2.611  12.643  1.0014 -0.6862  1.1936
 7483TIP3   OH243939   5.599   3.136  17.083 -0.2204  0.2221 -0.3715
 7483TIP3    H143940   5.645   3.068  17.033 -0.9831 -1.8339  1.5695
 7483TIP3    H243941   5.544   3.179  17.018 -0.0336 -1.3052 -1.6135
 7484TIP3   OH243942   3.380   3.649  11.657  0.4650 -0.0051  0.1561
 7484TIP3    H143943   3.373   3.743  11.672 -0.3324 -0.2909  1.9047
 7484TIP3    H243944   3.409   3.640  11.566  0.3463  1.9118 -0.0962
 7485TIP3   OH243945   5.521   5.947   1.403  0.3914  0.1120 -0.5982
 7485TIP3    H143946   5.470   6.027   1.419  1.2258  0.4428  0.4938
 7485TIP3    H243947   5.582   5.942   1.476  0.2454 -1.6261 -0.5517
 7486TIP3   OH243948   5.787   6.066   4.058 -0.1550  0.3779  0.0389
 7486TIP3    H143949   5.814   6.082   3.968 -1.5870  1.4003 -0.2481
 7486TIP3    H243950   5.854   6.109   4.112 -1.1162  2.8733 -0.6339
 7487TIP3   OH243951   4.853   1.751   2.984  0.0377  0.4275 -0.1850
 7487TIP3    H143952   4.894   1.773   3.068  1.6808 -0.7057 -0.6371
 7487TIP3    H243953   4.865   1.830   2.931  0.7339  0.4774  0.0345
 7488TIP3   OH243954   5.512   0.773   5.711 -0.0814  0.0215 -0.0047
 7488TIP3    H143955   5.569   0.699   5.734  0.6518  0.0129 -1.7157
 7488TIP3    H243956   5.542   0.801   5.625 -1.1495  1.5542  0.0758
 7489TIP3   OH243957   2.685   5.134   3.738 -0.8462 -0.5361 -0.0815
 7489TIP3    H143958   2.638   5.055   3.712  1.4030 -1.4563 -1.7501
 7489TIP3    H243959   2.670   5.195   3.666 -2.0939  0.3791  0.9263
 7490TIP3   OH243960   0.458   4.967   5.533  0.4605  0.3403 -0.1104
 7490TIP3    H143961   0.446   4.878   5.501  1.1327  0.3429 -0.3769
 7490TIP3    H243962   0.478   4.957   5.626 -0.2998  0.2679  0.0552
 7491TIP3   OH243963   0.247   6.132  14.459 -0.0491 -0.1883 -0.6931
 7491TIP3    H143964   0.155   6.156  14.443 -0.6211 -1.1119  1.0060
 7491TIP3    H243965   0.294   6.168  14.384 -1.9636 -0.7000 -2.2228
 7492TIP3   OH243966   3.357   2.249  13.831 -0.5655 -0.3230  0.6424
 7492TIP3    H143967   3.429   2.218  13.885 -0.2042 -0.3216  0.1706
 7492TIP3    H243968   3.374   2.211  13.744 -0.4338  0.6921  0.2078
 7493TIP3   OH243969   5.822   2.006   6.789 -0.2197 -0.6735  0.6856
 7493TIP3    H143970   5.857   2.027   6.876 -2.0305 -2.4967  1.9665
 7493TIP3    H243971   5.761   2.078   6.769  1.6390  0.7747 -0.0462
 7494TIP3   OH243972   5.788   6.419   1.172  0.1201 -0.1715 -0.0449
 7494TIP3    H143973   5.796   6.388   1.262  0.7381 -0.9616 -0.3624
 7494TIP3    H243974   5.740   6.351   1.127  1.8954 -0.9622 -0.8548
 7495TIP3   OH243975   5.248   5.979   1.355  0.0698  0.4615  0.1958
 7495TIP3    H143976   5.247   5.892   1.395  1.3022  0.1387 -0.4195
 7495TIP3    H243977   5.187   5.972   1.281 -0.5979  0.4359  0.7364
 7496TIP3   OH243978   6.634   6.112  11.381 -0.3254 -0.1462  0.4216
 7496TIP3    H143979   6.649   6.069  11.297  1.0631 -0.3443  0.7462
 7496TIP3    H243980   6.641   6.205  11.362 -0.4403 -0.1757  0.2352
 7497TIP3   OH243981   1.027   2.183  16.254 -0.7413  0.4912  0.0441
 7497TIP3    H143982   1.058   2.115  16.194 -1.7050  0.4636 -0.4418
 7497TIP3    H243983   1.015   2.138  16.337  1.8012  0.7842  0.6563
 7498TIP3   OH243984   0.088   2.314  14.368 -0.0266  0.7817 -0.1207
 7498TIP3    H143985  -0.006   2.307  14.354 -0.0148 -0.3736  0.2969
 7498TIP3    H243986   0.126   2.240  14.321  0.2884 -1.2440  2.9939
 7499TIP3   OH243987   5.745   2.137   5.325 -0.6837 -0.1590  0.4746
 7499TIP3    H143988   5.807   2.187   5.272  0.3102 -2.3198 -0.5080
 7499TIP3    H243989   5.677   2.109   5.264 -2.0973  1.2378  1.3291
 7500TIP3   OH243990   1.482   5.947  13.003 -0.4087 -0.4077  0.3956
 7500TIP3    H143991   1.564   5.948  13.051 -0.2148  0.2752  0.0621
 7500TIP3    H243992   1.445   5.860  13.020  0.0990 -0.5073  1.0141
 7501TIP3   OH243993   2.052   5.727  13.514 -0.5778  0.2297  0.0069
 7501TIP3    H143994   2.032   5.759  13.426 -2.3624 -1.6853 -0.3448
 7501TIP3    H243995   1.974   5.748  13.566 -0.7609 -1.2112  0.3672
 7502TIP3   OH243996   1.960   3.365  13.031  0.0191  0.1461  0.1309
 7502TIP3    H143997   1.947   3.437  12.970  0.9992  0.6554  0.4966
 7502TIP3    H243998   1.920   3.394  13.113 -0.8220 -0.3146 -0.1078
 7503TIP3   OH243999   1.568   4.302   0.821 -0.2125 -0.4820  0.0699
 7503TIP3    H144000   1.481   4.326   0.854  0.4501  1.0910  0.8243
 7503TIP3    H244001   1.614   4.270   0.899 -0.6423 -3.1310 -0.6734
 7504TIP3   OH244002   5.443   3.618  12.873 -0.2777  0.2122 -0.0304
 7504TIP3    H144003   5.430   3.551  12.939  0.2518  0.5176  0.3846
 7504TIP3    H244004   5.537   3.634  12.872 -0.3546  0.6683 -0.3995
 7505TIP3   OH244005   3.976   1.029   1.130 -0.2708  0.2209 -0.1481
 7505TIP3    H144006   3.932   0.944   1.128 -0.2580  0.2181 -1.0049
 7505TIP3    H244007   4.055   1.014   1.181 -1.5572  0.3903  2.0052
 7506TIP3   OH244008   1.425   6.128   2.333 -0.2515  0.6117 -0.0013
 7506TIP3    H144009   1.504   6.114   2.385  0.5025  3.8260 -0.0685
 7506TIP3    H244010   1.455   6.125   2.243 -0.4099  0.8207 -0.0605
 7507TIP3   OH244011   2.486   3.087   4.133 -0.1752 -0.1844  0.0653
 7507TIP3    H144012   2.456   2.999   4.155  1.4086 -1.6562 -3.0000
 7507TIP3    H244013   2.564   3.074   4.079 -0.4220  3.0404 -1.3731
 7508TIP3   OH244014   3.379   3.262   2.697 -0.5181 -0.4515  0.0816
 7508TIP3    H144015   3.455   3.248   2.641 -1.2395 -1.0164 -0.7586
 7508TIP3    H244016   3.375   3.184   2.752  1.5158  1.0113  2.5957
 7509TIP3   OH244017   4.079   6.368   3.981  0.6621  0.5637  0.1907
 7509TIP3    H144018   4.138   6.375   3.906 -0.8033 -1.5359 -1.2827
 7509TIP3    H244019   4.134   6.387   4.057  3.0495 -0.4801 -1.1622
 7510TIP3   OH244020   2.572   0.460  16.567  0.4679  0.4922  0.3772
 7510TIP3    H144021   2.518   0.535  16.542 -1.2112 -0.3179  1.3765
 7510TIP3    H244022   2.549   0.392  16.503  1.4623  0.5879 -0.1036
 7511TIP3   OH244023   5.195   4.765  16.055  0.0230 -0.7605  0.1516
 7511TIP3    H144024   5.228   4.829  16.118 -1.8632  0.3794  0.0562
 7511TIP3    H244025   5.115   4.732  16.094 -2.8015  2.0365 -2.6858
 7512TIP3   OH244026   3.969   0.783  17.445 -0.2154 -0.0835 -0.2837
 7512TIP3    H144027   4.008   0.713  17.392 -0.9812  0.4186 -1.5576
 7512TIP3    H244028   4.044   0.831  17.481  0.3127 -0.9724 -0.1957
 7513TIP3   OH244029   0.800   1.725   0.158 -0.5387 -0.0459 -0.4477
 7513TIP3    H144030   0.864   1.655   0.164 -0.5622 -0.1593 -1.3402
 7513TIP3    H244031   0.772   1.740   0.248  0.5128 -0.2004 -0.0792
 7514TIP3   OH244032   2.812   4.202  13.189  0.0028 -0.2046 -0.9489
 7514TIP3    H144033   2.836   4.114  13.159 -1.2694 -0.4393 -1.3410
 7514TIP3    H244034   2.737   4.227  13.135 -1.0571  0.1972  0.6138
 7515TIP3   OH244035   4.094   4.617   4.614 -0.1420  0.0536 -0.0270
 7515TIP3    H144036   4.021   4.680   4.619  0.1094  0.4658 -1.2164
 7515TIP3    H244037   4.102   4.584   4.703 -0.2304  1.7779  0.6720
 7516TIP3   OH244038   3.814   3.561   1.470 -0.2474  0.5311  0.2417
 7516TIP3    H144039   3.854   3.616   1.538  0.1363 -0.4931  0.8760
 7516TIP3    H244040   3.751   3.506   1.518 -1.4874  1.2220 -0.5602
 7517TIP3   OH244041   4.415   5.872  17.340  0.3618  0.2170 -0.1622
 7517TIP3    H144042   4.414   5.792  17.393  0.6676  0.1763 -0.2159
 7517TIP3    H244043   4.413   5.943  17.404 -0.4514  0.1763 -0.1210
 7518TIP3   OH244044   2.094   1.707  17.105  0.3037 -0.0202  0.2314
 7518TIP3    H144045   2.038   1.729  17.031  1.1601  0.6147 -0.2580
 7518TIP3    H244046   2.133   1.623  17.082  1.0767  0.4865 -0.3689
 7519TIP3   OH244047   5.840   3.339   6.363 -0.2794 -0.3375  0.3809
 7519TIP3    H144048   5.791   3.412   6.401 -0.3878 -0.0968 -0.2068
 7519TIP3    H244049   5.910   3.322   6.425 -0.5739 -0.0896  0.7894
 7520TIP3   OH244050   2.310   4.083  13.325  0.1417 -0.1702  0.0707
 7520TIP3    H144051   2.268   4.054  13.406  1.6387 -0.8515  0.6528
 7520TIP3    H244052   2.397   4.114  13.354  0.5221  0.0193 -1.2231
 7521TIP3   OH244053   0.258   1.768   6.753  0.5839 -0.1755 -0.1906
 7521TIP3    H144054   0.297   1.694   6.706  1.4730 -0.5592  1.0825
 7521TIP3    H244055   0.296   1.846   6.712  0.0063 -0.4364 -1.2299
 7522TIP3   OH244056   3.912   4.260   0.647  0.4792  0.3320  0.2545
 7522TIP3    H144057   3.850   4.250   0.719 -0.1156  0.8399 -0.1756
 7522TIP3    H244058   3.998   4.251   0.688  0.1423 -2.0823  0.6157
 7523TIP3   OH244059   3.554   4.129   6.765  0.7182 -0.7465 -0.1087
 7523TIP3    H144060   3.589   4.041   6.747  1.0555 -0.5329 -0.5057
 7523TIP3    H244061   3.574   4.179   6.686  0.4879 -0.3230  0.1031
 7524TIP3   OH244062   3.229   2.754   5.031  0.1571  0.3009  0.3658
 7524TIP3    H144063   3.248   2.821   4.964 -1.8409 -0.6080 -1.2047
 7524TIP3    H244064   3.210   2.804   5.110  0.9291  1.4863 -0.1626
 7525TIP3   OH244065   0.659   2.524  11.422 -0.0650  0.2050 -0.0576
 7525TIP3    H144066   0.620   2.458  11.364  0.8977 -0.1520 -0.3134
 7525TIP3    H244067   0.739   2.552  11.377  2.4673 -2.3474  2.4368
 7526TIP3   OH244068   6.350   5.862  11.341 -0.0021 -0.4222  0.0096
 7526TIP3    H144069   6.272   5.857  11.286  0.0329 -0.3594 -0.0451
 7526TIP3    H244070   6.418   5.817  11.292 -0.1717 -1.0513  0.3457
 7527TIP3   OH244071   2.630   4.697   4.535 -0.0933  0.1866  0.0354
 7527TIP3    H144072   2.697   4.735   4.477  0.5905 -0.4247  0.4160
 7527TIP3    H244073   2.617   4.763   4.603  0.4614  0.1127  0.2150
 7528TIP3   OH244074   6.235   1.922   2.357 -0.4478  0.1659 -0.2419
 7528TIP3    H144075   6.267   1.887   2.440 -0.7881  2.9472  1.1879
 7528TIP3    H244076   6.314   1.949   2.311 -0.3554  0.9618  0.3561
 7529TIP3   OH244077   4.666   0.723   1.474 -0.8369  0.7979 -0.4984
 7529TIP3    H144078   4.639   0.814   1.489 -0.0831  0.7858  1.1413
 7529TIP3    H244079   4.588   0.681   1.437 -1.2898  2.0311 -0.9978
 7530TIP3   OH244080   5.289   5.211   5.853 -0.0436  0.5463  0.1761
 7530TIP3    H144081   5.211   5.158   5.839 -0.0855  0.3029  1.2419
 7530TIP3    H244082   5.361   5.158   5.821 -0.2221  0.3978  0.0202
 7531TIP3   OH244083   0.578   5.218   4.597  0.4511 -0.2395 -0.1337
 7531TIP3    H144084   0.584   5.138   4.544  1.9001 -0.1494 -0.1473
 7531TIP3    H244085   0.566   5.186   4.686  0.2901 -0.4529 -0.2309
 7532TIP3   OH244086   4.793   0.013  14.891  0.0808 -0.4216  0.8815
 7532TIP3    H144087   4.768  -0.053  14.827  1.5660 -1.2847  1.1516
 7532TIP3    H244088   4.858   0.067  14.845  1.6909 -1.4758  1.8323
 7533TIP3   OH244089   4.743   0.411   4.444  0.7105  0.2764  0.0720
 7533TIP3    H144090   4.659   0.439   4.480  1.5081  1.2664  1.2118
 7533TIP3    H244091   4.768   0.336   4.497  0.0899 -0.6835 -0.9367
 7534TIP3   OH244092   1.551   1.131   4.648  0.1173 -0.1750 -0.1561
 7534TIP3    H144093   1.528   1.111   4.738  0.2108 -0.1163 -0.1194
 7534TIP3    H244094   1.477   1.098   4.596 -0.4740  0.8316  0.0303
 7535TIP3   OH244095   4.400   4.746   2.491 -0.7997 -0.4061  0.2543
 7535TIP3    H144096   4.458   4.688   2.540 -1.8417 -0.3168  1.6512
 7535TIP3    H244097   4.314   4.703   2.495 -1.1832  0.2818 -0.3380
 7536TIP3   OH244098   2.330   5.022   5.926 -0.1736  0.0682 -0.6623
 7536TIP3    H144099   2.399   5.088   5.933  0.6475 -0.7601 -0.7525
 7536TIP3    H244100   2.254   5.062   5.969  0.4688  0.8503 -0.2239
 7537TIP3   OH244101   2.566   0.475   2.002  0.2194 -0.0918  0.1895
 7537TIP3    H144102   2.590   0.512   2.086  0.4674 -0.0077  0.0819
 7537TIP3    H244103   2.630   0.511   1.940  0.3186 -0.5123  0.0429
 7538TIP3   OH244104   1.996   2.520  12.847 -0.6312  0.3427 -0.2384
 7538TIP3    H144105   1.996   2.611  12.879 -2.0703  0.5406 -0.7222
 7538TIP3    H244106   2.064   2.477  12.899 -1.8499  1.0129  2.0580
 7539TIP3   OH244107   0.177   1.131  13.366  0.4749 -0.0849  0.4388
 7539TIP3    H144108   0.248   1.113  13.428  1.2697  0.4611 -0.2737
 7539TIP3    H244109   0.206   1.209  13.319  0.5022 -1.1549 -1.4585
 7540TIP3   OH244110   5.747   6.232  16.380 -0.7894  0.2942  0.4059
 7540TIP3    H144111   5.723   6.148  16.341  0.1177  0.4517 -0.5541
 7540TIP3    H244112   5.748   6.293  16.306  1.4431  0.5051  0.5302
 7541TIP3   OH244113   1.709   1.468   2.610 -0.2263 -0.2725 -0.1566
 7541TIP3    H144114   1.713   1.456   2.515  0.7288 -1.4481  0.0081
 7541TIP3    H244115   1.620   1.440   2.633 -0.9871  1.4175 -0.8452
 7542TIP3   OH244116   0.533   5.731  12.844 -0.0428  0.1187 -0.7927
 7542TIP3    H144117   0.494   5.768  12.923  0.5529 -0.8756  0.0016
 7542TIP3    H244118   0.627   5.727  12.864  0.0584 -0.5562 -1.3697
 7543TIP3   OH244119   3.051   6.339   0.248 -0.8201 -0.1626  0.3977
 7543TIP3    H144120   3.076   6.268   0.190 -0.7424 -0.6515  1.0248
 7543TIP3    H244121   3.114   6.409   0.230 -0.0920 -0.7284  0.6962
 7544TIP3   OH244122   4.726   5.611   2.344  0.0939 -0.0246 -0.2705
 7544TIP3    H144123   4.679   5.543   2.296 -0.1607  1.3346 -2.0629
 7544TIP3    H244124   4.666   5.638   2.413 -0.8032  0.0151 -1.0370
 7545TIP3   OH244125   0.951   2.338  12.652 -0.1669  0.1552  0.0096
 7545TIP3    H144126   1.034   2.290  12.649 -0.7324 -1.0349  2.0146
 7545TIP3    H244127   0.905   2.302  12.728 -2.0824  1.5304 -0.4390
 7546TIP3   OH244128   1.292   3.257  11.845 -0.2448  0.4557 -0.5236
 7546TIP3    H144129   1.336   3.179  11.811 -0.6021  0.0046  0.0463
 7546TIP3    H244130   1.206   3.227  11.874  0.5545  0.5062  2.1448
 7547TIP3   OH244131   4.286   5.835   5.859 -0.2475  0.2235 -0.8390
 7547TIP3    H144132   4.239   5.905   5.904 -0.5645 -0.5141  0.0164
 7547TIP3    H244133   4.254   5.839   5.769 -3.6227 -1.5077  0.0805
 7548TIP3   OH244134   3.399   4.053   5.580 -0.4912 -0.3820  0.5651
 7548TIP3    H144135   3.324   4.047   5.639 -1.0864  0.4841 -0.0848
 7548TIP3    H244136   3.471   4.014   5.629 -1.0240  0.1121  1.7768
 7549TIP3   OH244137   3.524   6.582   1.351  0.5001  0.7621 -0.4384
 7549TIP3    H144138   3.572   6.538   1.281  0.5232 -0.3501  0.2462
 7549TIP3    H244139   3.454   6.629   1.306  0.1088 -0.4623 -1.1761
 7550TIP3   OH244140   4.329   4.985  12.948 -0.4088  0.1420 -0.6029
 7550TIP3    H144141   4.418   4.969  12.915  0.1688 -0.6878  1.2124
 7550TIP3    H244142   4.294   5.052  12.889  0.8457 -0.5973 -2.2931
 7551TIP3   OH244143   0.014   1.824  17.331  0.4165 -0.1460  0.2770
 7551TIP3    H144144   0.010   1.920  17.332  0.7859 -0.1106 -0.5842
 7551TIP3    H244145  -0.073   1.796  17.360 -0.2869  0.4716 -1.1206
 7552TIP3   OH244146   6.713   5.138   0.961  0.0812 -0.1994 -0.4417
 7552TIP3    H144147   6.805   5.154   0.939  0.1097 -1.3444 -1.2675
 7552TIP3    H244148   6.702   5.044   0.949 -0.6418 -0.4731  1.8527
 7553TIP3   OH244149   0.798   1.586   3.203 -0.9537  0.9303 -0.2837
 7553TIP3    H144150   0.759   1.499   3.189 -0.7785  0.6973  0.5655
 7553TIP3    H244151   0.785   1.602   3.296  1.5339  0.5435  0.2032
 7554TIP3   OH244152   1.418   5.971  13.616 -0.4582 -0.3509  0.0944
 7554TIP3    H144153   1.391   6.021  13.539  1.3171 -1.2767 -1.1914
 7554TIP3    H244154   1.400   6.030  13.690 -5.6572 -0.7447 -0.4643
 7555TIP3   OH244155   5.334   5.461  11.927  0.6635  0.2860 -0.6066
 7555TIP3    H144156   5.282   5.394  11.971  0.1072  1.7472  1.0722
 7555TIP3    H244157   5.310   5.454  11.835 -1.9327  0.3786 -0.0127
 7556TIP3   OH244158   5.699   2.506  16.823 -0.4069 -0.3240 -0.0913
 7556TIP3    H144159   5.714   2.426  16.872 -1.4174 -0.7213 -0.4075
 7556TIP3    H244160   5.773   2.562  16.845  1.1033 -1.8737 -0.9824
 7557TIP3   OH244161   3.743   4.426   2.821 -0.0697  0.3366 -0.2672
 7557TIP3    H144162   3.713   4.463   2.738  1.2237 -0.6911 -1.2266
 7557TIP3    H244163   3.834   4.455   2.828  0.1293 -0.4166  0.3069
 7558TIP3   OH244164   5.717   3.976   2.999  0.6987  0.0596 -0.0755
 7558TIP3    H144165   5.802   3.983   2.955 -0.1435  2.0691 -1.5214
 7558TIP3    H244166   5.671   3.906   2.953  0.7698  0.4381 -0.7205
 7559TIP3   OH244167   0.682   1.307   0.527 -0.3357 -0.1982 -0.1123
 7559TIP3    H144168   0.622   1.263   0.468  0.1542  0.1138 -0.8678
 7559TIP3    H244169   0.721   1.237   0.579 -1.2663 -0.4086  0.3123
 7560TIP3   OH244170   3.597   3.770   2.160 -0.4752  0.5325  0.4163
 7560TIP3    H144171   3.661   3.831   2.124  0.2228 -0.2821  0.2303
 7560TIP3    H244172   3.589   3.702   2.093 -0.3878 -0.1511  1.0800
 7561TIP3   OH244173   0.215   0.372  17.632 -0.2594  0.6223  0.1139
 7561TIP3    H144174   0.232   0.347  17.723  1.4299  2.1409  0.2707
 7561TIP3    H244175   0.195   0.290  17.588  0.4494 -0.3531  1.5323
 7562TIP3   OH244176   3.587   4.458   2.197 -0.0897  0.5956  0.1917
 7562TIP3    H144177   3.618   4.490   2.282 -0.0018 -0.2677  0.4906
 7562TIP3    H244178   3.517   4.519   2.172 -1.2628 -0.0865  1.6629
 7563TIP3   OH244179   0.852   0.697  17.481  0.4881 -0.0749  0.0172
 7563TIP3    H144180   0.867   0.641  17.557  1.7507 -0.0012 -0.1499
 7563TIP3    H244181   0.774   0.661  17.439 -1.5790  1.1855  2.4913
 7564TIP3   OH244182   3.610   3.414  15.119  0.3850 -0.0981 -0.7590
 7564TIP3    H144183   3.644   3.503  15.113  0.9580 -0.4070 -3.7547
 7564TIP3    H244184   3.574   3.396  15.032 -1.5298 -2.1223  0.3447
 7565TIP3   OH244185   5.100   4.483   2.248  0.7240 -0.0328 -0.1341
 7565TIP3    H144186   5.159   4.488   2.324  0.0206 -0.1473  0.4240
 7565TIP3    H244187   5.145   4.533   2.180  1.7772 -0.6691  0.0748
 7566TIP3   OH244188   3.092   1.955   0.134  0.3701 -0.4716  0.0502
 7566TIP3    H144189   3.059   1.871   0.167  2.0606 -1.8649 -1.6149
 7566TIP3    H244190   3.152   1.985   0.202 -1.1840  0.0901  1.2409
 7567TIP3   OH244191   1.902   5.309  13.628 -0.1864  0.5012  0.3365
 7567TIP3    H144192   1.883   5.228  13.580  1.1168  0.1640  0.3624
 7567TIP3    H244193   1.981   5.344  13.587 -0.9459  1.9931  0.0590
 7568TIP3   OH244194   3.361   4.533  17.143  0.5500  0.3947 -0.0838
 7568TIP3    H144195   3.382   4.497  17.229  1.6950  1.0543 -0.0619
 7568TIP3    H244196   3.326   4.620  17.162 -1.0901 -0.2006 -0.2022
 7569TIP3   OH244197   4.704   6.315   2.805  0.2324  0.2301 -0.3455
 7569TIP3    H144198   4.726   6.316   2.898 -0.4519  2.6408 -0.1379
 7569TIP3    H244199   4.759   6.382   2.767 -1.0453  0.8111 -1.2466
 7570TIP3   OH244200   2.672   3.982  13.415  0.1298  0.5929  0.0202
 7570TIP3    H144201   2.723   3.923  13.360  0.4530  0.8928 -0.0061
 7570TIP3    H244202   2.622   3.924  13.472  0.1217  0.2884 -0.2927
 7571TIP3   OH244203   0.345   0.612   4.792  0.0405 -0.1925  0.3543
 7571TIP3    H144204   0.438   0.632   4.800  0.5861 -2.1844 -0.3824
 7571TIP3    H244205   0.337   0.571   4.706 -2.1233  2.8143 -1.0518
 7572TIP3   OH244206   3.080   5.896  15.547  0.2504  0.0133  0.2802
 7572TIP3    H144207   3.140   5.936  15.610 -1.6619  1.0246  1.5730
 7572TIP3    H244208   3.097   5.943  15.465  0.0422  1.5108  1.0584
 7573TIP3   OH244209   3.047   0.565  13.497  0.1045 -0.4722  0.0148
 7573TIP3    H144210   3.028   0.655  13.471 -2.2251 -1.1190 -0.8649
 7573TIP3    H244211   3.069   0.520  13.415  0.9616 -0.7777  0.4018
 7574TIP3   OH244212   0.646   4.865   3.616  0.3269  0.8045  0.4768
 7574TIP3    H144213   0.586   4.928   3.574  1.0219  2.0085  1.2400
 7574TIP3    H244214   0.733   4.898   3.597  0.7122  0.0497  0.8775
 7575TIP3   OH244215   4.939   2.610   4.283  0.5741  0.2995 -0.2626
 7575TIP3    H144216   4.992   2.562   4.347 -0.2029 -1.0050 -0.5508
 7575TIP3    H244217   4.994   2.683   4.256  1.8387 -0.4567  0.1628
 7576TIP3   OH244218   5.181   6.099  15.469 -0.1409 -0.5574  0.1433
 7576TIP3    H144219   5.253   6.126  15.411  0.9951 -2.0288  0.8184
 7576TIP3    H244220   5.128   6.041  15.415  1.1928 -2.3282  0.6581
 7577TIP3   OH244221   2.682   5.061  17.111 -0.7145  0.2139  0.6564
 7577TIP3    H144222   2.755   5.108  17.071 -1.1315 -0.6272 -1.1976
 7577TIP3    H244223   2.606   5.115  17.094 -0.9182 -0.2164  0.1911
 7578TIP3   OH244224   6.488   3.649  11.968 -0.1241  0.2584  0.4763
 7578TIP3    H144225   6.573   3.691  11.958 -0.2139  0.0664 -1.5689
 7578TIP3    H244226   6.472   3.649  12.063  1.9628  0.6152  0.8842
 7579TIP3   OH244227   2.603   1.859   4.656  0.0170 -0.0692  0.3747
 7579TIP3    H144228   2.535   1.796   4.680  1.8039 -1.6628  1.6433
 7579TIP3    H244229   2.648   1.818   4.582 -0.1900  0.8023 -0.2408
 7580TIP3   OH244230   6.299   2.954   4.426 -0.0217 -0.2206 -0.4267
 7580TIP3    H144231   6.327   2.967   4.335  0.8682 -0.8099 -0.2449
 7580TIP3    H244232   6.363   2.893   4.463 -0.9526 -0.7909  0.3102
 7581TIP3   OH244233   4.989   5.831   0.221 -0.1580 -0.5606  0.5936
 7581TIP3    H144234   4.910   5.786   0.192  1.0899 -3.2068  1.0080
 7581TIP3    H244235   5.050   5.823   0.148  0.0657  0.6640  0.6151
 7582TIP3   OH244236   5.910   0.800  12.186  0.5035  0.0215 -0.8765
 7582TIP3    H144237   5.926   0.792  12.091  0.3846 -1.1685 -0.8131
 7582TIP3    H244238   5.906   0.710  12.217  2.7073  0.3590  0.6493
 7583TIP3   OH244239   5.950   1.558   1.806 -0.3505  0.1059  0.0209
 7583TIP3    H144240   6.010   1.483   1.802 -0.0814  0.3455 -0.5386
 7583TIP3    H244241   5.875   1.526   1.856  0.0566 -0.3285  0.3610
 7584TIP3   OH244242   3.574   4.247   0.913 -0.1565  0.2328  0.1348
 7584TIP3    H144243   3.578   4.174   0.975  0.2175 -1.3293 -1.6312
 7584TIP3    H244244   3.653   4.298   0.929  1.4701 -1.8179 -0.9352
 7585TIP3   OH244245   6.688   3.349   0.930  0.0213  0.0934 -0.2314
 7585TIP3    H144246   6.730   3.385   1.008 -1.8117  1.0409  0.3789
 7585TIP3    H244247   6.755   3.353   0.862  0.9024  1.5661  0.6695
 7586TIP3   OH244248   0.437   0.759  16.262  0.1969  0.1931 -0.1971
 7586TIP3    H144249   0.497   0.720  16.325 -0.2565  0.1348  0.2004
 7586TIP3    H244250   0.419   0.688  16.199 -0.3404 -0.1420  0.3229
 7587TIP3   OH244251   4.969   3.879   2.063  0.1095  0.5006 -0.2037
 7587TIP3    H144252   4.935   3.789   2.059 -0.9097  0.8714 -0.3458
 7587TIP3    H244253   4.890   3.933   2.069  0.7056  1.4043 -0.4116
 7588TIP3   OH244254   2.694   5.725   2.059 -0.3840 -0.6107  0.3614
 7588TIP3    H144255   2.746   5.804   2.076 -0.6835 -0.6996  1.7715
 7588TIP3    H244256   2.605   5.757   2.047 -0.2796 -0.6118 -0.4600
 7589TIP3   OH244257   4.386   0.739   4.837  0.9538  0.3170 -0.3570
 7589TIP3    H144258   4.443   0.754   4.761 -0.2913  0.9608 -1.1947
 7589TIP3    H244259   4.400   0.647   4.859  2.8715  0.6429 -0.0507
 7590TIP3   OH244260   4.652   4.840  12.022 -0.4254 -0.2992 -0.1544
 7590TIP3    H144261   4.727   4.786  12.047  0.1676  0.8101  0.5338
 7590TIP3    H244262   4.668   4.861  11.929 -0.8279 -1.5336 -0.5221
 7591TIP3   OH244263   3.412   3.602   1.841  0.7220  0.0324  0.0819
 7591TIP3    H144264   3.353   3.636   1.908  1.1142  2.4852 -0.7265
 7591TIP3    H244265   3.383   3.644   1.760  0.1721 -2.9369 -1.4027
 7592TIP3   OH244266   0.557   3.494  13.174  0.8827 -0.2233  0.7740
 7592TIP3    H144267   0.507   3.532  13.102  1.5356 -2.0898 -0.7534
 7592TIP3    H244268   0.498   3.429  13.213  0.2761  1.2601  2.4447
 7593TIP3   OH244269   6.452   1.901   2.188  0.1484 -0.2198  0.5553
 7593TIP3    H144270   6.515   1.895   2.260  0.4056 -2.0765  0.2405
 7593TIP3    H244271   6.429   1.810   2.170 -0.1125  0.2210 -1.5297
 7594TIP3   OH244272   3.019   6.660  16.871 -0.0233 -0.2583  0.5356
 7594TIP3    H144273   2.995   6.581  16.821  0.0419  0.3266 -0.4386
 7594TIP3    H244274   3.095   6.634  16.922 -0.2479 -0.9480  0.5313
 7595TIP3   OH244275   0.210   6.186  13.278 -0.1259 -0.0167 -0.3222
 7595TIP3    H144276   0.288   6.222  13.320  0.3093 -0.4744 -0.7217
 7595TIP3    H244277   0.196   6.241  13.201 -0.2457  0.1162 -0.2054
 7596TIP3   OH244278   6.406   3.821   4.656  0.1741  0.1583  0.3476
 7596TIP3    H144279   6.377   3.789   4.570 -1.2840 -0.3823  1.0071
 7596TIP3    H244280   6.437   3.910   4.639 -0.3028  0.1398 -0.7018
 7597TIP3   OH244281   1.057   6.575   3.657  0.6605 -0.2435  0.0472
 7597TIP3    H144282   1.001   6.628   3.715  1.9640  1.7251 -0.3687
 7597TIP3    H244283   1.146   6.590   3.690  1.4309  0.7803 -2.2406
 7598TIP3   OH244284   4.576   5.190  12.665 -0.0061 -0.5672 -0.4700
 7598TIP3    H144285   4.502   5.249  12.677 -1.0004 -1.7451 -0.5548
 7598TIP3    H244286   4.612   5.177  12.752 -0.0699 -0.1879 -0.3882
 7599TIP3   OH244287   4.908   1.889  13.526  0.1359 -0.0755 -0.3055
 7599TIP3    H144288   4.943   1.917  13.442  0.2688  2.0746  0.4265
 7599TIP3    H244289   4.821   1.927  13.530  0.5039  0.7043  0.9252
 7600TIP3   OH244290   2.041   1.168   6.276 -0.0375  0.3128  0.2485
 7600TIP3    H144291   2.005   1.079   6.273 -1.6734  0.9791 -1.8034
 7600TIP3    H244292   2.081   1.181   6.191  0.4627  1.4573  0.6333
 7601TIP3   OH244293   0.959   6.664  15.674 -0.1299  0.5082  0.5933
 7601TIP3    H144294   1.027   6.730  15.660  1.1059 -0.2048  2.7046
 7601TIP3    H244295   0.895   6.681  15.605  0.3887  3.5547  0.6865
 7602TIP3   OH244296   1.113   3.056  14.007 -0.0261 -0.3442  0.0523
 7602TIP3    H144297   1.202   3.026  14.023  0.1025 -0.3535 -0.6542
 7602TIP3    H244298   1.123   3.133  13.951 -0.3860  0.6016  1.2356
 7603TIP3   OH244299   1.719   6.588  14.231 -0.5605  0.0723  0.0024
 7603TIP3    H144300   1.738   6.497  14.252 -2.1030 -0.3407 -0.2848
 7603TIP3    H244301   1.646   6.612  14.288  0.1290  1.2933  0.4100
 7604TIP3   OH244302   0.291   5.824   0.492 -0.1912 -0.3943  0.4324
 7604TIP3    H144303   0.275   5.766   0.566 -0.5786 -0.8829 -0.0240
 7604TIP3    H244304   0.209   5.822   0.442 -0.0148  0.1065  0.1151
 7605TIP3   OH244305   2.808   3.617   1.349 -0.4132 -0.6799 -0.6046
 7605TIP3    H144306   2.876   3.651   1.406 -1.9799 -0.9687  1.5651
 7605TIP3    H244307   2.850   3.607   1.264  1.4538  1.7926 -0.0586
 7606TIP3   OH244308   0.026   2.080   2.948  0.7080  0.4731  0.0592
 7606TIP3    H144309  -0.021   2.001   2.921 -0.2245  0.8435  0.5677
 7606TIP3    H244310   0.006   2.089   3.041  0.9852  1.1892  0.0538
 7607TIP3   OH244311   0.427   1.157   0.998 -0.0322 -0.6511  0.6329
 7607TIP3    H144312   0.369   1.228   1.024  0.9068  0.0060  0.9922
 7607TIP3    H244313   0.445   1.109   1.079 -0.4089 -1.1145  0.4475
 7608TIP3   OH244314   5.253   4.953   0.717 -0.5276  0.1717 -0.6553
 7608TIP3    H144315   5.169   4.995   0.700  0.9061  3.2394 -0.9439
 7608TIP3    H244316   5.310   4.983   0.646  1.3140 -0.1698  0.5899
 7609TIP3   OH244317   1.503   5.823   1.766  0.1173  0.2268 -0.1974
 7609TIP3    H144318   1.538   5.869   1.842  0.1771  0.1608 -0.1859
 7609TIP3    H244319   1.410   5.812   1.786  0.3694 -0.9302  0.4358
 7610TIP3   OH244320   6.398   0.036  12.864  0.2269  0.0583  0.0370
 7610TIP3    H144321   6.468   0.080  12.815  1.3318 -0.3794  1.1508
 7610TIP3    H244322   6.342  -0.003  12.797  2.7669 -2.2408 -0.9626
 7611TIP3   OH244323   3.040   5.122  15.782 -0.6880 -0.3576  0.1087
 7611TIP3    H144324   3.091   5.068  15.842  2.3065  1.1092 -0.8864
 7611TIP3    H244325   3.009   5.062  15.715  0.7593 -1.2188  0.1608
 7612TIP3   OH244326   1.299   5.608  16.447  0.0011 -0.6358 -1.0505
 7612TIP3    H144327   1.217   5.642  16.484 -0.2097 -0.3779 -1.7407
 7612TIP3    H244328   1.352   5.686  16.430  0.7263 -0.8546  0.1532
 7613TIP3   OH244329   4.174   0.059  16.863 -0.2978 -0.0738 -0.4097
 7613TIP3    H144330   4.127   0.105  16.932  0.0839  1.1286 -0.9163
 7613TIP3    H244331   4.183   0.124  16.793  0.9356 -0.6840 -0.8473
 7614TIP3   OH244332   5.584   0.488   4.685 -0.0132  0.3437  0.1631
 7614TIP3    H144333   5.530   0.414   4.659  0.2491  0.1036  0.3024
 7614TIP3    H244334   5.638   0.455   4.757  3.1916 -0.6400 -2.4555
 7615TIP3   OH244335   4.545   0.534   2.445 -0.1443 -0.1243  0.3541
 7615TIP3    H144336   4.571   0.492   2.364  0.5275  1.0042 -0.0482
 7615TIP3    H244337   4.593   0.488   2.513 -0.6755 -1.0456  0.1121
 7616TIP3   OH244338   6.389   1.444   1.183 -0.0325  0.1379 -0.4475
 7616TIP3    H144339   6.327   1.439   1.110 -1.0468  0.7669  0.3541
 7616TIP3    H244340   6.413   1.536   1.188 -0.5282  0.2279  0.4619
 7617TIP3   OH244341   2.238   1.540  11.105 -0.0937 -0.1124  0.1071
 7617TIP3    H144342   2.220   1.580  11.020 -1.4970  2.5212  1.5270
 7617TIP3    H244343   2.160   1.488  11.124 -0.1504 -0.0092  0.1565
 7618TIP3   OH244344   5.614   4.938  15.412  0.2236 -0.7378 -0.1147
 7618TIP3    H144345   5.597   5.014  15.356 -2.1047  0.1474  1.6012
 7618TIP3    H244346   5.561   4.868  15.373  0.7191 -0.8960 -0.5114
 7619TIP3   OH244347   1.814   1.131  17.219 -0.4297  0.3494 -0.3061
 7619TIP3    H144348   1.804   1.154  17.312 -0.6228  1.9230 -0.6870
 7619TIP3    H244349   1.736   1.079  17.200 -1.5302  1.8219 -0.0770
 7620TIP3   OH244350   1.681   3.061   2.308 -0.0091 -0.4223  0.4980
 7620TIP3    H144351   1.692   3.122   2.381 -0.6358 -0.8623  0.9690
 7620TIP3    H244352   1.716   3.108   2.232  0.3432  0.1691  1.0202
 7621TIP3   OH244353   4.291   5.925   4.720 -0.1471 -0.2473 -0.3984
 7621TIP3    H144354   4.197   5.919   4.731  0.0090  0.2738  1.4379
 7621TIP3    H244355   4.328   5.862   4.782  0.7347  0.3576 -0.2797
 7622TIP3   OH244356   6.428   1.244  13.972  0.1379 -0.5156  0.2947
 7622TIP3    H144357   6.385   1.163  13.999  0.2593 -0.7036 -0.0659
 7622TIP3    H244358   6.361   1.311  13.979 -0.2105 -0.8024 -0.2355
 7623TIP3   OH244359   4.794   6.194  14.424  0.3130 -0.0417 -0.2759
 7623TIP3    H144360   4.790   6.102  14.397  1.1727 -0.0787 -0.3230
 7623TIP3    H244361   4.873   6.227  14.381  0.0804  0.6795 -0.1464
 7624TIP3   OH244362   4.657   5.419  14.201  0.3311 -0.8526  0.0245
 7624TIP3    H144363   4.593   5.391  14.135  0.5002 -0.7255 -0.1970
 7624TIP3    H244364   4.621   5.389  14.284 -1.8437  2.2003  0.3621
 7625TIP3   OH244365   4.921   0.611   1.360  0.4715 -0.0936 -0.0530
 7625TIP3    H144366   5.001   0.651   1.395  0.2263  2.0447 -1.7800
 7625TIP3    H244367   4.850   0.657   1.404  0.1589 -0.7927  0.1923
 7626TIP3   OH244368   5.860   0.781  15.134 -0.1501 -0.0138 -0.0981
 7626TIP3    H144369   5.945   0.791  15.093  0.2333 -0.0943  0.6705
 7626TIP3    H244370   5.836   0.689  15.119  1.2652 -0.8483  2.2310
 7627TIP3   OH244371   2.813   0.877  11.696  0.2918  0.5567 -0.4657
 7627TIP3    H144372   2.849   0.792  11.671 -0.1804  0.2656 -0.1699
 7627TIP3    H244373   2.744   0.893  11.633 -1.5591 -0.6268  1.1370
 7628TIP3   OH244374   1.817   4.721   5.508 -0.0728  0.3436 -0.3246
 7628TIP3    H144375   1.874   4.658   5.465  0.1256 -0.0158  0.4487
 7628TIP3    H244376   1.728   4.692   5.486 -0.0536  2.0780 -3.2564
 7629TIP3   OH244377   4.466   4.321  12.889  0.5103  0.1983 -0.2070
 7629TIP3    H144378   4.378   4.320  12.927  0.5316 -0.8020 -0.1544
 7629TIP3    H244379   4.511   4.247  12.930  1.3762  0.6845 -0.2475
 7630TIP3   OH244380   1.803   1.670   0.469  0.1993  0.0827  0.4252
 7630TIP3    H144381   1.855   1.669   0.389  1.1502 -1.3810  1.0035
 7630TIP3    H244382   1.804   1.761   0.497  3.3310  0.0408  0.8775
 7631TIP3   OH244383   2.540   4.038   6.640  0.1084 -0.0203 -0.2464
 7631TIP3    H144384   2.578   4.068   6.558 -0.0192 -0.5184 -0.4947
 7631TIP3    H244385   2.615   4.023   6.698  0.2032  0.2579 -0.2987
 7632TIP3   OH244386   3.246   4.339   2.120 -0.1722  0.0532 -0.3778
 7632TIP3    H144387   3.201   4.352   2.204  0.8162 -0.4796  0.2531
 7632TIP3    H244388   3.220   4.415   2.067 -1.6140 -0.1143  0.0296
 7633TIP3   OH244389   3.325   3.894  16.812 -0.5130 -0.1482  0.2046
 7633TIP3    H144390   3.359   3.863  16.896 -0.0105 -0.1569 -0.0006
 7633TIP3    H244391   3.236   3.924  16.832  0.3783  2.0507  1.2286
 7634TIP3   OH244392   2.525   4.859   2.886  0.0459 -0.1089  0.3112
 7634TIP3    H144393   2.511   4.884   2.978  1.8900 -0.0886  0.6343
 7634TIP3    H244394   2.519   4.764   2.886  0.9102 -0.1805  0.6619
 7635TIP3   OH244395   2.158   3.273   3.254  0.1940  0.5771  0.0346
 7635TIP3    H144396   2.123   3.220   3.326 -0.6115 -1.0321 -1.4621
 7635TIP3    H244397   2.253   3.260   3.260  0.0628 -0.4339  0.1796
 7636TIP3   OH244398   0.583   0.479  17.630 -0.1495 -0.1025 -0.3985
 7636TIP3    H144399   0.582   0.508  17.539 -0.0809 -0.4511 -0.5087
 7636TIP3    H244400   0.498   0.507  17.665 -0.6928 -1.0661 -0.9075
 7637TIP3   OH244401   5.111   6.626  12.250 -0.5436  0.1772 -0.3030
 7637TIP3    H144402   5.052   6.693  12.284 -1.9676 -1.6944  1.1340
 7637TIP3    H244403   5.098   6.628  12.155 -1.5361  1.0272 -0.1707
 7638TIP3   OH244404   3.123   6.611   5.758  0.1246  0.1031  0.1514
 7638TIP3    H144405   3.134   6.702   5.785  0.4385  0.1740 -0.2005
 7638TIP3    H244406   3.093   6.566   5.837 -0.1457  0.5320  0.2972
 7639TIP3   OH244407   5.273   0.910  12.489  0.0412 -0.1341 -0.2174
 7639TIP3    H144408   5.342   0.972  12.511  0.8896 -1.0537 -0.2060
 7639TIP3    H244409   5.318   0.826  12.482 -1.1465 -0.8312  0.2023
 7640TIP3   OH244410   1.295   4.567  15.455 -0.1611  0.6547  0.0671
 7640TIP3    H144411   1.240   4.558  15.378 -1.6049  0.0950  1.1279
 7640TIP3    H244412   1.377   4.603  15.421 -1.2337  1.7463 -1.5342
 7641TIP3   OH244413   4.513   5.826  14.325  0.1284  0.5439 -0.8362
 7641TIP3    H144414   4.485   5.906  14.371 -2.0043  0.3377 -1.6335
 7641TIP3    H244415   4.532   5.764  14.395 -0.7386  0.9628 -0.2049
 7642TIP3   OH244416   2.550   3.862   4.167  0.1426  0.8420  0.2134
 7642TIP3    H144417   2.534   3.938   4.224 -0.1666  1.5496 -0.7859
 7642TIP3    H244418   2.477   3.863   4.105  0.6738  0.3198 -0.4351
 7643TIP3   OH244419   6.194   1.960  17.159 -0.1337  0.0608 -0.5440
 7643TIP3    H144420   6.155   2.017  17.092  1.3252  0.1162 -1.4043
 7643TIP3    H244421   6.244   2.020  17.215 -0.8532 -0.0605  0.2344
 7644TIP3   OH244422   3.230   4.260   1.443 -0.7888  0.6064  0.1199
 7644TIP3    H144423   3.171   4.284   1.371 -1.7168 -0.0713  0.6324
 7644TIP3    H244424   3.318   4.276   1.408 -1.1785 -0.5455 -1.4912
 7645TIP3   OH244425   6.728   0.319   4.627 -0.3551  0.3644  0.1840
 7645TIP3    H144426   6.795   0.285   4.687 -1.7175  0.2332  1.7036
 7645TIP3    H244427   6.689   0.241   4.588 -1.0050  0.3263  0.8862
 7646TIP3   OH244428   3.290   3.338   3.922 -1.1696 -0.5382 -0.5912
 7646TIP3    H144429   3.239   3.298   3.993 -0.7889 -0.6862 -0.3986
 7646TIP3    H244430   3.375   3.294   3.925 -0.6117  0.5147 -0.1444
 7647TIP3   OH244431   4.231   1.395  11.811 -0.3647  0.1442 -0.0953
 7647TIP3    H144432   4.255   1.360  11.725  0.6885  0.8336 -0.1038
 7647TIP3    H244433   4.258   1.487  11.807  1.8176 -0.3121  1.7231
 7648TIP3   OH244434   2.569   3.917   4.845  0.3478 -0.2296 -0.3077
 7648TIP3    H144435   2.491   3.864   4.861 -0.8956  2.0990  1.9365
 7648TIP3    H244436   2.543   3.977   4.775  0.3302  0.1851  0.0566
 7649TIP3   OH244437   0.331   6.143   2.322  0.3004 -0.1163  0.1743
 7649TIP3    H144438   0.246   6.133   2.279 -0.2822  0.2784  1.2077
 7649TIP3    H244439   0.394   6.149   2.250 -1.0181  5.1079 -0.9346
 7650TIP3   OH244440   0.457   4.889  13.987  0.6393  0.1558  0.3109
 7650TIP3    H144441   0.496   4.960  13.936 -0.0746 -0.5998 -1.3428
 7650TIP3    H244442   0.374   4.925  14.019  0.6858  0.3433  0.2239
 7651TIP3   OH244443   5.382   3.953   0.415  0.3248  0.6139 -0.2607
 7651TIP3    H144444   5.446   4.023   0.426  0.9533  0.2634 -1.4148
 7651TIP3    H244445   5.297   3.996   0.418  0.7122  1.4825 -1.2464
 7652TIP3   OH244446   0.683   0.499  13.647 -0.1077  0.3475 -0.0560
 7652TIP3    H144447   0.630   0.445  13.588 -1.5697  0.5295  1.0409
 7652TIP3    H244448   0.772   0.490  13.613 -0.8085  0.0438 -1.9835
 7653TIP3   OH244449   3.133   2.297   4.978  0.0624 -1.0408  0.1577
 7653TIP3    H144450   3.063   2.312   5.041  0.3697 -2.6094  0.9078
 7653TIP3    H244451   3.121   2.366   4.912 -2.7743 -1.8445 -0.2755
 7654TIP3   OH244452   1.845   4.864   6.003  0.2712 -0.6439 -0.2940
 7654TIP3    H144453   1.874   4.930   5.940 -0.8748 -0.3835 -0.5742
 7654TIP3    H244454   1.865   4.903   6.089 -0.6567  0.2122 -0.4468
 7655TIP3   OH244455   0.730   1.906  12.295 -0.1500 -0.2431  0.0802
 7655TIP3    H144456   0.670   1.832  12.304  1.0261 -1.0663  1.7670
 7655TIP3    H244457   0.797   1.875  12.234  0.5178 -0.7277  1.0355
 7656TIP3   OH244458   1.431   3.034  15.888 -0.2781  0.3134  0.2218
 7656TIP3    H144459   1.464   2.992  15.967  1.7899  1.8251  0.2424
 7656TIP3    H244460   1.393   2.962  15.837  0.6998 -1.1193  1.4133
 7657TIP3   OH244461   4.912   3.260  16.358  0.0480  0.3675 -0.4673
 7657TIP3    H144462   4.822   3.283  16.336 -0.8825 -2.0887  0.4119
 7657TIP3    H244463   4.927   3.304  16.442 -0.7945 -0.1525 -0.0237
 7658TIP3   OH244464   4.209   2.412   3.135 -0.0940  0.3097 -0.1334
 7658TIP3    H144465   4.269   2.483   3.111  1.0799 -0.8460 -0.7257
 7658TIP3    H244466   4.163   2.391   3.054  2.0238 -1.8563 -0.8895
 7659TIP3   OH244467   2.631   2.696   1.063 -0.6275 -0.0534  0.0501
 7659TIP3    H144468   2.708   2.653   1.100  0.5205  0.0376 -2.0393
 7659TIP3    H244469   2.558   2.639   1.086  0.1121 -0.4199  1.6536
 7660TIP3   OH244470   2.665   2.326   2.717 -0.0930 -0.0036 -0.1858
 7660TIP3    H144471   2.597   2.359   2.776 -0.2520 -1.6208  0.6197
 7660TIP3    H244472   2.694   2.402   2.667  0.5943  1.6296  2.5140
 7661TIP3   OH244473   3.221   4.731  13.242 -0.4368 -0.1958 -0.0624
 7661TIP3    H144474   3.133   4.738  13.281 -0.7083 -0.2668 -0.6580
 7661TIP3    H244475   3.268   4.672  13.301 -0.8081 -0.2071  0.2266
 7662TIP3   OH244476   1.098   6.521   5.257  0.0772  0.3107  0.2292
 7662TIP3    H144477   1.086   6.598   5.312  0.7509  0.5088  0.1143
 7662TIP3    H244478   1.174   6.542   5.202  1.6840 -1.2541  1.6966
 7663TIP3   OH244479   5.327   0.652  14.780  0.6217  0.1625 -0.7147
 7663TIP3    H144480   5.354   0.578  14.834  0.0938  0.2282 -0.3570
 7663TIP3    H244481   5.318   0.725  14.842 -1.5881 -0.1416 -0.6091
 7664TIP3   OH244482   6.533   0.446  17.209 -0.1474 -0.4945  0.7127
 7664TIP3    H144483   6.465   0.513  17.219 -0.2102 -0.3446 -0.6018
 7664TIP3    H244484   6.541   0.433  17.114  2.3477  0.2303  0.7551
 7665TIP3   OH244485   3.393   3.994   0.316  0.7454  0.3828 -0.0141
 7665TIP3    H144486   3.487   4.012   0.316  1.3477 -2.3695 -0.3685
 7665TIP3    H244487   3.367   4.000   0.224  0.5934  0.9116  0.0572
 7666TIP3   OH244488   6.622   4.225  14.944  0.3794 -0.0794  0.1923
 7666TIP3    H144489   6.554   4.276  14.900 -0.8581 -1.7994 -0.0182
 7666TIP3    H244490   6.697   4.284  14.949 -1.6898  2.6994  2.2665
 7667TIP3   OH244491   6.133   1.080  11.323 -0.1158 -0.3990 -0.2279
 7667TIP3    H144492   6.174   1.010  11.372 -1.5515 -0.1421  1.4228
 7667TIP3    H244493   6.133   1.155  11.383 -0.5940  0.3763 -1.1595
 7668TIP3   OH244494   5.427   6.126  13.689  0.8673 -0.2114  0.3820
 7668TIP3    H144495   5.372   6.052  13.664  1.1402 -0.2681 -0.0559
 7668TIP3    H244496   5.373   6.175  13.751  0.2197 -0.1262 -0.2364
 7669TIP3   OH244497   4.435   3.536  16.450 -0.1104  0.5355 -0.4602
 7669TIP3    H144498   4.458   3.540  16.543 -1.0681  1.0662 -0.2398
 7669TIP3    H244499   4.474   3.615  16.412  0.2084  0.3614 -0.5011
 7670TIP3   OH244500   6.097   2.473  11.801  0.2100 -0.7952 -0.3978
 7670TIP3    H144501   6.162   2.423  11.750 -0.0859 -0.1384 -1.4515
 7670TIP3    H244502   6.013   2.449  11.762  0.0376  0.2486 -0.6903
 7671TIP3   OH244503   2.892   0.189   5.930 -0.0397  0.0958  0.6261
 7671TIP3    H144504   2.819   0.139   5.893  1.8302 -1.2314 -1.5290
 7671TIP3    H244505   2.867   0.280   5.918 -1.2502 -0.3263 -0.3199
 7672TIP3   OH244506   2.360   0.849  17.320 -0.0853  0.3832 -0.3551
 7672TIP3    H144507   2.346   0.756  17.300  0.9682 -0.2003  1.4552
 7672TIP3    H244508   2.278   0.877  17.360  0.5025 -0.5293  1.5907
 7673TIP3   OH244509   6.737   2.333  16.248 -0.2364 -0.6793  0.2121
 7673TIP3    H144510   6.775   2.320  16.161  1.2432 -2.9456  1.0814
 7673TIP3    H244511   6.678   2.259  16.260  1.2135 -1.6760  1.8650
 7674TIP3   OH244512   2.376   1.161   3.146  0.3967  0.0547  0.6303
 7674TIP3    H144513   2.348   1.202   3.064  1.1029 -1.6362 -0.5089
 7674TIP3    H244514   2.374   1.067   3.128  1.6570 -0.3191  2.1820
 7675TIP3   OH244515   2.829   3.318   4.954  0.3341 -0.0047  0.1696
 7675TIP3    H144516   2.910   3.282   4.990  1.0599 -1.8664 -2.9491
 7675TIP3    H244517   2.760   3.259   4.986  1.1290 -2.4876 -2.2692
 7676TIP3   OH244518   5.766   0.075  15.016  0.1215 -0.4555 -0.2272
 7676TIP3    H144519   5.852   0.054  15.051  0.1843 -1.1763 -0.8034
 7676TIP3    H244520   5.732  -0.008  14.983 -1.7547 -0.6850  2.0034
 7677TIP3   OH244521   5.203   5.988  13.259 -0.1215  0.0280  0.2605
 7677TIP3    H144522   5.165   6.044  13.192  0.2583  0.6385  0.5422
 7677TIP3    H244523   5.191   6.037  13.341  0.8599  0.0406  0.4135
 7678TIP3   OH244524   1.407   0.666  16.431  0.2736  0.3410 -0.5373
 7678TIP3    H144525   1.384   0.598  16.368  0.2168  0.0342 -0.1925
 7678TIP3    H244526   1.356   0.644  16.509 -1.2010  1.8371 -1.0238
 7679TIP3   OH244527   1.248   3.601   3.237 -0.0357 -0.5408 -0.4400
 7679TIP3    H144528   1.163   3.611   3.280  0.6284  2.9009  0.4216
 7679TIP3    H244529   1.312   3.607   3.308  0.9582  0.5707 -1.3783
 7680TIP3   OH244530   2.491   4.381  16.288  0.4263 -0.2186  0.1995
 7680TIP3    H144531   2.425   4.418  16.345  1.3473 -0.1028  1.2291
 7680TIP3    H244532   2.488   4.435  16.209 -0.5111 -0.0562  0.3347
 7681TIP3   OH244533   1.880   3.892   6.144 -0.3815  0.1535 -0.5123
 7681TIP3    H144534   1.865   3.919   6.053 -0.4005 -2.1357 -1.2555
 7681TIP3    H244535   1.820   3.819   6.157 -0.0021  0.1103  1.1942
 7682TIP3   OH244536   5.630   6.186   3.823 -0.1424  0.5422 -0.3075
 7682TIP3    H144537   5.722   6.168   3.802 -0.4870 -0.4345 -1.0378
 7682TIP3    H244538   5.596   6.101   3.851 -0.4570  1.1970  1.4033
 7683TIP3   OH244539   0.781   1.613  11.661 -1.0603  0.2176 -0.5094
 7683TIP3    H144540   0.724   1.556  11.609 -0.4083 -0.7601 -0.1806
 7683TIP3    H244541   0.725   1.643  11.733 -1.4926  0.2202 -0.8424
 7684TIP3   OH244542   3.503   5.810  12.620 -0.6488  0.0056  0.4580
 7684TIP3    H144543   3.486   5.718  12.598 -0.2580 -0.5135  2.1975
 7684TIP3    H244544   3.416   5.846  12.640 -0.8482  0.1422 -0.5878
 7685TIP3   OH244545   4.982   5.672   2.148 -0.1994  0.1060 -0.0451
 7685TIP3    H144546   4.920   5.607   2.115  0.5006 -0.2067 -0.7932
 7685TIP3    H244547   4.987   5.737   2.078  0.0323  0.3234  0.1733
 7686TIP3   OH244548   0.728   0.909  12.379 -0.2883  0.4829  0.0244
 7686TIP3    H144549   0.770   0.900  12.464 -0.0279 -3.7929 -0.3416
 7686TIP3    H244550   0.635   0.892  12.396 -0.3055  0.0695 -0.4661
 7687TIP3   OH244551   0.960   5.129   4.284 -0.5211 -0.3469 -0.4125
 7687TIP3    H144552   1.034   5.128   4.345  0.8770 -1.5129 -2.0323
 7687TIP3    H244553   0.928   5.219   4.287  0.5303  0.0220  0.8352
 7688TIP3   OH244554   3.389   6.652   0.933 -0.0577 -0.4238  0.3501
 7688TIP3    H144555   3.319   6.625   0.874 -1.3218  0.1590  1.5554
 7688TIP3    H244556   3.468   6.648   0.879 -1.0295 -0.9047 -1.0852
 7689TIP3   OH244557   3.578   0.976   1.393 -0.3468  0.3890  0.0888
 7689TIP3    H144558   3.505   0.984   1.454  0.7695 -0.5966  1.6335
 7689TIP3    H244559   3.639   0.916   1.436  1.0682  0.6315 -1.4576
 7690TIP3   OH244560   2.260   5.545   1.070 -0.1352  0.0135 -0.0827
 7690TIP3    H144561   2.223   5.601   1.138  0.1699  1.2996 -0.9335
 7690TIP3    H244562   2.193   5.477   1.056 -1.4839  1.3589 -0.4632
 7691TIP3   OH244563   1.093   0.698   4.271  0.2347  0.1256 -0.1932
 7691TIP3    H144564   1.008   0.658   4.287 -0.0032  0.2534 -1.0674
 7691TIP3    H244565   1.073   0.777   4.220  0.9841 -0.7489 -1.9388
 7692TIP3   OH244566   4.787   3.505   0.674 -0.4028 -0.0717  0.4984
 7692TIP3    H144567   4.881   3.504   0.657 -0.1223 -0.4019  1.8993
 7692TIP3    H244568   4.765   3.597   0.684 -0.7137  0.1939 -2.0937
 7693TIP3   OH244569   6.209   0.831  15.187 -0.1984 -0.5199  0.1984
 7693TIP3    H144570   6.293   0.875  15.175  1.2048 -3.0931 -0.0086
 7693TIP3    H244571   6.173   0.822  15.098 -0.1221 -0.4917  0.1653
 7694TIP3   OH244572   2.881   5.323  16.010  1.1191 -0.0961 -0.2810
 7694TIP3    H144573   2.866   5.331  16.104  1.5867 -0.2060 -0.1921
 7694TIP3    H244574   2.827   5.249  15.983  1.2098 -0.2517 -0.0426
 7695TIP3   OH244575   0.422   3.746  13.553 -0.2395 -0.0322 -0.1093
 7695TIP3    H144576   0.464   3.746  13.467 -1.3198 -2.1262 -0.6906
 7695TIP3    H244577   0.413   3.654  13.575 -1.2414  0.4457  1.6469
 7696TIP3   OH244578   6.219   1.473  16.500 -0.3012  0.2242  0.5336
 7696TIP3    H144579   6.124   1.466  16.495 -0.2883 -0.7390  1.2357
 7696TIP3    H244580   6.235   1.558  16.541 -0.8967  0.0697  1.1136
 7697TIP3   OH244581   4.772   4.763   5.998  0.2250  0.6860 -0.3844
 7697TIP3    H144582   4.721   4.788   6.075 -1.5723  1.0947 -1.6399
 7697TIP3    H244583   4.826   4.689   6.028 -0.0853  1.1127  1.3527
 7698TIP3   OH244584   2.084   0.133   5.715  0.4351  1.0360 -0.7184
 7698TIP3    H144585   2.068   0.227   5.705 -1.9436  0.6533 -1.1506
 7698TIP3    H244586   2.070   0.097   5.628 -0.6812  0.0666 -0.1640
 7699TIP3   OH244587   4.041   0.333   0.084 -0.2478 -0.2244 -0.5181
 7699TIP3    H144588   4.011   0.344   0.174  0.4042  0.0434 -0.3288
 7699TIP3    H244589   3.982   0.267   0.047 -1.1247  0.3451 -0.1881
 7700TIP3   OH244590   2.649   4.949  14.838 -0.5423  0.9795  0.5203
 7700TIP3    H144591   2.711   4.965  14.909  0.3842 -0.8266  0.1664
 7700TIP3    H244592   2.565   4.978  14.874  0.0797  1.1420  1.9442
 7701TIP3   OH244593   1.003   2.568  16.359 -0.0454  0.1663 -0.1551
 7701TIP3    H144594   0.967   2.481  16.348 -1.4179  0.7945 -0.9100
 7701TIP3    H244595   0.931   2.620  16.396  0.9351  0.8421  0.8933
 7702TIP3   OH244596   2.673   2.674   3.041  0.7818  0.0099 -0.4246
 7702TIP3    H144597   2.632   2.760   3.032  0.7859  0.1878  0.9731
 7702TIP3    H244598   2.644   2.625   2.965  0.7113  1.2230 -1.1982
 7703TIP3   OH244599   3.151   0.940   1.572 -0.1368 -0.4458 -0.1885
 7703TIP3    H144600   3.181   0.937   1.663 -2.5100  1.5232  0.7703
 7703TIP3    H244601   3.223   0.979   1.523  0.5322  0.0382  1.1527
 7704TIP3   OH244602   5.369   0.202   3.275  0.2474  0.1217 -0.0276
 7704TIP3    H144603   5.369   0.107   3.281  1.4938  0.0750 -0.4568
 7704TIP3    H244604   5.312   0.221   3.201 -0.8869 -0.2202  0.7422
 7705TIP3   OH244605   3.117   4.965  15.991 -0.2881 -0.6222 -0.6114
 7705TIP3    H144606   3.037   4.982  16.041 -0.1964  1.2790 -1.0171
 7705TIP3    H244607   3.134   4.872  16.003 -0.8226 -0.4521  2.0503
 7706TIP3   OH244608   2.813   3.000  16.790  0.0660  0.5744  0.2438
 7706TIP3    H144609   2.877   3.016  16.859  0.3150  0.0852  0.1298
 7706TIP3    H244610   2.835   2.913  16.756  0.0829  0.8938 -0.5977
 7707TIP3   OH244611   0.347   0.270   0.189 -0.1534 -0.3560 -0.2410
 7707TIP3    H144612   0.338   0.267   0.285 -0.8069 -1.4067 -0.3152
 7707TIP3    H244613   0.440   0.254   0.174 -0.0969 -0.4949  0.2134
 7708TIP3   OH244614   3.461   1.412   1.713 -0.4141 -0.8415 -0.0676
 7708TIP3    H144615   3.502   1.473   1.773  1.2322 -1.5240 -0.4315
 7708TIP3    H244616   3.400   1.465   1.661 -0.1111  0.1837  0.6056
 7709TIP3   OH244617   0.957   2.967   4.186 -0.0377  0.3598  0.5121
 7709TIP3    H144618   0.951   2.882   4.143 -0.3324  0.4067  0.4560
 7709TIP3    H244619   1.035   2.961   4.241 -0.0258  0.0742  0.4656
 7710TIP3   OH244620   5.410   1.615  16.854  0.4925 -0.1236 -0.0555
 7710TIP3    H144621   5.436   1.691  16.802  1.9264 -0.3587  0.2701
 7710TIP3    H244622   5.491   1.567  16.869 -0.2362 -1.2172  0.5621
 7711TIP3   OH244623   2.908   3.915  13.851 -0.3614 -0.6400 -0.9788
 7711TIP3    H144624   2.897   3.988  13.912 -0.4721 -2.5317  1.3789
 7711TIP3    H244625   2.929   3.957  13.767 -1.4297  2.1100  0.0351
 7712TIP3   OH244626   5.351   1.854   1.729 -0.2707 -0.3496  0.0119
 7712TIP3    H144627   5.414   1.902   1.784  0.5580 -1.3064 -0.0692
 7712TIP3    H244628   5.273   1.845   1.784 -0.4622  1.1032  0.0135
 7713TIP3   OH244629   1.084   1.154  11.004  0.6007 -0.0557  0.4333
 7713TIP3    H144630   1.159   1.207  10.976 -0.3618  2.1588  1.8114
 7713TIP3    H244631   1.122   1.069  11.027  2.3934  0.3924 -0.6479
 7714TIP3   OH244632   6.299   1.213   6.523 -0.2138 -0.3364 -0.3843
 7714TIP3    H144633   6.273   1.278   6.588 -0.1914 -0.9369  0.2410
 7714TIP3    H244634   6.283   1.129   6.566  3.3009 -0.7893  0.3442
 7715TIP3   OH244635   4.860   1.312  17.237  0.0586 -0.2300 -0.3539
 7715TIP3    H144636   4.892   1.222  17.244 -0.7857 -0.6393 -1.3621
 7715TIP3    H244637   4.889   1.340  17.150  0.7839  0.6794  0.1688
 7716TIP3   OH244638   3.943   1.042   0.205  0.1197 -0.3816 -0.1633
 7716TIP3    H144639   3.916   1.005   0.121 -1.5098  0.9365 -0.2771
 7716TIP3    H244640   3.997   0.974   0.245 -2.7144 -2.9241 -0.2989
 7717TIP3   OH244641   6.263   6.265  13.570 -0.5725  0.3868 -0.1806
 7717TIP3    H144642   6.270   6.193  13.509 -1.8597 -0.4880  0.6508
 7717TIP3    H244643   6.339   6.320  13.552  0.4950 -1.2251 -0.7554
 7718TIP3   OH244644   4.681   2.868  15.542  0.5701 -0.0539  0.2468
 7718TIP3    H144645   4.622   2.942  15.557  1.3329  0.6867 -0.3191
 7718TIP3    H244646   4.758   2.887  15.595  0.9843 -0.1757 -0.2979
 7719TIP3   OH244647   3.834   1.697   2.685  0.8931 -0.9476 -0.3536
 7719TIP3    H144648   3.895   1.750   2.736  0.7723 -1.4201  0.3015
 7719TIP3    H244649   3.749   1.740   2.696  0.8481 -1.1087 -0.0647
 7720TIP3   OH244650   2.685   5.281   2.063  0.0065 -0.5710 -0.4942
 7720TIP3    H144651   2.672   5.206   2.006  1.0252 -0.0134 -1.5071
 7720TIP3    H244652   2.706   5.353   2.004 -0.4535  0.4026  0.4878
 7721TIP3   OH244653   2.175   6.066  16.576  0.1196 -0.5827  0.6285
 7721TIP3    H144654   2.206   6.143  16.624  0.6527  0.5321 -1.3822
 7721TIP3    H244655   2.108   6.100  16.517  1.7297 -1.2285 -1.7063
 7722TIP3   OH244656   4.549   3.681  13.201 -0.3876 -0.4213 -0.3823
 7722TIP3    H144657   4.524   3.727  13.281 -0.8458 -0.8572 -0.2732
 7722TIP3    H244658   4.629   3.725  13.173 -1.2353  0.9745 -0.7196
 7723TIP3   OH244659   6.579   0.360  11.523  0.3211  0.4073 -0.1752
 7723TIP3    H144660   6.615   0.378  11.610  0.0514  1.6786 -0.3079
 7723TIP3    H244661   6.633   0.288  11.490  0.7729  0.2597  0.8274
 7724TIP3   OH244662   5.253   5.541  14.217 -0.1588  0.2680 -0.1333
 7724TIP3    H144663   5.316   5.574  14.281  2.5049  1.2601 -2.9983
 7724TIP3    H244664   5.263   5.446  14.219 -2.0508  0.0387  2.6275
 7725TIP3   OH244665   6.595   1.384  14.659 -0.0987  0.0621  0.3542
 7725TIP3    H144666   6.525   1.326  14.686  0.5888 -0.6780  0.6010
 7725TIP3    H244667   6.584   1.395  14.565  0.8646 -2.0232 -0.0433
 7726TIP3   OH244668   0.747   2.694   3.712 -0.2165  0.1354  0.0167
 7726TIP3    H144669   0.828   2.649   3.687 -0.1830 -0.7919  1.6365
 7726TIP3    H244670   0.769   2.736   3.796 -0.9952  1.1189 -0.2523
 7727TIP3   OH244671   5.322   6.497  11.449 -0.0385 -0.3171  0.2371
 7727TIP3    H144672   5.330   6.414  11.496  2.0972 -2.5172 -3.5490
 7727TIP3    H244673   5.257   6.480  11.381  0.8755  0.9267 -0.9888
 7728TIP3   OH244674   1.948   3.317  14.788  0.6702  0.0536  0.1552
 7728TIP3    H144675   1.875   3.259  14.765  0.8189  0.5429 -1.7445
 7728TIP3    H244676   1.962   3.303  14.882  0.2072 -2.3741 -0.0836
 7729TIP3   OH244677   6.089   3.831  15.843  0.2310  0.3250  0.0803
 7729TIP3    H144678   6.019   3.767  15.829 -0.6423  0.8808  1.6758
 7729TIP3    H244679   6.094   3.879  15.761  0.0174 -0.9167 -0.6956
 7730TIP3   OH244680   6.610   3.592   4.821 -0.0198  0.7383  0.3989
 7730TIP3    H144681   6.533   3.581   4.877 -1.2858 -0.7793 -1.4895
 7730TIP3    H244682   6.577   3.575   4.733  1.8530  3.0848 -0.8691
 7731TIP3   OH244683   6.219   2.831   3.885  0.1626  0.0116  0.3129
 7731TIP3    H144684   6.255   2.778   3.957  1.6030  2.5592  1.6225
 7731TIP3    H244685   6.129   2.849   3.912  1.1362  2.2958  2.4883
 7732TIP3   OH244686   2.172   4.471  16.867 -0.0739 -0.1690  0.5103
 7732TIP3    H144687   2.221   4.549  16.840  1.0102 -0.8586  0.4195
 7732TIP3    H244688   2.082   4.490  16.842  0.5655 -0.0331 -2.0011
 7733TIP3   OH244689   5.556   3.380   6.650  0.0240  0.4687  0.3505
 7733TIP3    H144690   5.622   3.419   6.593  2.2772  0.3845  2.7270
 7733TIP3    H244691   5.558   3.433   6.729 -0.6094 -1.3302  1.6457
 7734TIP3   OH244692   4.060   4.142   5.990 -0.0476  0.3013 -0.0295
 7734TIP3    H144693   4.058   4.049   5.966  0.5365  0.0053  0.9957
 7734TIP3    H244694   4.148   4.171   5.965 -0.0031  0.4070  0.2494
 7735TIP3   OH244695   2.588   0.201   2.543 -0.6108 -0.7038 -0.5221
 7735TIP3    H144696   2.681   0.181   2.556  0.4928  2.8730 -1.6732
 7735TIP3    H244697   2.559   0.234   2.628 -0.5735 -0.9776 -0.4022
 7736TIP3   OH244698   5.819   6.588  15.861 -0.1031 -0.5576  0.7914
 7736TIP3    H144699   5.879   6.592  15.786  1.1613 -1.3028  1.7243
 7736TIP3    H244700   5.843   6.663  15.915 -0.2866 -0.6298  0.9762
 7737TIP3   OH244701   2.557   5.435  13.641 -0.6303  0.2674 -0.3449
 7737TIP3    H144702   2.605   5.507  13.682  0.1324 -0.5707  0.2928
 7737TIP3    H244703   2.471   5.472  13.621 -0.3031  1.3116  0.0840
 7738TIP3   OH244704   2.422   2.972   3.539  0.4731  0.5559  0.5882
 7738TIP3    H144705   2.474   2.934   3.611  1.1199 -1.3099 -0.7846
 7738TIP3    H244706   2.364   2.901   3.512  0.3895  1.1548 -0.8617
 7739TIP3   OH244707   5.644   1.741   2.959 -0.4780 -0.4379  0.1932
 7739TIP3    H144708   5.691   1.809   3.007 -0.7204  0.2707 -0.5441
 7739TIP3    H244709   5.591   1.697   3.025  0.9716 -1.0607  0.9916
 7740TIP3   OH244710   3.279   4.019  17.248  0.1470  0.0643  0.3755
 7740TIP3    H144711   3.273   3.939  17.195 -0.7891  0.9507 -0.9210
 7740TIP3    H244712   3.352   4.068  17.209  0.3150  0.1248  0.7631
 7741TIP3   OH244713   3.365   0.776  16.491  0.0765  0.2342 -0.2444
 7741TIP3    H144714   3.430   0.767  16.562 -0.6641 -0.2658  0.3966
 7741TIP3    H244715   3.288   0.729  16.524 -2.2347  4.4061  0.9401
 7742TIP3   OH244716   6.569   3.951  14.911 -0.1387 -0.7446 -0.6735
 7742TIP3    H144717   6.561   4.034  14.957  0.2577 -1.7869  1.4076
 7742TIP3    H244718   6.662   3.930  14.916 -0.3007 -1.5186 -0.7492
 7743TIP3   OH244719   0.679   1.866  16.027 -0.0085  0.1525 -0.2342
 7743TIP3    H144720   0.739   1.892  15.957 -1.7330  2.4204 -0.9860
 7743TIP3    H244721   0.615   1.937  16.031 -2.2943 -1.8415  0.9361
 7744TIP3   OH244722   5.804   5.397   5.307 -0.2459  0.1117  0.0914
 7744TIP3    H144723   5.754   5.340   5.366 -0.1176  0.1168  0.2050
 7744TIP3    H244724   5.896   5.376   5.325 -0.2164 -0.4819 -0.6900
 7745TIP3   OH244725   1.978   2.143  12.018  0.7726  0.2410 -0.5924
 7745TIP3    H144726   1.906   2.193  11.980  0.8186  1.1344  0.4581
 7745TIP3    H244727   1.953   2.132  12.110  2.6839  1.9577  0.2012
 7746TIP3   OH244728   2.544   6.567   3.881 -0.1090  0.3605  0.3427
 7746TIP3    H144729   2.483   6.556   3.808 -0.2137 -1.3353  0.6417
 7746TIP3    H244730   2.556   6.661   3.888 -0.6591  0.5994 -1.3941
 7747TIP3   OH244731   5.838   4.495  15.685  0.1499  0.2748 -0.6830
 7747TIP3    H144732   5.807   4.463  15.600 -0.3267 -0.4089 -0.2570
 7747TIP3    H244733   5.799   4.435  15.749  1.8221 -0.2332 -0.0866
 7748TIP3   OH244734   3.146   2.234  13.190 -0.3387  0.4255  0.2773
 7748TIP3    H144735   3.081   2.172  13.157 -0.5985 -0.1093  1.7269
 7748TIP3    H244736   3.213   2.237  13.121 -1.2895  0.0735 -0.6972
 7749TIP3   OH244737   2.513   0.738   3.876 -0.0043  0.3355  0.0873
 7749TIP3    H144738   2.464   0.750   3.957  1.7892  1.2375  1.1088
 7749TIP3    H244739   2.484   0.810   3.820 -0.6598  0.1854  0.2279
 7750TIP3   OH244740   4.702   6.400  16.621 -0.0193  0.0967  0.7108
 7750TIP3    H144741   4.716   6.309  16.646 -1.4924  0.0914  1.6687
 7750TIP3    H244742   4.699   6.399  16.525 -0.9516 -1.0251  0.7366
 7751TIP3   OH244743   2.132   1.933   2.198  0.0106 -0.0558 -0.3269
 7751TIP3    H144744   2.059   1.970   2.246 -0.2849 -1.2443  0.1761
 7751TIP3    H244745   2.203   1.997   2.209 -0.1103 -0.1843  1.5195
 7752TIP3   OH244746   1.189   2.259   5.669 -0.0443 -0.5122 -0.3101
 7752TIP3    H144747   1.262   2.269   5.607 -0.4929 -0.2495 -0.8078
 7752TIP3    H244748   1.120   2.217   5.617 -1.2183  1.7107 -0.6337
 7753TIP3   OH244749   4.155   5.072  14.158 -0.0807  0.3958 -0.3049
 7753TIP3    H144750   4.220   5.008  14.188  0.9180  0.3438 -2.3461
 7753TIP3    H244751   4.194   5.109  14.079 -1.4805  2.1881 -0.2135
 7754TIP3   OH244752   0.837   2.515  13.467 -0.1782  0.1728 -0.1720
 7754TIP3    H144753   0.769   2.567  13.511  0.1965  0.7565 -0.2728
 7754TIP3    H244754   0.896   2.490  13.538  1.3602  2.5322 -0.5026
 7755TIP3   OH244755   6.478   5.965  16.742 -0.1523  0.0215  0.2754
 7755TIP3    H144756   6.449   5.932  16.827  2.2839  0.3862  1.3123
 7755TIP3    H244757   6.410   6.028  16.716 -0.6191  0.3760  2.2388
 7756TIP3   OH244758   3.268   1.227   3.373  0.1569  0.3739 -0.5813
 7756TIP3    H144759   3.332   1.171   3.419 -0.1649 -0.1387 -0.7491
 7756TIP3    H244760   3.315   1.309   3.358  1.2742 -0.4530 -1.9176
 7757TIP3   OH244761   3.334   0.403  12.400 -0.4631  0.0778  0.3573
 7757TIP3    H144762   3.264   0.384  12.338  1.0344 -0.4469 -1.2469
 7757TIP3    H244763   3.320   0.494  12.425 -1.2247  0.2334 -0.5756
 7758TIP3   OH244764   2.804   3.350  16.193 -0.2672 -1.3687 -0.2472
 7758TIP3    H144765   2.750   3.301  16.131 -0.3416  0.7887 -2.0068
 7758TIP3    H244766   2.862   3.402  16.138  1.2261 -1.0160  1.5749
 7759TIP3   OH244767   6.018   3.036  17.100  0.6489  0.4403  0.2781
 7759TIP3    H144768   6.034   3.057  17.008  0.9367 -0.1104  0.1971
 7759TIP3    H244769   6.078   2.964  17.119 -1.0440 -1.0647  0.2258
 7760TIP3   OH244770   1.050   3.293   3.319 -0.0511 -0.3966 -0.0268
 7760TIP3    H144771   0.979   3.327   3.265 -0.9611 -2.0117  0.1094
 7760TIP3    H244772   1.097   3.371   3.348 -1.8981  0.7337  0.0890
 7761TIP3   OH244773   4.508   1.129   6.153 -0.2524 -0.7225  0.0378
 7761TIP3    H144774   4.493   1.092   6.066 -0.5927 -1.2394  0.3093
 7761TIP3    H244775   4.599   1.107   6.174 -0.1404 -0.5103 -0.2279
 7762TIP3   OH244776   2.836   0.032   2.982  0.3073  0.5219  0.1296
 7762TIP3    H144777   2.804  -0.026   3.052 -1.1133 -0.1181 -1.0058
 7762TIP3    H244778   2.806   0.119   3.008 -2.6896 -0.0695 -0.9733
 7763TIP3   OH244779   6.274   2.467   5.403 -0.1690 -0.2313  0.2512
 7763TIP3    H144780   6.231   2.552   5.412 -0.1804 -0.2032 -0.0452
 7763TIP3    H244781   6.261   2.444   5.311 -0.0153 -0.4719  0.2901
 7764TIP3   OH244782   1.472   3.367   3.957  0.4340  0.7076  0.0478
 7764TIP3    H144783   1.395   3.415   3.926  0.6023  0.3161 -1.0174
 7764TIP3    H244784   1.479   3.293   3.897  1.0209  0.1476  0.7918
 7765TIP3   OH244785   5.197   0.141  16.937 -0.0795 -0.6929 -0.1023
 7765TIP3    H144786   5.128   0.134  17.004 -0.1810  0.6507 -0.0365
 7765TIP3    H244787   5.198   0.055  16.895 -0.9277 -1.1402  0.7404
 7766TIP3   OH244788   3.258   3.958  11.359 -0.0615  0.0542 -0.1315
 7766TIP3    H144789   3.301   4.037  11.390  1.3228 -0.5525 -0.4222
 7766TIP3    H244790   3.175   3.989  11.323 -0.6123  1.0626  1.8751
 7767TIP3   OH244791   0.294   1.362  16.152  0.4433 -0.8791  0.1353
 7767TIP3    H144792   0.363   1.391  16.211  0.4746  0.2709 -0.4201
 7767TIP3    H244793   0.218   1.416  16.177 -0.2057 -1.9868  0.6115
 7768TIP3   OH244794   2.010   3.628   2.383 -0.0046  0.0726  0.4378
 7768TIP3    H144795   2.053   3.682   2.317  1.4986 -2.8251 -1.1237
 7768TIP3    H244796   1.952   3.571   2.333  0.4001 -1.5177  1.6994
 7769TIP3   OH244797   2.914   1.429  11.691 -0.4598  0.5636 -0.4822
 7769TIP3    H144798   2.891   1.386  11.773 -0.6098  0.5842 -0.5136
 7769TIP3    H244799   2.947   1.358  11.636  0.7254  0.7243 -0.0130
 7770TIP3   OH244800   6.142   0.171   3.610  0.1824  0.4350  0.4646
 7770TIP3    H144801   6.147   0.231   3.535 -0.6368  0.0558  0.0912
 7770TIP3    H244802   6.081   0.214   3.670  1.7333  1.3207  1.4859
 7771TIP3   OH244803   6.633   1.542   5.983 -0.0308  0.1581 -0.3825
 7771TIP3    H144804   6.603   1.556   6.073 -0.9863  0.2981 -0.7040
 7771TIP3    H244805   6.728   1.554   5.986 -0.2966  2.8326  0.1384
 7772TIP3   OH244806   6.033   0.551   4.928 -0.3930 -0.0782 -0.3431
 7772TIP3    H144807   6.018   0.541   4.834 -2.0145  0.0823 -0.1368
 7772TIP3    H244808   5.987   0.632   4.951 -1.3474 -0.9139  0.8324
 7773TIP3   OH244809   3.301   2.630   3.883 -0.1931 -0.1260 -0.0530
 7773TIP3    H144810   3.279   2.721   3.903  2.0350  0.9213 -1.8367
 7773TIP3    H244811   3.388   2.618   3.922 -0.0282 -1.1667 -0.7088
 7774TIP3   OH244812   5.370   2.320   2.295 -0.0467 -0.0483  0.2658
 7774TIP3    H144813   5.408   2.303   2.208 -0.3547  0.1474  0.0939
 7774TIP3    H244814   5.281   2.285   2.290 -1.0589  2.3972 -0.4100
 7775TIP3   OH244815   5.655   0.409  12.879 -0.5002 -0.0308  0.3218
 7775TIP3    H144816   5.589   0.405  12.948 -2.0634 -0.6011 -1.1358
 7775TIP3    H244817   5.737   0.387  12.924 -1.0510  1.7635  2.4051
 7776TIP3   OH244818   6.047   4.910   5.011  0.2242  0.3507 -0.0959
 7776TIP3    H144819   6.041   4.831   4.957 -0.0095  0.2562  0.0681
 7776TIP3    H244820   6.100   4.883   5.086 -1.7673 -0.3239  1.1419
 7777TIP3   OH244821   0.530   1.898   2.312  0.3099 -0.4815  0.2366
 7777TIP3    H144822   0.612   1.865   2.275 -0.4406 -0.5345 -1.4704
 7777TIP3    H244823   0.541   1.993   2.313  0.4968 -0.5017  0.2585
 7778TIP3   OH244824   0.268   3.783   3.077 -0.8151  0.4210 -0.1667
 7778TIP3    H144825   0.197   3.747   3.024  0.0368 -0.0788 -0.9966
 7778TIP3    H244826   0.240   3.769   3.167 -1.1201 -1.0993 -0.4760
 7779TIP3   OH244827   0.151   2.405  11.215 -0.6549  0.0795 -0.3567
 7779TIP3    H144828   0.114   2.336  11.160 -2.0113  0.3985  0.1282
 7779TIP3    H244829   0.114   2.486  11.181  1.7944  0.7537 -1.6459
 7780TIP3   OH244830   5.189   5.247  12.044 -0.1954 -0.4122  0.0853
 7780TIP3    H144831   5.096   5.266  12.038 -0.0595  0.2730  0.0817
 7780TIP3    H244832   5.202   5.214  12.133 -0.5905 -1.3755 -0.2095
 7781TIP3   OH244833   4.917   0.690   0.037 -0.0358 -0.1076  0.5089
 7781TIP3    H144834   4.836   0.672   0.084 -1.7407  0.7671 -1.8588
 7781TIP3    H244835   4.927   0.785   0.041  0.5355 -0.1532  0.2897
 7782TIP3   OH244836   6.600   1.903   2.828  0.1219  0.0124  0.0714
 7782TIP3    H144837   6.654   1.832   2.795 -0.1238  0.6103 -1.7206
 7782TIP3    H244838   6.511   1.867   2.829 -0.0040  0.2677 -0.8454
 7783TIP3   OH244839   5.496   1.490  17.478 -0.5085 -0.1230  0.4030
 7783TIP3    H144840   5.433   1.420  17.494 -0.8241  0.3342  1.2350
 7783TIP3    H244841   5.572   1.447  17.440 -0.2948 -1.0776  1.8444
 7784TIP3   OH244842   5.372   1.142   0.213 -0.1447  0.1120 -0.4579
 7784TIP3    H144843   5.291   1.151   0.161  0.0214 -0.1781 -0.7657
 7784TIP3    H244844   5.382   1.048   0.226  0.1746  0.1458 -0.4620
 7785TIP3   OH244845   4.243   0.290   1.286 -0.1125  0.1381  0.1512
 7785TIP3    H144846   4.335   0.311   1.300  0.1855 -0.5931 -0.6265
 7785TIP3    H244847   4.209   0.268   1.373  0.4569  0.3731  0.4325
 7786TIP3   OH244848   2.541   4.581  15.645 -0.5101  0.4073 -0.3255
 7786TIP3    H144849   2.453   4.580  15.682 -0.3966 -0.6105 -0.0711
 7786TIP3    H244850   2.591   4.521  15.699 -0.2871 -0.9879 -1.9856
 7787TIP3   OH244851   4.317   2.030   6.387 -0.9926  0.6746 -0.1952
 7787TIP3    H144852   4.250   1.961   6.395  1.7811 -2.1082  0.9367
 7787TIP3    H244853   4.335   2.056   6.477 -1.1479  2.0965 -0.5510
 7788TIP3   OH244854   5.428   0.310  11.201  0.3237  0.0284 -0.2571
 7788TIP3    H144855   5.429   0.219  11.170  0.7558  0.3467 -1.2217
 7788TIP3    H244856   5.359   0.312  11.267 -0.7391 -0.6542 -1.3079
 7789TIP3   OH244857   5.129   3.989   1.220 -0.4990 -0.1145 -0.0934
 7789TIP3    H144858   5.217   3.978   1.258  0.1444 -0.0067 -1.4823
 7789TIP3    H244859   5.105   3.901   1.191  0.0840  0.1890 -1.6080
 7790TIP3   OH244860   6.047   1.859  17.386 -0.1711 -0.3550  0.6750
 7790TIP3    H144861   5.964   1.899  17.412  0.9906  1.6596  1.5294
 7790TIP3    H244862   6.111   1.898  17.446  1.4819 -1.3976 -0.3657
 7791TIP3   OH244863   6.328   2.484  14.126 -0.1837 -0.4884 -0.2247
 7791TIP3    H144864   6.402   2.518  14.177 -0.0771 -2.4546  1.0024
 7791TIP3    H244865   6.366   2.417  14.070 -0.6647  0.1860 -1.3970
 7792TIP3   OH244866   6.216   1.919  13.320 -0.1897  0.3029 -0.6984
 7792TIP3    H144867   6.246   1.829  13.305  0.8968  0.7011 -1.0141
 7792TIP3    H244868   6.122   1.911  13.335 -0.4146 -0.7036 -2.4487
 7793TIP3   OH244869   3.421   0.931   4.514  0.0002 -0.3635  0.4804
 7793TIP3    H144870   3.490   0.939   4.580 -1.2550  1.0957  1.7174
 7793TIP3    H244871   3.388   1.021   4.503 -1.9521 -1.0547  0.2562
 7794TIP3   OH244872   0.243   6.383  14.811 -0.0055 -0.6176 -0.2194
 7794TIP3    H144873   0.296   6.325  14.755 -1.1889 -0.9425 -1.0502
 7794TIP3    H244874   0.155   6.346  14.806 -0.3065 -0.1233  1.1836
 7795TIP3   OH244875   3.511   5.999   1.436 -0.0880  0.0733 -0.0102
 7795TIP3    H144876   3.419   5.982   1.454 -0.0675 -1.8318 -1.3504
 7795TIP3    H244877   3.558   5.940   1.495  0.2774  0.8022  0.4399
 7796TIP3   OH244878   1.279   4.012   3.664 -0.5111  0.0662 -0.5770
 7796TIP3    H144879   1.325   4.050   3.738 -1.2471  2.1666 -1.1371
 7796TIP3    H244880   1.338   4.024   3.590 -0.7141  0.0138 -0.7482
 7797TIP3   OH244881   1.242   0.825  14.364 -0.2156  0.3791  0.0938
 7797TIP3    H144882   1.269   0.815  14.273 -2.1154 -0.6997 -0.4127
 7797TIP3    H244883   1.276   0.910  14.390  2.7474 -0.4566 -0.7081
 7798TIP3   OH244884   0.803   4.065  13.386  0.5139  0.4356 -0.1342
 7798TIP3    H144885   0.774   4.112  13.464  0.9523  0.8029 -0.1889
 7798TIP3    H244886   0.777   4.122  13.313  0.1262  0.1059 -0.2625
 7799TIP3   OH244887   3.652   4.181  17.436 -1.0134  0.3422 -0.1966
 7799TIP3    H144888   3.683   4.246  17.373  1.0289 -0.7058 -0.3518
 7799TIP3    H244889   3.612   4.113  17.382 -0.1707 -0.0743 -0.3134
 7800TIP3   OH244890   0.941   1.219  15.936 -0.0251  0.1689  0.2899
 7800TIP3    H144891   0.955   1.126  15.951  1.1566  0.3382  0.3686
 7800TIP3    H244892   1.017   1.246  15.883  0.2247  1.2967  1.1888
 7801TIP3   OH244893   4.895   0.912  15.788 -0.1791  0.3115  0.3010
 7801TIP3    H144894   4.925   0.997  15.756  1.3993 -0.0181  0.7750
 7801TIP3    H244895   4.956   0.891  15.859 -0.1259 -1.5009 -0.2299
 7802TIP3   OH244896   1.519   2.960  16.125  0.6096 -0.3364 -0.3979
 7802TIP3    H144897   1.494   2.897  16.193  1.3212 -0.2584 -0.0566
 7802TIP3    H244898   1.590   3.010  16.164  0.9595 -0.2243 -1.1649
 7803TIP3   OH244899   3.629   4.085   0.232  0.4304 -0.3395 -0.0086
 7803TIP3    H144900   3.682   4.104   0.155 -1.5488  1.4379 -1.0388
 7803TIP3    H244901   3.647   4.157   0.293  1.3418 -1.2876  0.8941
 7804TIP3   OH244902   4.640   5.111   4.259  0.5277 -0.1633  0.5150
 7804TIP3    H144903   4.648   5.016   4.263  2.5022 -0.0556  0.2948
 7804TIP3    H244904   4.694   5.137   4.184  0.9610  1.1872  1.2481
 7805TIP3   OH244905   2.104   0.735  15.703 -0.2909  0.2032 -0.1846
 7805TIP3    H144906   2.073   0.672  15.638 -1.6254 -2.3882  2.7360
 7805TIP3    H244907   2.026   0.787  15.725 -0.1290  0.3119  0.1396
 7806TIP3   OH244908   1.895   1.074  11.211 -0.1347  0.0888  0.1528
 7806TIP3    H144909   1.860   1.159  11.187  0.1410  0.4103  0.8592
 7806TIP3    H244910   1.887   1.071  11.307  2.8654  0.6916  0.5179
 7807TIP3   OH244911   0.653   5.374  12.928 -0.0950 -0.4204 -0.6311
 7807TIP3    H144912   0.716   5.325  12.981  1.6539  1.0406 -1.2226
 7807TIP3    H244913   0.630   5.449  12.982  0.2090  0.0662 -1.1656
 7808TIP3   OH244914   0.704   5.151  17.191  0.9505 -0.3430  1.0654
 7808TIP3    H144915   0.677   5.149  17.100  0.4267 -1.2865  1.2215
 7808TIP3    H244916   0.631   5.191  17.237  1.9203  1.7627  0.8850
 7809TIP3   OH244917   2.992   3.462  11.211 -0.2863 -1.2293  0.5030
 7809TIP3    H144918   3.073   3.480  11.164  0.9000 -2.0926  2.1188
 7809TIP3    H244919   2.923   3.485  11.149  1.0976  2.1077 -0.0352
 7810TIP3   OH244920   5.922   2.165  11.880  0.4235  0.3124  0.1284
 7810TIP3    H144921   5.888   2.083  11.845  1.6779 -0.7802  1.3218
 7810TIP3    H244922   5.952   2.214  11.803  1.1376 -1.0654 -0.5099
 7811TIP3   OH244923   6.309   3.841   2.412  0.1545  0.3716 -0.9172
 7811TIP3    H144924   6.339   3.909   2.352 -1.9267  2.4664  0.2535
 7811TIP3    H244925   6.285   3.888   2.491 -0.2748 -1.9093  0.3925
 7812TIP3   OH244926   0.899   2.101  14.369  0.3894  0.5617  0.2059
 7812TIP3    H144927   0.818   2.102  14.318  0.7718  1.1768 -0.4134
 7812TIP3    H244928   0.937   2.015  14.353  0.4240  0.6909 -0.4360
 7813TIP3   OH244929   4.971   1.666  14.688 -0.2344 -0.5012 -0.3260
 7813TIP3    H144930   4.876   1.669  14.689 -0.2109  0.6677 -0.0484
 7813TIP3    H244931   4.998   1.748  14.647  0.6476 -1.0114 -0.8024
 7814TIP3   OH244932   4.353   6.466   2.383  0.1022 -0.4332  0.2211
 7814TIP3    H144933   4.313   6.530   2.441 -0.1323 -1.7399  1.5650
 7814TIP3    H244934   4.371   6.514   2.303  1.7729  1.8344  1.8300
 7815TIP3   OH244935   6.398   2.142  16.857 -0.1420 -0.5280 -0.5599
 7815TIP3    H144936   6.429   2.227  16.824 -1.8584 -0.3722 -1.8446
 7815TIP3    H244937   6.426   2.142  16.949 -0.4205  1.6209 -0.4087
 7816TIP3   OH244938   4.158   6.310   2.883  0.4124 -0.1235  0.2473
 7816TIP3    H144939   4.160   6.231   2.937  0.6795  0.0931  0.5665
 7816TIP3    H244940   4.151   6.279   2.793  1.4173 -0.5396  0.3039
 7817TIP3   OH244941   6.052   1.133  14.495  0.0445 -0.1242  0.4596
 7817TIP3    H144942   5.980   1.122  14.556 -0.9201  0.1265 -0.6082
 7817TIP3    H244943   6.039   1.065  14.428 -0.1900  0.9752 -0.6527
 7818TIP3   OH244944   4.720   2.040   3.486  0.5120  0.6603  0.5364
 7818TIP3    H144945   4.758   2.064   3.401 -0.2889  1.3509  0.3544
 7818TIP3    H244946   4.714   1.945   3.484 -0.3735  0.7228 -0.5856
 7819TIP3   OH244947   1.332   6.609   2.003 -0.0416  0.3456 -0.1727
 7819TIP3    H144948   1.265   6.579   2.064  1.1040  0.8660  1.4176
 7819TIP3    H244949   1.323   6.704   2.001  0.5346  0.4080 -0.0818
 7820TIP3   OH244950   2.828   2.971  13.758  0.1114  0.4136  0.2119
 7820TIP3    H144951   2.911   2.954  13.802  1.2819  0.5955 -1.7883
 7820TIP3    H244952   2.821   3.066  13.756  0.6212  0.4416 -0.9059
 7821TIP3   OH244953   2.858   0.153   2.615  0.0349  0.7270 -0.1900
 7821TIP3    H144954   2.866   0.063   2.647 -0.7951  1.3270  1.8786
 7821TIP3    H244955   2.922   0.202   2.666 -1.5171  1.7770  0.8125
 7822TIP3   OH244956   2.262   3.174  15.063 -0.4857  0.1799 -0.7345
 7822TIP3    H144957   2.300   3.128  14.988 -0.3710  0.2787 -0.7371
 7822TIP3    H244958   2.337   3.192  15.121 -0.2170  1.9097 -1.5312
 7823TIP3   OH244959   5.377   3.583   2.678 -0.1559  0.2522  0.3647
 7823TIP3    H144960   5.380   3.675   2.653 -0.8436  0.4603  1.0091
 7823TIP3    H244961   5.460   3.547   2.648 -0.0884  0.9676 -0.3291
 7824TIP3   OH244962   4.962   6.242   5.941  0.0271  0.6556  0.3038
 7824TIP3    H144963   4.978   6.292   5.861 -2.1809  0.7537 -0.1274
 7824TIP3    H244964   5.046   6.199   5.960  0.3605 -0.1032 -2.5442
 7825TIP3   OH244965   5.565   3.181   3.208  0.2635  0.5061 -0.1105
 7825TIP3    H144966   5.494   3.116   3.215  0.6871  0.0782  0.2756
 7825TIP3    H244967   5.549   3.240   3.281  0.4296  0.2806  0.1104
 7826TIP3   OH244968   6.706   3.638  15.144  0.3181 -0.3007  0.2872
 7826TIP3    H144969   6.662   3.687  15.214  1.2066  1.2495 -0.1966
 7826TIP3    H244970   6.782   3.691  15.122  0.1587 -0.8530 -1.7418
 7827TIP3   OH244971   0.129   4.694   2.035 -0.5377  0.2539  0.4830
 7827TIP3    H144972   0.100   4.660   2.120 -0.8330  2.1236  1.1893
 7827TIP3    H244973   0.077   4.646   1.971 -1.8921  0.2997  1.5008
 7828TIP3   OH244974   0.049   0.796  11.315  0.5653 -0.0463 -0.2237
 7828TIP3    H144975  -0.022   0.798  11.251  0.7504  0.1507 -0.4198
 7828TIP3    H244976   0.030   0.718  11.368 -0.3104  0.5095  0.3081
 7829TIP3   OH244977   3.540   4.885  17.193 -0.3762  0.0794  0.0107
 7829TIP3    H144978   3.499   4.970  17.180 -0.9052 -0.0907  0.5055
 7829TIP3    H244979   3.524   4.864  17.285  2.4250  0.8136  0.7333
 7830TIP3   OH244980   4.820   2.209  13.361 -0.2835  0.1067  0.2242
 7830TIP3    H144981   4.889   2.243  13.417 -0.5204  2.0308 -0.5653
 7830TIP3    H244982   4.739   2.232  13.406 -0.4497  0.4007 -0.2170
 7831TIP3   OH244983   2.556   1.372   3.231 -0.8234 -0.3424  0.7485
 7831TIP3    H144984   2.593   1.425   3.161 -0.9641  1.1596  1.7650
 7831TIP3    H244985   2.489   1.318   3.188 -0.6077  0.2388 -0.3307
 7832TIP3   OH244986   0.488   4.567  16.766 -0.3373 -0.0211 -0.1765
 7832TIP3    H144987   0.505   4.511  16.690  0.8151 -0.9538  0.7274
 7832TIP3    H244988   0.555   4.541  16.830 -0.4508  1.6527  0.6727
 7833TIP3   OH244989   1.312   0.379  16.085 -0.0714  0.2763  0.0812
 7833TIP3    H144990   1.399   0.400  16.121  0.9008 -1.6718 -0.9343
 7833TIP3    H244991   1.274   0.318  16.149 -1.6687  2.7272  1.6028
 7834TIP3   OH244992   4.547   0.409   2.204 -0.4372  0.1633  0.2324
 7834TIP3    H144993   4.466   0.376   2.166 -0.7915  1.1617  0.0888
 7834TIP3    H244994   4.610   0.407   2.133 -0.7438  0.7797 -0.0659
 7835TIP3   OH244995   0.970   5.355  12.442  0.1740 -0.8566 -0.4688
 7835TIP3    H144996   1.033   5.392  12.380 -0.1822  1.1580  0.3169
 7835TIP3    H244997   1.010   5.368  12.528 -1.5878  1.1361  0.1095
 7836TIP3   OH244998   6.653   3.532   3.511  0.1664 -0.1249  0.0603
 7836TIP3    H144999   6.590   3.584   3.460 -0.1980  1.0301  1.6331
 7836TIP3    H245000   6.623   3.442   3.502 -0.2015  0.1123 -1.3004
 7837TIP3   OH245001   0.389   1.794   2.538  0.2940 -0.1242  0.8115
 7837TIP3    H145002   0.409   1.821   2.448 -1.1832 -1.5582 -0.0084
 7837TIP3    H245003   0.408   1.871   2.591  5.1999 -0.3990 -0.0611
 7838TIP3   OH245004   1.923   0.398   1.713  0.0920  0.0566  0.6059
 7838TIP3    H145005   1.972   0.347   1.778  0.3735 -0.2316  0.1734
 7838TIP3    H245006   1.906   0.481   1.757 -0.0447 -0.2667  1.1860
 7839TIP3   OH245007   3.597   6.615  14.752  0.3495 -0.7620 -0.1170
 7839TIP3    H145008   3.553   6.686  14.798  1.5254  1.1620 -1.8121
 7839TIP3    H245009   3.689   6.625  14.774  0.9004  0.0105 -2.5280
 7840TIP3   OH245010   5.292   4.927   4.538  0.3299 -0.4593 -0.4373
 7840TIP3    H145011   5.367   4.975   4.574 -1.3564  0.9190  1.4901
 7840TIP3    H245012   5.239   4.904   4.615 -2.3382  0.5925 -1.8410
 7841TIP3   OH245013   0.068   5.225  14.446 -0.2874  0.1052  0.0899
 7841TIP3    H145014   0.153   5.193  14.417 -0.7999 -0.5667 -0.7190
 7841TIP3    H245015   0.072   5.320  14.432  0.5903  0.1867  0.7881
 7842TIP3   OH245016   2.327   2.326  17.002 -0.5236  0.2938  0.0073
 7842TIP3    H145017   2.396   2.284  16.951  1.2351  2.2025  0.6597
 7842TIP3    H245018   2.336   2.287  17.090 -0.8101 -0.0174 -0.0984
 7843TIP3   OH245019   0.920   5.634   1.362 -0.0353  0.0127  0.1598
 7843TIP3    H145020   0.898   5.571   1.431  1.4349 -0.7418  0.0021
 7843TIP3    H245021   1.010   5.610   1.337  0.9114  2.7098  0.6691
 7844TIP3   OH245022   5.324   3.329  10.801  0.0543  0.6792  0.5433
 7844TIP3    H145023   5.320   3.373  10.886 -0.6864  2.5737 -0.3984
 7844TIP3    H245024   5.280   3.389  10.742  0.4397 -0.6562 -1.1738
 7845TIP3   OH245025   0.163   0.504   1.864  0.0864  0.4915 -0.0987
 7845TIP3    H145026   0.106   0.518   1.788  0.2121 -1.1704 -0.5413
 7845TIP3    H245027   0.249   0.535   1.836  0.1973 -0.3817 -0.7622
 7846TIP3   OH245028   0.578   2.348   0.304  0.0910 -0.2295 -0.1583
 7846TIP3    H145029   0.583   2.311   0.216  2.4110  0.8838 -0.5815
 7846TIP3    H245030   0.669   2.367   0.327 -0.5091 -0.0098  2.2846
 7847TIP3   OH245031   6.451   2.022   0.258 -0.0126  0.0047 -0.6328
 7847TIP3    H145032   6.376   1.993   0.206 -0.4583 -1.3173  0.6672
 7847TIP3    H245033   6.412   2.071   0.331  0.0702 -2.7236  1.4146
 7848TIP3   OH245034   0.451   2.573   4.415 -0.2865 -0.1077 -0.1059
 7848TIP3    H145035   0.482   2.485   4.394  0.1438 -0.0397  0.2247
 7848TIP3    H245036   0.417   2.608   4.332 -0.0073 -0.4020 -0.3432
 7849TIP3   OH245037   4.178   6.614   0.244 -0.0244 -0.2132 -0.2698
 7849TIP3    H145038   4.259   6.664   0.227  0.6463 -1.2597 -0.2586
 7849TIP3    H245039   4.114   6.680   0.268  0.7120  0.6952 -0.7215
 7850TIP3   OH245040   6.642   2.171   3.639  0.2689  0.2303 -0.0045
 7850TIP3    H145041   6.549   2.148   3.634  0.0314  1.0526  0.4158
 7850TIP3    H245042   6.686   2.088   3.655 -0.5246 -0.0091  1.1438
 7851TIP3   OH245043   6.658   0.291   0.207  0.1591  0.3651  0.0420
 7851TIP3    H145044   6.592   0.229   0.239  0.5580  0.1017  0.3577
 7851TIP3    H245045   6.736   0.238   0.193  0.4255  0.7490  0.0584
 7852TIP3   OH245046   4.444   4.815   5.624 -0.6766 -0.3608  0.2251
 7852TIP3    H145047   4.475   4.905   5.616  0.4336 -0.8519 -1.5928
 7852TIP3    H245048   4.436   4.784   5.534 -1.5826 -1.9147  0.7973
 7853TIP3   OH245049   0.243   3.772  14.678  0.2580  0.1239  0.4816
 7853TIP3    H145050   0.337   3.785  14.686  0.1126  2.1126 -0.2664
 7853TIP3    H245051   0.233   3.702  14.614  1.2160 -0.4845  0.9856
 7854TIP3   OH245052   3.404   4.444   0.449  0.6252 -0.1309 -0.8478
 7854TIP3    H145053   3.344   4.372   0.467  1.3671 -0.9257 -1.4732
 7854TIP3    H245054   3.490   4.409   0.469  0.9525  0.7561 -0.6632
 7855TIP3   OH245055   4.032   2.259   6.139  0.3575  0.3892  0.5081
 7855TIP3    H145056   4.020   2.284   6.047 -0.0762 -0.9595  0.1762
 7855TIP3    H245057   4.007   2.338   6.188 -0.6311  0.7410 -0.4992
 7856TIP3   OH245058   3.844   4.825   2.281  0.1359  0.6849 -0.1357
 7856TIP3    H145059   3.753   4.855   2.288  0.5676  2.0891 -0.3286
 7856TIP3    H245060   3.846   4.743   2.331 -1.6965 -0.4475 -1.7819
 7857TIP3   OH245061   4.128   0.451   5.001  0.0767 -0.8350  0.6021
 7857TIP3    H145062   4.127   0.538   5.040  0.5195 -0.3742 -0.3899
 7857TIP3    H245063   4.050   0.448   4.945  1.4800 -0.0214 -1.5369
 7858TIP3   OH245064   1.483   6.534   3.270  0.0193  0.4209 -1.0344
 7858TIP3    H145065   1.495   6.527   3.175  1.2553  0.9720 -0.9395
 7858TIP3    H245066   1.506   6.625   3.290 -1.2802  0.6233 -0.3311
 7859TIP3   OH245067   2.796   0.565   1.449 -0.0874 -0.5143 -0.0629
 7859TIP3    H145068   2.728   0.618   1.408  0.2521 -1.0328 -1.3450
 7859TIP3    H245069   2.877   0.592   1.406  0.5472  0.0673  1.4202
 7860TIP3   OH245070   1.697   5.852  15.181  0.0064 -0.0385 -0.0456
 7860TIP3    H145071   1.716   5.908  15.105 -0.8518 -1.0265 -1.0251
 7860TIP3    H245072   1.749   5.773  15.166  0.0875 -0.1072  0.5802
 7861TIP3   OH245073   0.172   2.583   0.378 -0.3020  0.9048  0.0163
 7861TIP3    H145074   0.141   2.555   0.291 -2.1263  0.1819  0.8417
 7861TIP3    H245075   0.133   2.669   0.390 -1.3080  0.3760  0.6921
 7862TIP3   OH245076   1.750   2.087   1.186 -0.1453 -0.0036 -0.0118
 7862TIP3    H145077   1.834   2.114   1.151  0.0798 -1.4227 -0.6183
 7862TIP3    H245078   1.759   1.993   1.203 -1.9698 -0.4598 -1.2577
 7863TIP3   OH245079   6.288   6.663  13.819  0.3071  0.5397  0.2495
 7863TIP3    H145080   6.293   6.758  13.819  1.6810  0.4979 -0.9061
 7863TIP3    H245081   6.371   6.634  13.780  0.7314 -1.1820  2.2192
 7864TIP3   OH245082   3.535   3.613  11.901  0.0201  0.0167 -0.1448
 7864TIP3    H145083   3.561   3.641  11.813  0.1506 -0.8781 -0.4119
 7864TIP3    H245084   3.501   3.524  11.888  0.2161 -0.2008  0.7352
 7865TIP3   OH245085   2.866   0.216  12.263 -0.5558 -0.0276 -0.0191
 7865TIP3    H145086   2.787   0.259  12.296 -1.5560 -0.7739 -1.3212
 7865TIP3    H245087   2.867   0.131  12.306 -0.5166 -0.0541 -0.0728
 7866TIP3   OH245088   1.198   4.755   0.428  0.0271 -0.3913 -0.3388
 7866TIP3    H145089   1.272   4.718   0.379 -0.6586 -1.3230 -0.7036
 7866TIP3    H245090   1.175   4.687   0.492  1.0894  0.9177  1.5275
 7867TIP3   OH245091   3.780   3.899   3.631  0.3980 -0.0712 -0.2807
 7867TIP3    H145092   3.712   3.944   3.680 -0.2220 -1.8543  0.5717
 7867TIP3    H245093   3.749   3.898   3.541 -0.3476 -0.2198 -0.0229
 7868TIP3   OH245094   2.373   2.783   4.196 -0.1116  0.0423 -0.5825
 7868TIP3    H145095   2.339   2.701   4.160  0.2897  0.3526 -1.6941
 7868TIP3    H245096   2.295   2.836   4.214 -0.3048  0.0884 -1.5094
 7869TIP3   OH245097   5.036   1.650  17.442  0.2166 -0.3938  0.1848
 7869TIP3    H145098   5.124   1.629  17.474  0.9690 -3.0282 -3.0138
 7869TIP3    H245099   5.052   1.702  17.363 -1.1336 -0.5657 -0.2203
 7870TIP3   OH245100   1.393   5.404  15.566 -0.0553 -0.6196  0.1893
 7870TIP3    H145101   1.438   5.486  15.583 -0.0631 -1.1095  3.1407
 7870TIP3    H245102   1.315   5.429  15.516  0.5900  0.9630 -0.0777
 7871TIP3   OH245103   0.538   2.416  15.041  0.2100  0.7142  0.9153
 7871TIP3    H145104   0.604   2.348  15.034 -0.5578  0.0724 -0.5904
 7871TIP3    H245105   0.454   2.369  15.038 -0.3294  1.6779  0.1422
 7872TIP3   OH245106   2.058   3.000   3.046  0.0743  0.2349  0.1809
 7872TIP3    H145107   2.125   2.999   3.114  0.9682 -2.4854 -0.6236
 7872TIP3    H245108   2.071   3.084   3.001  0.4520  1.4128  2.3260
 7873TIP3   OH245109   2.219   6.008  15.500  0.3596 -0.5806 -0.1996
 7873TIP3    H145110   2.125   6.021  15.510  0.4427  0.4633 -0.7021
 7873TIP3    H245111   2.240   5.939  15.564 -0.7894 -1.0761 -0.3304
 7874TIP3   OH245112   1.924   3.745  15.934  0.7839 -0.5899 -0.2056
 7874TIP3    H145113   1.871   3.770  15.858 -0.6812  2.6070  1.6742
 7874TIP3    H245114   1.871   3.681  15.980 -0.8634  1.3544  0.7724
 7875TIP3   OH245115   2.008   6.181   0.944 -0.0029  0.1041 -0.2876
 7875TIP3    H145116   1.945   6.113   0.919  1.0643 -1.1127  0.1569
 7875TIP3    H245117   2.031   6.224   0.862  0.1835 -0.8950 -0.7857
 7876TIP3   OH245118   6.216   4.783   2.089 -0.4365  0.8311  0.1230
 7876TIP3    H145119   6.196   4.873   2.116 -1.3742  0.4854  0.6314
 7876TIP3    H245120   6.136   4.734   2.107 -0.3644  0.1298 -1.2759
 7877TIP3   OH245121   6.273   2.747   3.419  0.6129 -1.0178  0.0857
 7877TIP3    H145122   6.363   2.718   3.408  0.3673 -1.8026  0.0693
 7877TIP3    H245123   6.280   2.832   3.464  1.3827 -0.6017 -0.7842
 7878TIP3   OH245124   1.430   1.311  16.587 -0.0471  0.4138 -0.5490
 7878TIP3    H145125   1.374   1.238  16.612  1.4630 -1.0541 -1.2577
 7878TIP3    H245126   1.424   1.316  16.492 -2.6330  3.3881 -0.4061
 7879TIP3   OH245127   6.312   0.238  17.331  0.2374  0.0301  0.4141
 7879TIP3    H145128   6.232   0.200  17.366  0.7931  0.1507  1.8515
 7879TIP3    H245129   6.281   0.303  17.267 -0.7483 -2.2702 -1.6494
 7880TIP3   OH245130   5.433   5.826  13.826  0.1744 -0.0808 -0.7734
 7880TIP3    H145131   5.464   5.867  13.906 -1.1053 -0.0640 -0.2663
 7880TIP3    H245132   5.341   5.850  13.820 -0.6398 -2.7295 -0.4885
 7881TIP3   OH245133   1.097   4.322  16.305  0.4343  0.5930 -0.1051
 7881TIP3    H145134   1.060   4.312  16.217  0.0402  0.5284  0.0695
 7881TIP3    H245135   1.070   4.242  16.351 -1.1591  1.5763  0.7324
 7882TIP3   OH245136   5.847   3.226  12.079  0.2048 -0.0384  0.3546
 7882TIP3    H145137   5.875   3.141  12.046 -0.4332 -0.7130  1.4875
 7882TIP3    H245138   5.834   3.212  12.173  0.3287  1.3761  0.6132
 7883TIP3   OH245139   1.137   3.335  16.201  0.1820 -0.4826 -0.2995
 7883TIP3    H145140   1.204   3.266  16.200  2.0769  1.2186  0.9569
 7883TIP3    H245141   1.142   3.375  16.114  1.1710 -0.0704 -0.0665
 7884TIP3   OH245142   4.220   6.565   1.169  0.0781  0.5731  0.0066
 7884TIP3    H145143   4.302   6.610   1.148  1.0957 -1.2446 -0.0842
 7884TIP3    H245144   4.233   6.475   1.139 -1.6522  0.0327  0.7275
 7885TIP3   OH245145   2.912   0.700   1.674  0.1625  0.4474 -0.1360
 7885TIP3    H145146   2.891   0.638   1.604 -2.7479  1.0787  0.0501
 7885TIP3    H245147   3.006   0.688   1.689  0.3254 -1.6797 -2.2059
 7886TIP3   OH245148   5.847   5.027  10.538 -0.4485  0.0794 -0.0743
 7886TIP3    H145149   5.881   5.008  10.451  0.0589 -0.9067  0.3299
 7886TIP3    H245150   5.770   4.970  10.547 -2.7667  2.7643 -1.2451
 7887TIP3   OH245151   0.136   2.680   2.276  0.4142  0.3078 -0.1176
 7887TIP3    H145152   0.042   2.695   2.283  0.4899  0.8701 -0.2114
 7887TIP3    H245153   0.145   2.611   2.211  0.0432 -0.0904  0.2566
 7888TIP3   OH245154   4.631   3.619   1.774 -0.6210 -0.2299 -0.6167
 7888TIP3    H145155   4.591   3.607   1.688  1.1184  0.9029 -1.6339
 7888TIP3    H245156   4.597   3.546   1.826 -0.6385 -1.7519 -2.6465
 7889TIP3   OH245157   2.134   4.660  13.051 -0.3311  0.3492 -0.3795
 7889TIP3    H145158   2.081   4.740  13.053  0.4475  0.8876 -0.5515
 7889TIP3    H245159   2.209   4.683  12.995 -0.1016 -0.5072 -0.4377
 7890TIP3   OH245160   4.847   3.348   1.508 -0.2134  0.6675 -0.1063
 7890TIP3    H145161   4.778   3.312   1.453 -0.2758  0.4310  0.1217
 7890TIP3    H245162   4.833   3.443   1.505 -2.3212  0.5577  2.1349
 7891TIP3   OH245163   4.602   4.932  15.080 -0.0320 -0.2147 -0.4672
 7891TIP3    H145164   4.608   4.961  15.171  3.3501 -0.4155 -0.4981
 7891TIP3    H245165   4.512   4.899  15.071 -0.7904  0.7789  2.4579
 7892TIP3   OH245166   5.991   0.151   0.581  0.2223 -0.3858  0.2523
 7892TIP3    H145167   5.897   0.134   0.584  0.0304  0.6885  1.5737
 7892TIP3    H245168   5.998   0.247   0.582  1.3175 -0.4209 -1.1451
 7893TIP3   OH245169   4.570   3.537  16.704  0.3438  0.1091 -0.3323
 7893TIP3    H145170   4.569   3.456  16.755 -0.4989 -1.2070 -2.2959
 7893TIP3    H245171   4.659   3.571  16.715  0.5043 -0.6975  1.0980
 7894TIP3   OH245172   2.616   4.583   0.256 -0.0302 -0.6432  0.0800
 7894TIP3    H145173   2.664   4.501   0.267  1.1372  0.0998  0.7746
 7894TIP3    H245174   2.628   4.606   0.164  0.3717 -0.8077  0.0900
 7895TIP3   OH245175   4.117   2.923  11.916 -0.0024  0.4162  0.6501
 7895TIP3    H145176   4.075   2.933  12.001  1.6089  1.4791  1.3885
 7895TIP3    H245177   4.170   2.844  11.924  0.4730  0.7426  0.8047
 7896TIP3   OH245178   4.828   5.390  12.243 -0.1470 -0.1006 -0.1310
 7896TIP3    H145179   4.867   5.417  12.160  3.8816  1.3420  1.9925
 7896TIP3    H245180   4.871   5.307  12.264 -1.3373 -0.6045  0.3946
 7897TIP3   OH245181   4.204   3.899  17.057 -0.0750  0.4657 -0.2922
 7897TIP3    H145182   4.259   3.854  17.122 -1.0521 -1.3427 -0.6481
 7897TIP3    H245183   4.136   3.943  17.108  0.2973  0.7061  0.0036
 7898TIP3   OH245184   0.509   2.339  14.712 -0.5218  0.3398  0.3606
 7898TIP3    H145185   0.528   2.426  14.748 -2.1747 -0.1544  2.6594
 7898TIP3    H245186   0.596   2.300  14.697  0.2498  1.8106  0.7880
 7899TIP3   OH245187   6.370   0.925   2.783 -0.1861 -0.1862  0.1447
 7899TIP3    H145188   6.447   0.873   2.760  1.1716  2.0188 -0.5645
 7899TIP3    H245189   6.394   0.971   2.863 -0.4425  1.0558 -0.4546
 7900TIP3   OH245190   6.139   4.450   4.420  0.4121 -0.5399 -0.5653
 7900TIP3    H145191   6.203   4.442   4.349  0.9777  0.3407 -0.1652
 7900TIP3    H245192   6.125   4.544   4.429  1.6010 -0.5026  1.5920
 7901TIP3   OH245193   5.827   4.829  13.106 -0.3716 -0.3556  0.0514
 7901TIP3    H145194   5.809   4.862  13.018  1.2331  0.6361  0.0672
 7901TIP3    H245195   5.853   4.738  13.093  1.3781  0.2148 -0.7129
 7902TIP3   OH245196   1.673   3.419  17.458 -0.2211 -0.3098  0.3360
 7902TIP3    H145197   1.626   3.483  17.512 -1.1750 -1.3989  0.8510
 7902TIP3    H245198   1.716   3.361  17.522 -0.7359 -1.1604 -0.0712
 7903TIP3   OH245199   2.678   6.497   0.692  0.0725 -0.3284 -0.0566
 7903TIP3    H145200   2.724   6.436   0.635  0.3845 -2.7028  2.5470
 7903TIP3    H245201   2.746   6.532   0.750 -0.6023  0.1324  0.4692
 7904TIP3   OH245202   2.457   1.350   4.141 -0.6697 -0.1121  0.2064
 7904TIP3    H145203   2.396   1.342   4.214 -2.3649 -0.2164 -1.1518
 7904TIP3    H245204   2.443   1.271   4.089 -0.7824  0.7656 -1.1411
 7905TIP3   OH245205   3.531   1.212  16.911 -0.0748  0.5077 -0.3157
 7905TIP3    H145206   3.573   1.126  16.902  0.1290  0.7643 -2.3545
 7905TIP3    H245207   3.489   1.226  16.826  0.7528  2.8606 -0.3942
 7906TIP3   OH245208   0.087   1.303   4.046  0.5172 -0.5006  0.1054
 7906TIP3    H145209   0.168   1.349   4.068  0.7910 -0.0231 -1.7392
 7906TIP3    H245210   0.020   1.348   4.098  1.1864  0.2318  0.3608
 7907TIP3   OH245211   4.158   0.827   5.757 -0.7021 -0.0651  0.0547
 7907TIP3    H145212   4.108   0.758   5.800 -0.0841 -0.6039 -0.0807
 7907TIP3    H245213   4.226   0.781   5.708 -0.3842  0.6300 -0.1739
 7908TIP3   OH245214   4.238   4.210   1.113  0.4383 -0.1254 -0.5243
 7908TIP3    H145215   4.261   4.134   1.167 -1.0616 -0.4420 -0.2790
 7908TIP3    H245216   4.298   4.279   1.142 -0.6487 -0.1088  1.9873
 7909TIP3   OH245217   3.631   5.217  12.088  0.5721  0.0564 -0.2731
 7909TIP3    H145218   3.685   5.212  12.009  2.2199  0.4334  0.7701
 7909TIP3    H245219   3.665   5.294  12.135  0.0583 -0.5177  1.0810
 7910TIP3   OH245220   1.259   3.087   3.418  0.3033 -0.4346 -0.3044
 7910TIP3    H145221   1.321   3.069   3.348 -0.9007 -1.4595 -1.1534
 7910TIP3    H245222   1.192   3.141   3.378  1.1829  1.6771  0.9027
 7911TIP3   OH245223   0.983   5.512   3.375 -0.4473  0.1465  0.3617
 7911TIP3    H145224   0.948   5.546   3.457  0.3688  0.9170  0.4037
 7911TIP3    H245225   1.073   5.544   3.372  0.1793 -1.5211  0.1038
 7912TIP3   OH245226   2.269   5.368   3.509  0.5809  0.4908  0.3702
 7912TIP3    H145227   2.252   5.410   3.593  0.4460 -0.1707  0.6778
 7912TIP3    H245228   2.348   5.412   3.476  1.0617  0.2518  1.1792
 7913TIP3   OH245229   2.823   5.609   2.567  0.1237  0.1427 -0.4267
 7913TIP3    H145230   2.744   5.641   2.610  0.5329  2.6532 -1.3722
 7913TIP3    H245231   2.893   5.665   2.602  0.8223  0.6869 -2.5230
 7914TIP3   OH245232   4.720   4.075   4.904 -0.1189  0.6964  0.1723
 7914TIP3    H145233   4.795   4.053   4.959  0.1271  3.3121  1.0163
 7914TIP3    H245234   4.690   4.160   4.937 -1.4558  1.2403 -2.2297
 7915TIP3   OH245235   2.346   5.129   3.915  0.2854 -0.0758 -0.6698
 7915TIP3    H145236   2.261   5.085   3.917 -0.2849  1.0227  0.5035
 7915TIP3    H245237   2.384   5.103   3.831 -0.8147 -1.3032 -0.8170
 7916TIP3   OH245238   2.559   5.917  13.275 -0.1513  0.1096 -0.5509
 7916TIP3    H145239   2.620   5.933  13.203  0.4229  0.3679 -0.0152
 7916TIP3    H245240   2.533   5.826  13.264 -1.1590  0.5240 -1.8965
 7917TIP3   OH245241   4.375   3.604  15.694 -0.3156 -0.2639  0.3328
 7917TIP3    H145242   4.337   3.520  15.668 -1.6713  0.1176  0.9759
 7917TIP3    H245243   4.320   3.634  15.766 -0.6830  1.8028 -0.7382
 7918TIP3   OH245244   2.364   1.402   1.092  0.4686  0.0249  0.0143
 7918TIP3    H145245   2.330   1.425   1.179  1.2851 -0.6430  0.5142
 7918TIP3    H245246   2.451   1.442   1.089  0.0709  0.8760 -0.8864
 7919TIP3   OH245247   3.852   1.612   1.133 -0.4584 -0.3149 -0.4314
 7919TIP3    H145248   3.863   1.671   1.208 -0.7684 -0.1142 -0.5442
 7919TIP3    H245249   3.808   1.664   1.067  1.5827  0.1357 -1.5290
 7920TIP3   OH245250   3.687   6.142  15.512 -0.4152  0.0149  0.7875
 7920TIP3    H145251   3.640   6.179  15.588 -0.1402 -0.8953  1.4216
 7920TIP3    H245252   3.775   6.124  15.545  0.2188  1.1114 -0.2213
 7921TIP3   OH245253   6.064   4.787   1.421  0.3661  0.5761  0.2446
 7921TIP3    H145254   6.026   4.803   1.507 -0.0019  1.0240  0.0074
 7921TIP3    H245255   6.120   4.863   1.405  0.3916  0.5221  0.0711
 7922TIP3   OH245256   0.236   0.329  16.515  0.0942  0.1689  0.0647
 7922TIP3    H145257   0.171   0.263  16.491  0.6713 -1.0332  1.6318
 7922TIP3    H245258   0.200   0.371  16.593 -0.3507  1.8911 -1.0175
 7923TIP3   OH245259   3.676   4.061  16.003  0.4207  0.0844 -0.0453
 7923TIP3    H145260   3.581   4.066  16.006  0.3600  1.0292 -1.8182
 7923TIP3    H245261   3.696   4.041  15.911  1.9013 -1.5489  0.5783
 7924TIP3   OH245262   0.395   1.884  12.380 -0.1126 -1.1982 -0.2305
 7924TIP3    H145263   0.320   1.896  12.439  0.0088 -1.7468  0.0473
 7924TIP3    H245264   0.468   1.862  12.439  0.2694 -0.6551 -0.4950
 7925TIP3   OH245265   1.473   1.656  16.519 -0.2013 -0.4867 -0.5470
 7925TIP3    H145266   1.561   1.692  16.505 -0.2855 -0.7697 -1.9254
 7925TIP3    H245267   1.488   1.564  16.539 -0.1591 -0.3827 -0.0768
 7926TIP3   OH245268   5.428   2.351   5.561 -0.5560  0.1395  0.0396
 7926TIP3    H145269   5.499   2.338   5.497 -0.3373  1.4809 -0.0311
 7926TIP3    H245270   5.462   2.312   5.642 -1.0714 -2.1047 -0.7578
 7927TIP3   OH245271   0.750   4.255  13.169  0.3278  0.0430  0.1197
 7927TIP3    H145272   0.789   4.342  13.166  0.9876 -0.2368  0.3465
 7927TIP3    H245273   0.661   4.267  13.137  0.6144  0.6914 -0.4406
 7928TIP3   OH245274   1.325   3.008   4.658  0.3036  0.1959  0.1682
 7928TIP3    H145275   1.298   3.065   4.730 -2.2044  0.3791 -0.7969
 7928TIP3    H245276   1.329   2.921   4.696 -1.0380  0.2854  0.5776
 7929TIP3   OH245277   6.331   2.190   1.540  0.4168  0.0304  1.0808
 7929TIP3    H145278   6.263   2.154   1.597  0.3966  0.4541  1.3277
 7929TIP3    H245279   6.319   2.145   1.456 -0.6091  0.5865  0.9105
 7930TIP3   OH245280   0.865   2.787   3.982  0.5245  0.9508  0.0142
 7930TIP3    H145281   0.847   2.864   3.928 -0.4470 -0.1967 -1.3794
 7930TIP3    H245282   0.783   2.770   4.029 -0.5103 -1.1879 -2.3229
 7931TIP3   OH245283   3.361   0.444   5.337  0.0177  0.6282  0.2652
 7931TIP3    H145284   3.352   0.503   5.263 -1.3136  0.6913  0.4442
 7931TIP3    H245285   3.415   0.371   5.305 -0.8886  0.4428 -0.9027
 7932TIP3   OH245286   3.247   5.025  11.340  0.0891 -0.1197  0.8550
 7932TIP3    H145287   3.195   4.950  11.310  1.6041 -0.5503 -0.8389
 7932TIP3    H245288   3.182   5.089  11.369 -1.2735 -1.9892  2.2590
 7933TIP3   OH245289   0.231   4.491  16.825  0.6951  0.0225 -0.4934
 7933TIP3    H145290   0.270   4.429  16.886 -1.5836 -0.7474  0.2772
 7933TIP3    H245291   0.306   4.536  16.786  2.3033 -0.9059  1.3308
 7934TIP3   OH245292   0.778   3.321   4.742  0.1553 -0.1163  0.0962
 7934TIP3    H145293   0.790   3.236   4.701 -0.0376 -0.3075  0.4314
 7934TIP3    H245294   0.818   3.383   4.681 -1.3848 -0.2357 -1.0876
 7935TIP3   OH245295   2.174   1.533   2.579  0.2353  0.1008 -0.4160
 7935TIP3    H145296   2.112   1.544   2.507 -0.3830  0.1082  0.1040
 7935TIP3    H245297   2.217   1.449   2.560 -1.1236 -0.7409  0.0659
 7936TIP3   OH245298   2.263   5.066   3.125 -0.0700 -0.0891  0.0387
 7936TIP3    H145299   2.299   5.095   3.041  0.2279  1.0734  0.5549
 7936TIP3    H245300   2.239   4.974   3.110 -0.2031  0.1523 -1.3668
 7937TIP3   OH245301   3.732   2.798  14.018 -0.0376  0.0276  0.3745
 7937TIP3    H145302   3.777   2.719  14.047 -1.4116 -0.6804  0.6240
 7937TIP3    H245303   3.671   2.769  13.951 -0.2833  0.9459  0.1792
 7938TIP3   OH245304   1.342   1.348   2.981  0.8194  0.0809  0.1927
 7938TIP3    H145305   1.346   1.442   2.962  0.2833  0.1798  0.5521
 7938TIP3    H245306   1.368   1.306   2.899  1.5449  0.5461  0.1781
 7939TIP3   OH245307   0.266   5.066  14.032  0.4188 -0.1793 -0.0513
 7939TIP3    H145308   0.271   5.130  13.961 -1.7906 -1.7524 -1.7698
 7939TIP3    H245309   0.183   5.085  14.075  0.0289 -1.4424 -0.1943
 7940TIP3   OH245310   2.826   3.646   5.712 -0.0490  0.2240  0.0813
 7940TIP3    H145311   2.792   3.685   5.631  0.7997  0.4524 -0.1702
 7940TIP3    H245312   2.845   3.721   5.768  0.1687  0.1006  0.1701
 7941TIP3   OH245313   1.548   3.597  12.881  0.9806 -0.6021 -0.2394
 7941TIP3    H145314   1.606   3.614  12.807 -0.3272 -3.2929 -2.0559
 7941TIP3    H245315   1.493   3.675  12.887  3.0428  0.9353 -0.0699
 7942TIP3   OH245316   5.829   4.663  17.061 -0.1951  0.3882  0.2931
 7942TIP3    H145317   5.873   4.581  17.038  1.1501  0.6820  1.6499
 7942TIP3    H245318   5.891   4.731  17.036  0.3407  0.7975  2.4959
 7943TIP3   OH245319   6.083   3.992   4.728 -0.4134 -0.1228  0.5093
 7943TIP3    H145320   6.143   4.022   4.796 -2.0667 -1.0084  2.4703
 7943TIP3    H245321   6.012   4.056   4.729 -1.1018 -0.8725  0.6063
 7944TIP3   OH245322   0.083   6.345  11.721  0.4688 -0.4631  0.4669
 7944TIP3    H145323   0.030   6.267  11.737 -1.0960  0.3278 -0.5866
 7944TIP3    H245324   0.020   6.417  11.717  1.2547  0.2296 -3.1316
 7945TIP3   OH245325   2.460   1.342  15.907  0.8964  0.4919  0.9311
 7945TIP3    H145326   2.459   1.293  15.989  0.1495 -1.5192 -0.2173
 7945TIP3    H245327   2.370   1.370  15.894  0.6646 -0.5681  0.0673
 7946TIP3   OH245328   6.213   3.181  13.381 -0.5321 -0.2584 -0.1011
 7946TIP3    H145329   6.299   3.217  13.402 -0.4976  0.0537 -0.7601
 7946TIP3    H245330   6.229   3.087  13.372 -0.6445 -0.4994  1.7264
 7947TIP3   OH245331   3.726   1.547   2.897 -0.2184 -0.1207  0.3603
 7947TIP3    H145332   3.753   1.456   2.903 -1.3525 -0.4262  1.2455
 7947TIP3    H245333   3.779   1.583   2.827  0.7288 -1.2837  0.4499
 7948TIP3   OH245334   3.230   1.096   2.771 -0.3793 -0.1363  0.0360
 7948TIP3    H145335   3.178   1.173   2.792  0.5987  0.9752 -1.4373
 7948TIP3    H245336   3.222   1.087   2.676  0.1410 -1.3981  0.0918
 7949TIP3   OH245337   6.459   5.277   1.005 -0.2441 -0.4210 -0.0616
 7949TIP3    H145338   6.526   5.214   0.980 -0.9859 -0.6444 -1.6328
 7949TIP3    H245339   6.462   5.344   0.937 -0.2195  0.6732  0.9898
 7950TIP3   OH245340   0.631   0.811  11.541  0.0785  0.5127  0.3903
 7950TIP3    H145341   0.674   0.733  11.506  0.3392  0.3964  0.9702
 7950TIP3    H245342   0.593   0.783  11.624 -0.4936  0.8044  0.2307
 7951TIP3   OH245343   0.571   2.967  15.960  0.2485  0.0936  0.0582
 7951TIP3    H145344   0.656   2.947  16.001  0.2677 -0.1834 -0.1104
 7951TIP3    H245345   0.579   2.932  15.872 -0.5287 -1.1897  0.4689
 7952TIP3   OH245346   4.545   6.049   1.922 -0.1845 -0.1138  0.5751
 7952TIP3    H145347   4.529   5.984   1.854  0.6243  0.3147 -0.0342
 7952TIP3    H245348   4.574   5.997   1.997  1.8099 -0.3922 -0.3349
 7953TIP3   OH245349   4.254   3.611   2.816 -0.7653  0.0587 -0.1536
 7953TIP3    H145350   4.311   3.685   2.793 -2.1708  0.9574 -0.8982
 7953TIP3    H245351   4.279   3.541   2.756 -2.3095  1.3728 -2.4474
 7954TIP3   OH245352   6.576   0.430  13.945 -0.5167 -0.5080  0.0845
 7954TIP3    H145353   6.599   0.341  13.973 -0.7857 -0.5163  0.2768
 7954TIP3    H245354   6.482   0.437  13.961 -0.7325 -0.5948 -1.0189
 7955TIP3   OH245355   5.349   3.096  12.830  0.0997  0.2549  0.2874
 7955TIP3    H145356   5.412   3.110  12.759 -0.3195 -2.1684 -0.6761
 7955TIP3    H245357   5.380   3.016  12.873 -0.3663  0.9879  2.0835
 7956TIP3   OH245358   5.473   2.664  14.482 -1.0904 -0.1960  0.0999
 7956TIP3    H145359   5.476   2.757  14.459  0.9663 -0.3223 -0.3933
 7956TIP3    H245360   5.455   2.619  14.400 -0.2171 -0.3103 -0.0397
 7957TIP3   OH245361   0.787   4.500  16.686  0.2976 -0.1874 -0.5719
 7957TIP3    H145362   0.790   4.500  16.591  3.1657 -1.9913 -0.5884
 7957TIP3    H245363   0.818   4.586  16.712 -0.9406  0.4780 -1.2099
 7958TIP3   OH245364   4.230   5.373   2.633 -0.2022 -0.5328  0.6653
 7958TIP3    H145365   4.200   5.411   2.550  1.0857  0.0516  0.4347
 7958TIP3    H245366   4.219   5.442   2.697  1.8733  0.2300  0.3012
 7959TIP3   OH245367   2.310   4.277   3.794 -0.2040  0.4725 -0.2337
 7959TIP3    H145368   2.349   4.223   3.725  0.8588  0.5527  0.2851
 7959TIP3    H245369   2.330   4.232   3.875  0.5000  1.5078  0.1905
 7960TIP3   OH245370   4.845   3.297  14.338  0.2535 -0.1969  0.0577
 7960TIP3    H145371   4.880   3.263  14.255  0.2253  0.9205 -0.4281
 7960TIP3    H245372   4.757   3.328  14.317 -0.1211 -0.7718  0.7289
 7961TIP3   OH245373   5.698   4.890  14.647 -0.0283  0.0191  0.0591
 7961TIP3    H145374   5.741   4.920  14.727  0.7361  1.4854 -0.8533
 7961TIP3    H245375   5.608   4.921  14.654  0.0557  0.2046  0.3167
 7962TIP3   OH245376   3.614   5.755   0.151  0.2508  0.3365 -0.1615
 7962TIP3    H145377   3.632   5.839   0.193 -0.1728  0.6023 -0.5043
 7962TIP3    H245378   3.597   5.777   0.059  1.0203 -0.2203 -0.4490
 7963TIP3   OH245379   6.636   4.387   3.525  0.0190  0.5364  0.4583
 7963TIP3    H145380   6.638   4.450   3.453  0.7606 -0.3354 -0.3142
 7963TIP3    H245381   6.561   4.330   3.505  0.8927 -0.4125 -0.2949
 7964TIP3   OH245382   3.813   3.333  14.544  0.4284  0.3227  0.2499
 7964TIP3    H145383   3.889   3.289  14.582 -0.9815 -1.6203  0.9804
 7964TIP3    H245384   3.785   3.277  14.472 -0.2170  1.0915 -0.1236
 7965TIP3   OH245385   4.041   2.176  12.508  0.6056  0.0885 -0.1555
 7965TIP3    H145386   4.082   2.107  12.561 -0.3867  1.3445  2.4028
 7965TIP3    H245387   3.965   2.134  12.468  2.5870 -1.4811 -2.5846
 7966TIP3   OH245388   2.607   5.739   1.523 -0.0626  0.1711  0.2764
 7966TIP3    H145389   2.567   5.722   1.437  0.0806  0.2901  0.1853
 7966TIP3    H245390   2.536   5.725   1.585  0.0687 -0.8459  0.2171
 7967TIP3   OH245391   6.428   0.760   4.255  0.1820 -0.4953  0.3401
 7967TIP3    H145392   6.370   0.775   4.180  0.6611  0.4924  0.1427
 7967TIP3    H245393   6.432   0.845   4.299  0.4693 -0.8836  1.0741
 7968TIP3   OH245394   5.178   4.399  11.129 -0.2180 -0.9718  0.2850
 7968TIP3    H145395   5.141   4.364  11.210  1.0130 -1.1839  0.7680
 7968TIP3    H245396   5.171   4.494  11.138 -0.1650 -0.9975  0.6032
 7969TIP3   OH245397   1.135   6.349   1.213  0.5291  0.9336  0.0193
 7969TIP3    H145398   1.113   6.369   1.304 -0.2738 -0.0821  0.0684
 7969TIP3    H245399   1.191   6.272   1.219 -0.8261 -0.1336 -0.3870
 7970TIP3   OH245400   4.793   0.256   5.299  0.1139  0.3864 -0.3248
 7970TIP3    H145401   4.800   0.297   5.213 -2.6061  0.4361 -0.5921
 7970TIP3    H245402   4.737   0.314   5.350  0.4739 -0.3871  1.0257
 7971TIP3   OH245403   2.328   5.350   5.327  0.0682  0.3752 -0.0109
 7971TIP3    H145404   2.235   5.326   5.322  0.3595 -0.5853 -1.2310
 7971TIP3    H245405   2.372   5.270   5.356  0.9375 -0.4370 -3.1995
 7972TIP3   OH245406   6.347   3.610  17.291 -0.0842  0.3656 -0.4801
 7972TIP3    H145407   6.410   3.670  17.331 -1.5019  1.2965  0.4500
 7972TIP3    H245408   6.399   3.533  17.267  1.4300  1.1713  0.0643
 7973TIP3   OH245409   1.953   2.882   5.934 -0.2084 -0.3906 -0.4271
 7973TIP3    H145410   1.894   2.930   5.876 -0.6957 -2.0211 -1.3578
 7973TIP3    H245411   1.954   2.793   5.898  1.0260 -0.9644  0.9375
 7974TIP3   OH245412   1.525   2.936  16.802  0.0679  0.2580  0.3065
 7974TIP3    H145413   1.579   2.876  16.750  0.3045 -0.0731  0.9252
 7974TIP3    H245414   1.445   2.947  16.750  0.5137  0.3436 -0.3702
 7975TIP3   OH245415   0.747   2.003   2.704  0.0326  0.0066  0.1462
 7975TIP3    H145416   0.759   2.097   2.690 -0.9229  0.1654  0.3398
 7975TIP3    H245417   0.836   1.967   2.699  0.5227  1.0338  0.9250
 7976TIP3   OH245418   0.209   3.362   3.458  0.2272 -0.4007 -0.2296
 7976TIP3    H145419   0.119   3.328   3.452  0.8581 -2.2492 -0.0405
 7976TIP3    H245420   0.205   3.429   3.526 -1.3893  1.0307 -1.6381
 7977TIP3   OH245421   0.954   3.551   0.368 -0.3930 -0.1091 -0.0524
 7977TIP3    H145422   1.043   3.517   0.357 -0.1217  0.4705  0.3304
 7977TIP3    H245423   0.937   3.598   0.287  0.1913  0.9797  0.4377
 7978TIP3   OH245424   3.289   1.142  16.463  0.4618 -0.0484  0.4708
 7978TIP3    H145425   3.306   1.236  16.472  0.2275 -0.0445  0.9169
 7978TIP3    H245426   3.296   1.125  16.369  0.2811  0.4599  0.3627
 7979TIP3   OH245427   4.329   4.528   3.820  0.5092 -0.1646 -0.3885
 7979TIP3    H145428   4.251   4.554   3.771  1.0772  1.9736 -0.2631
 7979TIP3    H245429   4.400   4.581   3.783  1.2428  0.3935  1.6350
 7980TIP3   OH245430   6.727   4.043   0.584  0.1909 -0.1228 -0.3752
 7980TIP3    H145431   6.717   4.091   0.666  0.6720 -0.5753 -0.0439
 7980TIP3    H245432   6.820   4.021   0.580 -0.0134 -0.9700 -0.5514
 7981TIP3   OH245433   6.033   4.024   0.940 -0.2715 -0.3482 -0.6342
 7981TIP3    H145434   6.070   4.022   1.028  1.1364  2.4081 -1.0622
 7981TIP3    H245435   6.028   4.117   0.918 -0.0282 -0.9540 -3.6912
 7982TIP3   OH245436   3.409   5.111   2.153 -0.0207 -0.2080 -0.1094
 7982TIP3    H145437   3.479   5.090   2.092  0.3995 -0.4085  0.4386
 7982TIP3    H245438   3.332   5.066   2.118  0.7156 -2.2311  0.7209
 7983TIP3   OH245439   5.902   2.642  11.511  0.2796 -0.1877 -0.1389
 7983TIP3    H145440   5.850   2.718  11.483 -1.4897 -1.4629 -0.4845
 7983TIP3    H245441   5.902   2.584  11.435  2.6220 -0.0691 -0.2959
 7984TIP3   OH245442   4.612   6.345   4.383 -0.3256 -0.2213 -0.1233
 7984TIP3    H145443   4.653   6.284   4.445  0.6155 -0.8416 -1.2896
 7984TIP3    H245444   4.626   6.304   4.297  0.1318  1.5166 -0.9290
 7985TIP3   OH245445   4.543   4.621   1.770  0.9460  0.0961 -0.3810
 7985TIP3    H145446   4.473   4.561   1.797  0.7104  0.0413 -1.1032
 7985TIP3    H245447   4.607   4.565   1.727  1.6605  0.0785  0.6530
 7986TIP3   OH245448   4.033   1.342   4.692  0.6940  0.3864  0.0446
 7986TIP3    H145449   4.009   1.411   4.630  0.4226 -0.0065 -0.2869
 7986TIP3    H245450   3.961   1.342   4.756  0.2969 -0.1165 -0.3940
 7987TIP3   OH245451   3.849   3.933  13.896 -0.3698  0.4716 -0.2107
 7987TIP3    H145452   3.822   3.870  13.829  0.1888 -0.2057  0.1763
 7987TIP3    H245453   3.862   4.015  13.849  1.2529 -0.2892 -1.2056
 7988TIP3   OH245454   0.316   4.572  13.668 -0.2364  0.4730  0.1654
 7988TIP3    H145455   0.237   4.584  13.722 -0.2084  1.3967  0.0149
 7988TIP3    H245456   0.330   4.477  13.667  0.4341  0.4591  2.7449
 7989TIP3   OH245457   1.065   6.529   3.374 -0.3442 -0.4209 -0.4388
 7989TIP3    H145458   1.100   6.617   3.358  0.4838 -0.4489  1.0307
 7989TIP3    H245459   1.058   6.523   3.469 -0.5840 -1.8869 -0.5230
 7990TIP3   OH245460   5.434   5.921  16.978  0.2205 -0.2870 -0.1713
 7990TIP3    H145461   5.344   5.926  17.010 -0.1972 -0.2310 -1.3075
 7990TIP3    H245462   5.426   5.900  16.886  1.2580  2.0382 -0.8849
 7991TIP3   OH245463   4.282   5.549   4.294 -0.0965 -0.2258 -0.5040
 7991TIP3    H145464   4.221   5.617   4.263 -0.2455  0.5704  1.4107
 7991TIP3    H245465   4.229   5.470   4.299 -0.9153  0.3809  0.8009
 7992TIP3   OH245466   4.473   4.712  15.372  0.0682 -0.3120  0.6194
 7992TIP3    H145467   4.489   4.691  15.464  0.7420 -1.5010  0.2517
 7992TIP3    H245468   4.554   4.688  15.327  0.1214  1.1870 -0.1639
 7993TIP3   OH245469   0.040   6.590   5.815  0.2184 -0.1399  0.1503
 7993TIP3    H145470   0.039   6.650   5.889  2.1297 -1.1466  1.0718
 7993TIP3    H245471   0.010   6.506   5.850 -1.2138 -0.0783 -0.8293
 7994TIP3   OH245472   3.495   3.305   5.603  0.1313  0.0769 -0.1962
 7994TIP3    H145473   3.417   3.314   5.658  0.6486  1.3194  0.3559
 7994TIP3    H245474   3.569   3.321   5.661  0.7287  0.6229 -1.0736
 7995TIP3   OH245475   4.417   2.802  15.474  0.2769 -0.2439 -0.0452
 7995TIP3    H145476   4.509   2.788  15.496  0.9306  1.5457 -1.3489
 7995TIP3    H245477   4.418   2.880  15.417 -2.1145  0.2902  0.5341
 7996TIP3   OH245478   4.002   4.323  17.463  0.3106 -0.0070 -0.2996
 7996TIP3    H145479   4.048   4.304  17.545  0.2094  0.7659 -0.0568
 7996TIP3    H245480   4.058   4.386  17.418 -0.9639  1.7719  0.4737
 7997TIP3   OH245481   4.309   1.642  17.464  0.6595  0.8321 -0.1684
 7997TIP3    H145482   4.389   1.599  17.434 -0.7640 -2.2106  0.0932
 7997TIP3    H245483   4.264   1.577  17.517 -0.7579  3.3676  1.9953
 7998TIP3   OH245484   0.042   5.952  14.838  0.5371  0.0807  0.1601
 7998TIP3    H145485   0.076   6.027  14.788 -2.9477  2.1015  0.5344
 7998TIP3    H245486   0.016   5.889  14.772  1.5101  0.0843 -0.2510
 7999TIP3   OH245487   4.435   0.098  13.507  0.0951 -0.2561 -0.0094
 7999TIP3    H145488   4.405   0.011  13.531  1.9605 -1.1565 -0.7777
 7999TIP3    H245489   4.518   0.108  13.552 -0.5615  1.5751  0.9049
 8000TIP3   OH245490   1.334   2.332  17.386  0.5050  0.3923  0.2967
 8000TIP3    H145491   1.426   2.306  17.386  0.1708 -0.8353  0.2932
 8000TIP3    H245492   1.304   2.314  17.475 -0.5023 -2.1430 -0.4798
 8001TIP3   OH245493   2.663   5.261   3.480  0.2840 -0.2220  0.4221
 8001TIP3    H145494   2.605   5.256   3.404  0.7134 -0.9379  0.1302
 8001TIP3    H245495   2.698   5.350   3.477 -1.4809  0.5407  1.1359
 8002TIP3   OH245496   5.795   1.107  14.241  0.8670  0.0037  0.0565
 8002TIP3    H145497   5.751   1.078  14.161 -1.2980  1.3696  0.6636
 8002TIP3    H245498   5.887   1.116  14.216  0.3469 -0.1402 -2.1235
 8003TIP3   OH245499   0.897   3.984  17.202 -0.3150  0.4609  0.4780
 8003TIP3    H145500   0.929   3.927  17.132 -1.0553 -0.1680  0.6387
 8003TIP3    H245501   0.974   4.002  17.256  0.1704  0.5901 -0.2478
 8004TIP3   OH245502   2.363   2.951   0.132 -0.1766  0.1176  0.3416
 8004TIP3    H145503   2.326   3.008   0.064  0.8813 -0.9068 -1.1532
 8004TIP3    H245504   2.410   3.010   0.190  0.1542  0.8769 -0.6712
 8005TIP3   OH245505   4.056   4.204  16.141 -0.2195  0.2563 -0.3412
 8005TIP3    H145506   4.027   4.239  16.056  0.6598  1.4580 -0.1695
 8005TIP3    H245507   4.093   4.279  16.187 -0.4982 -0.4189  1.0463
 8006TIP3   OH245508   5.578   2.424   2.922  0.2114  0.3704 -0.1159
 8006TIP3    H145509   5.520   2.493   2.953  0.8831  0.5692  0.7224
 8006TIP3    H245510   5.537   2.343   2.952 -1.7275  0.1617 -2.8936
 8007TIP3   OH245511   6.183   5.120  11.948  0.4887  0.0600  0.3766
 8007TIP3    H145512   6.214   5.065  11.876  0.0810 -0.2700  0.4475
 8007TIP3    H245513   6.262   5.143  11.997  0.6983 -0.2051  0.1645
 8008TIP3   OH245514   3.652   4.684   1.420  0.3287 -0.4828 -0.4294
 8008TIP3    H145515   3.694   4.615   1.368  1.7565  0.3342 -0.4182
 8008TIP3    H245516   3.681   4.667   1.510 -1.8049 -1.6503  0.1109
 8009TIP3   OH245517   6.544   2.851  14.711  0.1561 -0.9757  0.1772
 8009TIP3    H145518   6.575   2.882  14.796 -0.2635  0.3922 -0.1492
 8009TIP3    H245519   6.610   2.787  14.684  1.1223 -0.3026  0.8479
 8010TIP3   OH245520   2.346   6.016   1.638 -0.6087  0.1235  0.0403
 8010TIP3    H145521   2.289   6.073   1.689  0.5106  1.2675  0.0646
 8010TIP3    H245522   2.376   6.071   1.566  0.0990 -0.5854 -0.2194
 8011TIP3   OH245523   4.701   0.023   3.174  0.5844  0.2139  0.5560
 8011TIP3    H145524   4.734  -0.008   3.090 -0.6093 -0.6906  0.3970
 8011TIP3    H245525   4.699  -0.055   3.229  0.7075  0.6657  1.2145
 8012TIP3   OH245526   1.002   3.353   4.539  0.2452 -0.1918  0.0750
 8012TIP3    H145527   0.968   3.323   4.455 -1.5864  0.5644  0.5059
 8012TIP3    H245528   0.957   3.436   4.555  0.2594 -0.5008  1.9690
 8013TIP3   OH245529   5.668   5.173  16.828 -0.5245  0.3107  1.1771
 8013TIP3    H145530   5.587   5.144  16.785 -1.7149  3.1961  1.2357
 8013TIP3    H245531   5.645   5.177  16.921  0.1751 -0.2725  1.3832
 8014TIP3   OH245532   4.175   3.364  11.927  0.2804  0.4325  0.0616
 8014TIP3    H145533   4.193   3.308  12.003 -2.4066  1.0287  1.2242
 8014TIP3    H245534   4.103   3.321  11.882  1.1600  0.6407 -1.6389
 8015TIP3   OH245535   1.935   3.118   3.974 -1.3700  0.2893 -0.3455
 8015TIP3    H145536   1.932   3.141   3.881 -3.6025 -2.2136 -0.9935
 8015TIP3    H245537   2.022   3.147   4.003  0.1951 -0.6415 -3.6889
 8016TIP3   OH245538   3.247   1.025  11.982  0.0104  0.2745 -0.6665
 8016TIP3    H145539   3.318   0.966  12.008  1.4278  2.4295  0.7077
 8016TIP3    H245540   3.182   1.015  12.051 -0.6790 -1.0734 -1.4755
 8017TIP3   OH245541   5.121   6.401   0.327  0.3047  0.1236  0.0395
 8017TIP3    H145542   5.176   6.480   0.323  0.3845  0.0452 -0.5167
 8017TIP3    H245543   5.151   6.348   0.253 -0.4570  0.0324 -0.2055
 8018TIP3   OH245544   5.545   3.163   4.634 -0.2582 -0.1066  0.2878
 8018TIP3    H145545   5.468   3.156   4.579  0.6414 -0.9582 -0.9195
 8018TIP3    H245546   5.518   3.128   4.719 -1.5274  0.7773  0.2657
 8019TIP3   OH245547   5.971   6.648   1.176 -0.0543 -0.0458 -0.0045
 8019TIP3    H145548   5.890   6.601   1.159 -1.7861  1.8432  2.3741
 8019TIP3    H245549   5.968   6.670   1.269  3.2937  0.0020  0.2306
 8020TIP3   OH245550   1.431   4.326   5.335 -0.4419 -0.1050 -0.3870
 8020TIP3    H145551   1.373   4.305   5.408  2.2624 -2.1828  1.3905
 8020TIP3    H245552   1.506   4.370   5.375  1.5144 -2.0159 -1.6542
 8021TIP3   OH245553   3.275   4.505  15.966  0.0153 -0.5358 -0.0717
 8021TIP3    H145554   3.316   4.533  16.047  0.3001 -1.8946  0.2801
 8021TIP3    H245555   3.347   4.498  15.903 -0.0979 -0.1848 -0.2424
 8022TIP3   OH245556   5.539   6.189   4.187  0.0668 -0.1225 -0.0796
 8022TIP3    H145557   5.574   6.262   4.238  1.8055 -0.0554 -1.3020
 8022TIP3    H245558   5.612   6.159   4.134 -0.6979 -2.5667  0.1389
 8023TIP3   OH245559   5.121   2.833   1.507 -0.6462  0.5438  0.5947
 8023TIP3    H145560   5.193   2.864   1.452 -0.9229 -2.3610 -1.5932
 8023TIP3    H245561   5.163   2.783   1.576 -0.4938 -0.5580 -0.2770
 8024TIP3   OH245562   3.660   1.147   2.771 -0.8321  0.5033 -0.1408
 8024TIP3    H145563   3.697   1.081   2.713 -0.9451  0.4558 -0.1570
 8024TIP3    H245564   3.577   1.172   2.731 -1.5408 -0.4718  0.6772
 8025TIP3   OH245565   1.090   3.451  16.496 -0.5706 -0.3313  0.6299
 8025TIP3    H145566   1.138   3.533  16.505 -0.0292 -0.8031  2.6045
 8025TIP3    H245567   1.132   3.406  16.423  0.3844  0.3380  0.7509
 8026TIP3   OH245568   1.318   2.095  15.099 -0.3794  0.2698  0.4199
 8026TIP3    H145569   1.363   2.075  15.017 -0.7484  1.9766 -0.2441
 8026TIP3    H245570   1.380   2.068  15.167  1.4539  1.9788 -0.4595
 8027TIP3   OH245571   0.182   2.573  15.614 -0.2154 -0.1558  0.0627
 8027TIP3    H145572   0.216   2.489  15.645  1.0967  0.7305  1.1483
 8027TIP3    H245573   0.145   2.554  15.528 -1.5166 -2.1796  0.9994
 8028TIP3   OH245574   4.095   4.136  16.565 -0.2670 -0.0760  0.0231
 8028TIP3    H145575   4.030   4.190  16.521 -1.1153 -0.7254  0.4634
 8028TIP3    H245576   4.046   4.087  16.631  0.7009 -0.4056  0.5204
 8029TIP3   OH245577   4.487   4.713   2.039  0.1335 -0.4373  0.2199
 8029TIP3    H145578   4.509   4.774   1.969 -0.2972 -0.0722  0.3952
 8029TIP3    H245579   4.567   4.661   2.052  0.0828 -0.7931 -0.8167
 8030TIP3   OH245580   6.224   6.273  17.343  0.0618 -0.2657 -0.8797
 8030TIP3    H145581   6.250   6.180  17.343  1.4301  0.0575  0.9231
 8030TIP3    H245582   6.293   6.317  17.392 -0.6364  1.7142 -1.5745
 8031TIP3   OH245583   1.530   4.493   3.499  0.1649 -0.3904  0.2416
 8031TIP3    H145584   1.544   4.429   3.430  1.2379 -1.0796  1.0707
 8031TIP3    H245585   1.590   4.467   3.569  0.2949  1.2449  0.7831
 8032TIP3   OH245586   5.297   0.507   3.861 -0.6427  0.2733  0.2480
 8032TIP3    H145587   5.228   0.571   3.846 -1.5040 -1.1299 -2.6124
 8032TIP3    H245588   5.254   0.422   3.847  0.9608 -0.8315  1.6203
 8033TIP3   OH245589   0.334   4.667   1.339  0.4003  0.0735  0.4320
 8033TIP3    H145590   0.280   4.589   1.353  1.5423 -0.8821 -0.3029
 8033TIP3    H245591   0.423   4.633   1.329  0.7186  1.3224 -1.5009
 8034TIP3   OH245592   4.422   4.356   2.935  0.0807 -0.1277  0.2857
 8034TIP3    H145593   4.337   4.332   2.973 -0.4940 -0.5658 -1.2079
 8034TIP3    H245594   4.407   4.441   2.896  0.5132  0.0715  0.5480
 8035TIP3   OH245595   3.494   5.995  16.470 -0.0492 -0.1320 -0.0875
 8035TIP3    H145596   3.456   6.056  16.407 -0.4509  0.6856  0.9170
 8035TIP3    H245597   3.541   6.051  16.532  0.0015 -0.8855  0.5658
 8036TIP3   OH245598   4.366   1.718   1.178  0.2800 -0.0944  0.1322
 8036TIP3    H145599   4.291   1.660   1.163  0.3244 -1.1759  3.2993
 8036TIP3    H245600   4.329   1.794   1.223  0.3040  2.3483 -3.5907
 8037TIP3   OH245601   3.752   4.222  12.257  0.0304 -0.1548  0.3425
 8037TIP3    H145602   3.774   4.260  12.172  1.9630  0.5014  1.0869
 8037TIP3    H245603   3.757   4.295  12.319  1.2877 -1.1023  1.4056
 8038TIP3   OH245604   1.775   2.432  10.756 -0.2528 -0.3577  0.3633
 8038TIP3    H145605   1.790   2.356  10.813 -0.2572  0.3272  1.3077
 8038TIP3    H245606   1.862   2.459  10.729 -0.2811 -0.9960 -0.3831
 8039TIP3   OH245607   3.897   0.202   3.482  0.4226 -0.5116  0.5150
 8039TIP3    H145608   3.921   0.139   3.550  1.9012  0.0947  0.5845
 8039TIP3    H245609   3.816   0.167   3.445  0.3082 -1.5572  1.6784
 8040TIP3   OH245610   3.817   4.772  15.511 -0.2307  0.2719 -1.0354
 8040TIP3    H145611   3.828   4.677  15.500 -0.4627  0.1953 -0.6039
 8040TIP3    H245612   3.723   4.786  15.509 -0.1846  0.5392 -1.4543
 8041TIP3   OH245613   5.497   4.789  16.753  0.2857  0.0469 -0.3750
 8041TIP3    H145614   5.569   4.843  16.785 -0.2563  2.8686 -3.3633
 8041TIP3    H245615   5.434   4.787  16.824  1.9023  0.2415  1.1226
 8042TIP3   OH245616   4.894   6.580   2.266 -0.2712  0.9271 -0.5294
 8042TIP3    H145617   4.820   6.602   2.323  0.3751 -0.9405  1.1558
 8042TIP3    H245618   4.940   6.509   2.312  1.3017  0.5034 -2.5822
 8043TIP3   OH245619   4.898   6.308  15.379  0.3993  0.4734 -0.4227
 8043TIP3    H145620   4.889   6.363  15.457  0.7024 -1.8850  1.3979
 8043TIP3    H245621   4.857   6.225  15.403  0.2875 -0.2698 -2.8943
 8044TIP3   OH245622   5.631   1.362   2.887 -0.2297 -0.6985 -0.2359
 8044TIP3    H145623   5.633   1.267   2.898  0.3281 -0.8383 -1.4122
 8044TIP3    H245624   5.548   1.380   2.843 -1.1067 -0.4431  1.4388
 8045TIP3   OH245625   3.192   0.143  13.283  0.4476  0.2020  0.0618
 8045TIP3    H145626   3.242   0.067  13.253  0.5825  0.4062 -0.2356
 8045TIP3    H245627   3.237   0.170  13.363  0.1993 -0.2308  0.3525
 8046TIP3   OH245628   2.098   4.267   1.348 -0.2473 -0.5953  0.4975
 8046TIP3    H145629   2.060   4.223   1.272  1.0022 -1.4441  0.3384
 8046TIP3    H245630   2.156   4.333   1.311 -1.2140  0.4115  0.7391
 8047TIP3   OH245631   1.884   4.257  12.859  0.1921  0.2385  0.5721
 8047TIP3    H145632   1.859   4.268  12.950  0.7117 -0.7321  0.8429
 8047TIP3    H245633   1.801   4.252  12.811 -0.0796  0.4520  1.0195
 8048TIP3   OH245634   0.647   1.478  13.523  0.7272 -0.0896  0.0005
 8048TIP3    H145635   0.742   1.466  13.528  0.6044 -1.5391 -0.6934
 8048TIP3    H245636   0.634   1.571  13.544  2.4212  0.5380 -1.4836
 8049TIP3   OH245637   3.097   2.111   5.386  0.4505  0.6366 -0.1486
 8049TIP3    H145638   3.130   2.058   5.458  1.5724 -1.0904 -1.8261
 8049TIP3    H245639   3.002   2.103   5.392  0.5422  0.0953  0.8026
 8050TIP3   OH245640   5.890   0.767   2.496  0.1274 -0.0593  0.2928
 8050TIP3    H145641   5.967   0.755   2.552  0.4098 -1.2453 -0.3168
 8050TIP3    H245642   5.815   0.754   2.555  0.4213 -1.1396  0.4489
 8051TIP3   OH245643   0.162   2.748  11.234  0.4186 -0.2952 -0.0818
 8051TIP3    H145644   0.243   2.720  11.276  0.0399 -0.8837  0.2766
 8051TIP3    H245645   0.190   2.788  11.151  0.9372 -2.7915 -1.1994
 8052TIP3   OH245646   0.825   1.248   4.353 -0.3704 -0.0510 -0.2374
 8052TIP3    H145647   0.786   1.293   4.278  1.5082 -0.5442 -1.5982
 8052TIP3    H245648   0.905   1.209   4.318 -1.1910 -3.3254  1.2067
 8053TIP3   OH245649   1.380   1.462   1.911  0.5115 -0.3834  0.6908
 8053TIP3    H145650   1.442   1.535   1.906  0.3856 -0.2523  1.0289
 8053TIP3    H245651   1.327   1.470   1.832 -1.9640  2.1007  2.4322
 8054TIP3   OH245652   1.735   0.217  15.642 -0.1651  0.2620 -0.4660
 8054TIP3    H145653   1.661   0.276  15.656 -0.2863 -0.6107  4.3289
 8054TIP3    H245654   1.812   0.274  15.642 -0.4041  0.7387  2.4135
 8055TIP3   OH245655   3.025   3.194   0.222  0.5053  0.3913  0.6446
 8055TIP3    H145656   3.023   3.130   0.293 -3.4880 -1.2124 -0.6257
 8055TIP3    H245657   2.952   3.254   0.241 -0.2070  0.3646 -1.5928
 8056TIP3   OH245658   0.096   2.895  16.016  0.5810 -0.0348 -0.1561
 8056TIP3    H145659   0.055   2.979  15.997  0.7659  0.4824  1.5067
 8056TIP3    H245660   0.116   2.857  15.931  1.2520  1.9862 -0.9398
 8057TIP3   OH245661   1.837   3.696   4.114  0.0774  0.2957 -0.1394
 8057TIP3    H145662   1.878   3.619   4.074  0.5314 -0.1034  1.0422
 8057TIP3    H245663   1.878   3.770   4.069 -1.2882 -0.1031 -2.1995
 8058TIP3   OH245664   3.430   0.817   4.270 -0.2762  0.0031 -0.2218
 8058TIP3    H145665   3.425   0.872   4.348  1.0676 -2.3221  1.6459
 8058TIP3    H245666   3.345   0.773   4.267  0.8428 -2.6531  2.2665
 8059TIP3   OH245667   0.679   4.307   4.549 -0.3635 -0.3940 -0.0882
 8059TIP3    H145668   0.661   4.401   4.547  0.4607 -0.2003  0.6475
 8059TIP3    H245669   0.758   4.297   4.495  0.8790 -0.3053  1.6226
 8060TIP3   OH245670   6.053   6.123  14.660 -0.7931 -0.5068 -0.8009
 8060TIP3    H145671   6.105   6.043  14.653  0.1249  0.0198 -0.3334
 8060TIP3    H245672   6.091   6.170  14.735 -3.5406 -1.1900  1.1399
 8061TIP3   OH245673   0.972   4.412   1.656 -0.0307  0.2031  0.2339
 8061TIP3    H145674   0.977   4.377   1.745 -1.9933  1.8521  1.0664
 8061TIP3    H245675   0.883   4.393   1.627 -0.2381  1.9230 -0.3661
 8062TIP3   OH245676   0.537   4.048  12.256  0.0066 -0.0420 -0.1894
 8062TIP3    H145677   0.483   4.010  12.188 -0.0101 -0.3035 -0.0316
 8062TIP3    H245678   0.507   4.007  12.337 -0.1456  0.4529  0.0075
 8063TIP3   OH245679   4.871   6.608   1.037  0.1236 -0.3202  0.3210
 8063TIP3    H145680   4.938   6.608   1.106 -1.7205 -1.1803  2.2322
 8063TIP3    H245681   4.859   6.515   1.016 -1.0089 -0.2572  0.6122
 8064TIP3   OH245682   6.295   4.254  13.065 -0.6648  0.1242  0.3329
 8064TIP3    H145683   6.252   4.168  13.058  0.5570 -0.6397  1.5799
 8064TIP3    H245684   6.224   4.317  13.052 -1.7103 -1.0679 -0.0315
 8065TIP3   OH245685   5.076   1.653  16.066 -0.0471  0.3406 -0.0289
 8065TIP3    H145686   5.029   1.637  15.984  0.4933  0.2212 -0.3204
 8065TIP3    H245687   5.169   1.650  16.041  0.1526 -0.7259  0.7692
 8066TIP3   OH245688   5.760   1.415   0.811 -0.0597  0.6824 -0.1835
 8066TIP3    H145689   5.684   1.422   0.753  0.8816 -0.4312 -1.6070
 8066TIP3    H245690   5.770   1.503   0.848 -2.8332  0.5504  1.1052
 8067TIP3   OH245691   2.273   1.843   1.901  0.4511 -0.1147  0.4609
 8067TIP3    H145692   2.320   1.781   1.957 -2.8123 -1.3738  2.0322
 8067TIP3    H245693   2.238   1.908   1.961 -0.2985  0.4425 -0.5498
 8068TIP3   OH245694   0.842   6.321   5.733  0.4792  0.1165  0.3145
 8068TIP3    H145695   0.910   6.372   5.688  0.7021  0.2669  0.8103
 8068TIP3    H245696   0.805   6.265   5.665  0.7200  0.4355 -0.0848
 8069TIP3   OH245697   4.405   5.490   0.768 -0.1068 -0.1289 -0.2586
 8069TIP3    H145698   4.381   5.479   0.676  0.2273  0.6212 -0.4371
 8069TIP3    H245699   4.489   5.534   0.766 -1.0252  1.7552  0.4208
 8070TIP3   OH245700   0.462   1.422  13.734 -0.2449  0.7361 -0.0470
 8070TIP3    H145701   0.467   1.507  13.778  0.9918  0.3375  0.6306
 8070TIP3    H245702   0.531   1.424  13.669 -0.7341  0.5445 -0.5773
 8071TIP3   OH245703   1.400   5.740   0.874  0.2853  0.3129 -0.1620
 8071TIP3    H145704   1.443   5.820   0.842  2.0358 -0.0726  1.0399
 8071TIP3    H245705   1.403   5.680   0.799 -1.8532  1.5985 -1.3702
 8072TIP3   OH245706   1.983   6.613  11.515  0.2762 -0.0188  0.2702
 8072TIP3    H145707   1.950   6.685  11.461 -0.1646 -0.8366 -0.5805
 8072TIP3    H245708   1.907   6.554  11.525  0.4555 -0.0756  1.4609
 8073TIP3   OH245709   6.430   4.518   0.302  0.0575 -0.5217 -0.3648
 8073TIP3    H145710   6.392   4.436   0.270  1.8355 -1.7224  0.4112
 8073TIP3    H245711   6.378   4.540   0.379 -2.3543  0.7946 -2.2208
 8074TIP3   OH245712   3.481   4.357  12.160  0.3286 -0.6437 -0.3572
 8074TIP3    H145713   3.486   4.267  12.126 -0.8088 -1.1240  0.6874
 8074TIP3    H245714   3.467   4.347  12.254  1.9970  0.6603  0.0896
 8075TIP3   OH245715   6.401   5.764  15.729 -0.5043 -0.0056  0.1434
 8075TIP3    H145716   6.449   5.720  15.659 -0.1080  1.4707 -0.5478
 8075TIP3    H245717   6.442   5.732  15.810  0.5209 -0.0399 -0.3744
 8076TIP3   OH245718   4.369   2.099   3.389  0.9002 -0.3133  0.2943
 8076TIP3    H145719   4.446   2.131   3.436  1.1628 -0.7083  0.1403
 8076TIP3    H245720   4.403   2.072   3.303  0.1336  2.1696 -0.8835
 8077TIP3   OH245721   3.810   2.063  16.301  1.3836  0.7281 -0.5854
 8077TIP3    H145722   3.840   1.998  16.365  1.1095 -0.1364 -1.3078
 8077TIP3    H245723   3.775   2.135  16.354  3.8476  1.3736  0.2762
 8078TIP3   OH245724   2.720   5.845   2.690  0.2380 -0.9014 -0.3767
 8078TIP3    H145725   2.679   5.908   2.631 -0.8996 -1.1986  0.0681
 8078TIP3    H245726   2.813   5.848   2.667 -0.0451 -0.3387 -1.5389
 8079TIP3   OH245727   6.177   4.947   0.101  0.0953  0.3569 -0.6511
 8079TIP3    H145728   6.168   4.991   0.017 -0.2410 -1.3975 -1.5938
 8079TIP3    H245729   6.248   4.885   0.088 -1.9903 -2.2100 -0.7810
 8080TIP3   OH245730   1.742   3.090   4.281 -0.7227 -0.0523 -0.1436
 8080TIP3    H145731   1.801   3.087   4.357 -0.2578  0.3240 -0.4788
 8080TIP3    H245732   1.741   3.183   4.256 -0.5437 -0.2314 -0.8426
 8081TIP3   OH245733   3.937   2.249   2.259 -0.8676  0.1655  0.1387
 8081TIP3    H145734   3.995   2.320   2.234 -2.3355  0.9831 -1.0934
 8081TIP3    H245735   3.928   2.196   2.180  2.1566 -2.9714  1.6055
 8082TIP3   OH245736   2.267   0.952   3.806  0.1068 -0.0134 -0.1123
 8082TIP3    H145737   2.192   0.894   3.799  0.2970 -0.3558  0.5730
 8082TIP3    H245738   2.266   1.004   3.725 -1.2463  0.4473  0.1850
 8083TIP3   OH245739   0.202   0.730   3.893 -0.3495 -0.2026  0.0977
 8083TIP3    H145740   0.210   0.697   3.804 -0.2006  1.5789 -0.5960
 8083TIP3    H245741   0.190   0.825   3.882  0.7952  0.2036  2.0107
 8084TIP3   OH245742   2.958   0.963   0.540  0.7069  0.3357 -0.1253
 8084TIP3    H145743   3.015   0.908   0.593  0.4144 -0.3926 -0.5539
 8084TIP3    H245744   2.969   0.931   0.451  0.0971  0.5963 -0.3022
 8085TIP3   OH245745   4.339   5.031   1.136  0.2016 -0.4531  0.0518
 8085TIP3    H145746   4.287   5.024   1.056  0.4669 -0.3406 -0.1282
 8085TIP3    H245747   4.354   5.125   1.147  1.6395 -0.5840 -0.7041
 8086TIP3   OH245748   0.954   5.540   2.831  0.3805 -0.2263 -0.1212
 8086TIP3    H145749   1.043   5.520   2.802  0.3026 -1.5242  0.4561
 8086TIP3    H245750   0.955   5.521   2.925 -0.8513 -1.6539 -0.3408
 8087TIP3   OH245751   1.940   5.032   3.331 -0.1978  0.5306 -0.4514
 8087TIP3    H145752   1.924   5.018   3.424  1.8743  1.6795  0.1471
 8087TIP3    H245753   1.864   5.082   3.301 -1.8295 -1.4563  0.1119
 8088TIP3   OH245754   1.279   5.281   4.060 -0.2287  0.4615 -0.1901
 8088TIP3    H145755   1.188   5.253   4.074 -0.0053  0.2914  1.0275
 8088TIP3    H245756   1.297   5.340   4.133 -0.0135  2.1754 -1.5463
 8089TIP3   OH245757   3.474   1.367  13.154 -0.8552  0.2636 -0.3850
 8089TIP3    H145758   3.420   1.365  13.075 -0.7177  1.8312 -0.5561
 8089TIP3    H245759   3.413   1.387  13.225 -0.7871  0.1716 -0.3005
 8090TIP3   OH245760   1.651   1.883  16.505 -0.2200  0.4426 -0.0665
 8090TIP3    H145761   1.592   1.928  16.444 -1.0972 -0.3996  0.1513
 8090TIP3    H245762   1.734   1.877  16.457 -0.5750  0.7948 -0.7369
 8091TIP3   OH245763   0.281   5.328   3.442  0.0872  0.3143  0.0872
 8091TIP3    H145764   0.317   5.292   3.523 -0.4012  0.6002  0.4396
 8091TIP3    H245765   0.320   5.415   3.436  2.5015 -0.7592 -1.5736
 8092TIP3   OH245766   3.519   5.510   0.547 -0.2081  0.5057  0.5178
 8092TIP3    H145767   3.568   5.479   0.623  0.2262 -2.0490 -0.7238
 8092TIP3    H245768   3.585   5.537   0.485 -0.4782  0.2010  0.0948
 8093TIP3   OH245769   2.590   2.078  11.449 -0.3406  0.3858  0.2187
 8093TIP3    H145770   2.532   2.075  11.373 -0.9661 -0.3457  0.7119
 8093TIP3    H245771   2.661   2.138  11.423  0.5961 -1.4291 -1.7263
 8094TIP3   OH245772   4.616   5.697   4.124 -0.3542 -0.1513  0.3862
 8094TIP3    H145773   4.655   5.745   4.051 -2.3579  0.3670 -0.4306
 8094TIP3    H245774   4.622   5.605   4.098 -0.8675  0.0171 -0.3657
 8095TIP3   OH245775   6.597   2.445   4.532 -0.1994  0.5875  0.0109
 8095TIP3    H145776   6.636   2.362   4.560  0.6770  1.1229  0.4202
 8095TIP3    H245777   6.563   2.428   4.444  0.8317  0.0511 -0.3021
 8096TIP3   OH245778   3.175   3.942  14.702  0.0968 -0.4866  0.3847
 8096TIP3    H145779   3.212   3.978  14.622 -1.8361  0.5494 -0.0817
 8096TIP3    H245780   3.158   4.018  14.758 -0.1333 -1.0554  1.1100
 8097TIP3   OH245781   3.229   0.088   3.508 -0.1558  0.1484 -0.1915
 8097TIP3    H145782   3.252   0.155   3.444 -0.3808  0.2965 -0.1205
 8097TIP3    H245783   3.142   0.114   3.539 -0.2568 -0.1928 -0.1875
 8098TIP3   OH245784   3.989   5.421  11.858 -0.3572  0.4467 -0.1002
 8098TIP3    H145785   4.042   5.446  11.934  0.4452 -1.4858  0.0145
 8098TIP3    H245786   3.952   5.336  11.881 -0.6142  0.1200 -1.6150
 8099TIP3   OH245787   2.066   2.224   6.091 -0.7153  0.3691 -0.0473
 8099TIP3    H145788   2.018   2.145   6.115 -0.8936  0.6324  0.4921
 8099TIP3    H245789   1.999   2.292   6.088 -0.6349  0.4078 -0.9689
 8100TIP3   OH245790   1.778   5.634  15.403  0.7097  0.1110 -0.3437
 8100TIP3    H145791   1.807   5.720  15.431  0.4122  0.2601 -0.4960
 8100TIP3    H245792   1.823   5.573  15.463 -1.2112  0.4987  1.6391
 8101TIP3   OH245793   2.395   5.550   3.320 -0.0179  0.1702 -0.0094
 8101TIP3    H145794   2.398   5.587   3.232 -2.2086  0.0048 -0.2038
 8101TIP3    H245795   2.358   5.620   3.374  1.3028  0.2731  0.8268
 8102TIP3   OH245796   1.391   2.994  13.924 -0.0790  0.3037 -0.5976
 8102TIP3    H145797   1.352   2.931  13.863  0.3457 -0.9454  0.3683
 8102TIP3    H245798   1.479   2.960  13.940 -0.5392 -0.0173  1.5353
 8103TIP3   OH245799   2.055   2.223   0.788 -0.0315  0.1446  0.3018
 8103TIP3    H145800   2.049   2.312   0.824  1.4605  0.7287 -0.7938
 8103TIP3    H245801   2.089   2.170   0.859  1.2626  0.9348  0.2862
 8104TIP3   OH245802   4.453   2.048   1.720 -0.1914  0.2181  0.0794
 8104TIP3    H145803   4.510   2.059   1.795 -1.5007  0.5164  1.0733
 8104TIP3    H245804   4.511   2.056   1.644  1.1769 -0.2319  1.0386
 8105TIP3   OH245805   4.248   6.230   4.517 -0.6196  0.2281  0.2628
 8105TIP3    H145806   4.331   6.233   4.471  0.4104  2.1912  2.0459
 8105TIP3    H245807   4.222   6.138   4.516  1.3859 -0.3652 -0.6389
 8106TIP3   OH245808   4.338   2.481  15.532  0.1209  0.2044 -0.6893
 8106TIP3    H145809   4.351   2.479  15.437  2.0947  2.7780 -0.5747
 8106TIP3    H245810   4.422   2.452  15.568 -0.4379 -0.2381  0.2925
 8107TIP3   OH245811   1.118   4.850   2.954  0.0527 -0.2377 -0.4602
 8107TIP3    H145812   1.064   4.797   3.014  2.0437 -1.4798  0.3245
 8107TIP3    H245813   1.150   4.922   3.009 -0.4466  0.2653 -0.8194
 8108TIP3   OH245814   1.177   2.843   1.910  0.1655  0.3162  0.1861
 8108TIP3    H145815   1.253   2.839   1.969 -0.7086  0.6456  1.3799
 8108TIP3    H245816   1.102   2.828   1.967 -0.6523 -0.6047 -1.0684
 8109TIP3   OH245817   0.766   3.596  14.687  0.7297  0.6716  0.1530
 8109TIP3    H145818   0.860   3.597  14.701  0.8467 -0.8502 -0.3487
 8109TIP3    H245819   0.755   3.564  14.597 -0.2823 -0.8424  0.7743
 8110TIP3   OH245820   2.403   3.252  17.422 -0.4004 -0.6428  0.0175
 8110TIP3    H145821   2.489   3.287  17.445 -1.0233 -0.2955  2.0050
 8110TIP3    H245822   2.349   3.330  17.406 -0.2766 -0.8634 -1.6418
 8111TIP3   OH245823   2.490   3.561  12.375  0.1666  0.5149 -0.0408
 8111TIP3    H145824   2.509   3.487  12.433 -1.1801  1.0121  1.1000
 8111TIP3    H245825   2.572   3.576  12.327  1.4686  0.2980  1.9956
 8112TIP3   OH245826   0.243   4.837  15.131 -0.0950 -0.1352 -0.4995
 8112TIP3    H145827   0.209   4.747  15.124 -2.0024  0.4788  0.2241
 8112TIP3    H245828   0.207   4.870  15.213  0.6457  1.2765 -0.7104
 8113TIP3   OH245829   3.484   1.227  12.138  0.0152 -0.6957  0.1079
 8113TIP3    H145830   3.479   1.306  12.191 -0.8434 -1.6740  1.5695
 8113TIP3    H245831   3.411   1.234  12.077  1.0474  0.4716 -1.0249
 8114TIP3   OH245832   6.261   1.145  11.883 -0.0886 -0.0083  0.3752
 8114TIP3    H145833   6.277   1.170  11.974 -0.2819 -0.3981  0.5178
 8114TIP3    H245834   6.340   1.097  11.858 -0.6704 -1.2165  0.8202
 8115TIP3   OH245835   2.245   3.320  16.243 -0.0066  0.2588  0.0172
 8115TIP3    H145836   2.267   3.248  16.301  0.2488 -0.1233 -0.5428
 8115TIP3    H245837   2.323   3.375  16.242 -0.1928  0.5354  0.4237
 8116TIP3   OH245838   4.649   0.432   5.425  0.7045  0.0990  0.0529
 8116TIP3    H145839   4.670   0.512   5.473  0.3859  1.2324 -1.6248
 8116TIP3    H245840   4.556   0.441   5.403  0.7311 -0.6018 -0.3909
 8117TIP3   OH245841   3.625   6.294  15.918 -0.0457 -0.2137  0.1965
 8117TIP3    H145842   3.700   6.319  15.864  1.7617 -2.2330  1.5259
 8117TIP3    H245843   3.650   6.322  16.007 -0.5467 -1.4307  0.7491
 8118TIP3   OH245844   3.106   1.568  16.845 -0.4269  0.5542  0.3421
 8118TIP3    H145845   3.108   1.504  16.774  0.2502  1.9697 -0.9863
 8118TIP3    H245846   3.115   1.516  16.925 -0.5473 -1.0375 -0.6298
 8119TIP3   OH245847   2.313   0.789  12.965 -0.2382 -0.4434 -0.0258
 8119TIP3    H145848   2.336   0.849  13.036  0.7542  0.6837 -1.2538
 8119TIP3    H245849   2.350   0.705  12.991 -1.6047 -0.5692  1.6967
 8120TIP3   OH245850   3.927   1.219  16.287 -0.1412 -0.6615  0.9304
 8120TIP3    H145851   3.882   1.141  16.253  0.8841 -0.5853 -0.7298
 8120TIP3    H245852   4.020   1.200  16.276  0.1287  1.0001 -0.0905
 8121TIP3   OH245853   3.937   3.310  17.622  0.5353  0.2963  0.5798
 8121TIP3    H145854   4.023   3.271  17.639  0.2558  0.4317  2.6330
 8121TIP3    H245855   3.927   3.376  17.691  0.1851  2.7204 -1.6597
 8122TIP3   OH245856   0.765   2.110  12.483 -0.2525  0.3881  0.0735
 8122TIP3    H145857   0.781   2.201  12.457 -1.0639  1.0865  1.8257
 8122TIP3    H245858   0.721   2.071  12.407  1.1349  1.1013 -1.1396
 8123TIP3   OH245859   6.133   2.531  15.284 -0.1728 -0.0578 -0.2229
 8123TIP3    H145860   6.057   2.507  15.230  0.2563 -1.3684 -0.2789
 8123TIP3    H245861   6.194   2.573  15.222 -0.2122 -0.4069 -0.5019
 8124TIP3   OH245862   2.080   5.845  17.319 -0.5565  0.7887  0.2169
 8124TIP3    H145863   2.050   5.761  17.283  0.8953  0.4914 -0.3485
 8124TIP3    H245864   2.056   5.909  17.251  0.8492  0.4273 -0.6521
 8125TIP3   OH245865   4.870   2.834  12.479  0.2901 -0.2652 -0.5669
 8125TIP3    H145866   4.951   2.869  12.442 -0.7797  1.0578 -1.7607
 8125TIP3    H245867   4.835   2.906  12.531 -0.6410 -0.4819 -0.8893
 8126TIP3   OH245868   4.437   3.099   4.606  1.3197  0.3081 -0.1347
 8126TIP3    H145869   4.495   3.093   4.531 -0.2076  0.3932 -1.3828
 8126TIP3    H245870   4.357   3.055   4.578  0.7013  0.3576  1.4454
 8127TIP3   OH245871   3.910   2.044  12.116  0.0677  0.1193 -0.3702
 8127TIP3    H145872   3.896   2.132  12.080 -1.6312 -0.0381 -0.1718
 8127TIP3    H245873   3.918   2.058  12.211 -2.2797 -0.0817 -0.0836
 8128TIP3   OH245874   0.504   0.545  12.993  0.5143 -0.4090  0.2494
 8128TIP3    H145875   0.584   0.591  12.967 -1.3109  3.7276  1.1296
 8128TIP3    H245876   0.482   0.490  12.918  2.8045  0.2491 -0.9996
 8129TIP3   OH245877   4.283   3.783  11.922  0.0000  0.5285 -0.4735
 8129TIP3    H145878   4.304   3.856  11.865  0.3303 -0.0043 -1.0512
 8129TIP3    H245879   4.200   3.749  11.888 -1.5606  2.1992  1.3745
 8130TIP3   OH245880   6.438   5.045   3.721 -0.1489 -0.3794  0.4459
 8130TIP3    H145881   6.526   5.042   3.760 -0.0609  1.0491  0.4091
 8130TIP3    H245882   6.452   5.083   3.634 -0.7571 -0.5996  0.2450
 8131TIP3   OH245883   4.181   0.116   5.912 -0.1785 -0.1848 -0.3775
 8131TIP3    H145884   4.255   0.125   5.974  0.1199  0.2615 -0.7927
 8131TIP3    H245885   4.137   0.036   5.939  0.1868 -0.2060  0.1715
 8132TIP3   OH245886   0.278   6.088   1.474  0.3413  0.4332  0.3412
 8132TIP3    H145887   0.221   6.027   1.520  1.2634 -0.5196  0.2804
 8132TIP3    H245888   0.231   6.171   1.474 -0.0157  0.2768  2.3370
 8133TIP3   OH245889   2.173   0.176   2.383 -0.0050 -0.0429  0.1345
 8133TIP3    H145890   2.215   0.090   2.383  0.0470 -0.0170  0.1993
 8133TIP3    H245891   2.244   0.238   2.402 -0.2633 -0.0881  1.3064
 8134TIP3   OH245892   1.278   4.361   0.869 -0.1111 -0.1830 -0.3860
 8134TIP3    H145893   1.272   4.456   0.873 -2.5930 -0.3037 -0.0392
 8134TIP3    H245894   1.199   4.330   0.913 -0.5675 -2.3634 -2.5622
 8135TIP3   OH245895   3.163   3.787   4.573 -0.3924 -0.1343 -0.1497
 8135TIP3    H145896   3.097   3.720   4.554  0.3593 -0.5421 -1.3864
 8135TIP3    H245897   3.148   3.855   4.508  0.5245 -0.3181 -0.5612
 8136TIP3   OH245898   3.128   3.672  17.193 -0.2299 -0.3785  0.7539
 8136TIP3    H145899   3.168   3.707  17.273  1.1103 -1.0256  0.3770
 8136TIP3    H245900   3.196   3.618  17.153 -1.1376 -0.6665 -0.4491
 8137TIP3   OH245901   1.686   2.914   4.609 -0.2868  0.2121  0.1072
 8137TIP3    H145902   1.623   2.913   4.681  0.4738 -0.0700  0.7872
 8137TIP3    H245903   1.702   3.007   4.593 -1.2098  0.2943 -0.3806
 8138TIP3   OH245904   0.686   6.257   0.974  0.1314  0.6740  0.1357
 8138TIP3    H145905   0.720   6.346   0.975 -0.5280  0.9385 -0.2027
 8138TIP3    H245906   0.592   6.267   0.958  0.3428 -0.1625 -2.0214
 8139TIP3   OH245907   4.796   5.445   0.138 -0.0387  0.0625 -0.3970
 8139TIP3    H145908   4.741   5.502   0.192 -1.4849  0.3374 -2.0501
 8139TIP3    H245909   4.738   5.416   0.067  0.6600 -3.4248  0.2827
 8140TIP3   OH245910   1.666   0.737  11.499  0.0039 -0.1577  0.2551
 8140TIP3    H145911   1.681   0.651  11.537 -1.9689 -0.2871  0.8687
 8140TIP3    H245912   1.739   0.750  11.438  0.6042 -2.0293  0.5204
 8141TIP3   OH245913   6.636   2.174   4.314 -0.0099  0.4420 -0.6956
 8141TIP3    H145914   6.678   2.170   4.400 -0.5280  1.0882 -0.4070
 8141TIP3    H245915   6.555   2.125   4.324 -0.8189  1.8047 -0.3687
 8142TIP3   OH245916   2.279   6.461   1.401 -0.2844 -0.0811 -0.7888
 8142TIP3    H145917   2.371   6.435   1.404 -0.2720  0.0563  0.7678
 8142TIP3    H245918   2.232   6.379   1.389 -0.0638 -0.4622  0.7463
 8143TIP3   OH245919   0.126   0.177  15.074 -0.0138  0.5717 -0.1271
 8143TIP3    H145920   0.187   0.202  15.004  0.0431 -0.8043 -0.5959
 8143TIP3    H245921   0.049   0.144  15.028 -0.4925  0.8388  0.4693
 8144TIP3   OH245922   1.642   3.204   3.815  0.1185  0.4832 -0.2014
 8144TIP3    H145923   1.691   3.246   3.745 -0.9014 -0.0003 -1.2382
 8144TIP3    H245924   1.660   3.257   3.892  0.0561  1.9342 -1.1431
 8145TIP3   OH245925   5.590   3.472   3.534  0.1457  0.0668  0.1099
 8145TIP3    H145926   5.528   3.476   3.607 -1.5100  0.1028 -1.2446
 8145TIP3    H245927   5.537   3.447   3.459  1.6961  0.5871 -1.2096
 8146TIP3   OH245928   3.329   1.778  17.588  0.4967 -0.0390 -0.2143
 8146TIP3    H145929   3.284   1.839  17.647 -0.4410 -0.7962 -0.1242
 8146TIP3    H245930   3.382   1.835  17.531 -0.0677  0.8280  0.1064
 8147TIP3   OH245931   2.743   6.615   2.735 -0.2680  0.1876 -0.2729
 8147TIP3    H145932   2.766   6.524   2.753 -0.5254 -0.0893 -1.3067
 8147TIP3    H245933   2.794   6.665   2.799 -0.7212 -0.7136  0.8329
 8148TIP3   OH245934   1.463   2.353  15.770  0.2438 -0.0409  0.6647
 8148TIP3    H145935   1.448   2.354  15.675  3.1357  0.8417  0.0872
 8148TIP3    H245936   1.393   2.299  15.805 -2.4785  1.6885 -1.6398
 8149TIP3   OH245937   2.610   5.064  13.265  0.3681 -0.3377 -0.4134
 8149TIP3    H145938   2.586   5.120  13.190  0.2087 -2.3117 -1.9047
 8149TIP3    H245939   2.535   5.006  13.276 -0.2820  0.8575  2.3259
 8150TIP3   OH245940   3.787   0.511   2.566  0.4687 -0.0905  0.6654
 8150TIP3    H145941   3.731   0.557   2.504 -1.3296  0.1988  2.3973
 8150TIP3    H245942   3.873   0.551   2.556  0.1599  0.1500 -1.3749
 8151TIP3   OH245943   1.322   1.883  12.395 -0.0443  0.2787  0.2937
 8151TIP3    H145944   1.248   1.918  12.445 -0.5642  0.6944 -0.7489
 8151TIP3    H245945   1.302   1.790  12.386 -0.3079  0.3406  0.2335
 8152TIP3   OH245946   0.955   5.814   0.706 -0.4925  0.7232 -0.1365
 8152TIP3    H145947   0.887   5.822   0.774  0.8272 -0.6717  1.4518
 8152TIP3    H245948   1.009   5.741   0.736 -0.5565 -0.7974 -3.3843
 8153TIP3   OH245949   2.473   4.306  15.495  0.3059  0.1064 -0.7928
 8153TIP3    H145950   2.458   4.347  15.580 -1.8989  1.8594 -1.9110
 8153TIP3    H245951   2.565   4.278  15.497  0.1370 -0.5067  2.3459
 8154TIP3   OH245952   1.833   4.023  12.505 -0.2952  0.4687  0.3245
 8154TIP3    H145953   1.747   4.007  12.466  0.1437  1.9497 -1.4648
 8154TIP3    H245954   1.853   3.944  12.554 -2.7309  0.1511  0.9527
 8155TIP3   OH245955   6.680   6.286  15.142  0.4447 -0.5432 -0.5514
 8155TIP3    H145956   6.726   6.205  15.117  2.0006 -0.0644  0.5651
 8155TIP3    H245957   6.599   6.256  15.183 -0.1817 -1.4334 -2.3277
 8156TIP3   OH245958   2.025   1.166  12.686  0.6639  0.2508  0.1016
 8156TIP3    H145959   2.109   1.173  12.732  1.0961  2.2161 -0.8990
 8156TIP3    H245960   1.967   1.124  12.749  1.9322  0.4305  1.4461
 8157TIP3   OH245961   5.243   0.831   4.866 -0.0525 -0.1796  1.1234
 8157TIP3    H145962   5.207   0.874   4.943 -1.1499  0.4413  0.2984
 8157TIP3    H245963   5.186   0.755   4.853  0.7234 -0.8288  1.4795
 8158TIP3   OH245964   4.559   6.482   3.556 -0.1824 -0.1595 -0.4976
 8158TIP3    H145965   4.573   6.504   3.648  2.1611 -0.8830 -0.6279
 8158TIP3    H245966   4.627   6.531   3.509 -0.0040 -1.4142 -1.6083
 8159TIP3   OH245967   5.854   3.029  17.562 -0.3086 -0.2507  0.0879
 8159TIP3    H145968   5.843   3.071  17.477  0.3031  0.0835  0.1700
 8159TIP3    H245969   5.912   2.955  17.545 -1.0757 -0.8482  0.0161
 8160TIP3   OH245970   3.384   5.066   4.816 -0.2592  0.0533  0.0526
 8160TIP3    H145971   3.448   5.131   4.847 -1.5504  2.6642 -2.2791
 8160TIP3    H245972   3.309   5.077   4.874 -0.0457 -0.1939  0.3765
 8161TIP3   OH245973   5.860   6.421  16.882 -0.1006  0.2830 -0.3460
 8161TIP3    H145974   5.823   6.348  16.933  2.2920 -0.8103 -0.0451
 8161TIP3    H245975   5.880   6.382  16.797  0.5106  0.7921 -0.4384
 8162TIP3   OH245976   6.213   0.117  10.431  0.0333  0.0055  0.2161
 8162TIP3    H145977   6.232   0.170  10.508 -0.1319  1.2673 -0.5946
 8162TIP3    H245978   6.124   0.140  10.407  1.1018  2.0431 -2.1973
 8163TIP3   OH245979   0.103   4.218   0.084 -0.1539 -0.2737  0.9879
 8163TIP3    H145980   0.158   4.139   0.080  0.2992  0.0473  0.6984
 8163TIP3    H245981   0.141   4.276   0.018 -0.9010 -0.0749  0.7326
 8164TIP3   OH245982   3.385   5.616  11.528  0.1005 -0.1853  0.1069
 8164TIP3    H145983   3.415   5.527  11.507  0.3752  0.6417 -3.7627
 8164TIP3    H245984   3.320   5.636  11.462 -0.8123  2.1418  1.5683
 8165TIP3   OH245985   4.493   2.292   3.595 -0.3724  0.0413  0.1889
 8165TIP3    H145986   4.424   2.329   3.541  0.5643  0.4748 -0.7346
 8165TIP3    H245987   4.569   2.346   3.578  0.0121  0.0427  1.7848
 8166TIP3   OH245988   1.314   2.041   6.173 -0.3860 -0.1471 -0.3526
 8166TIP3    H145989   1.306   2.121   6.225 -1.7524 -0.6166  0.1877
 8166TIP3    H245990   1.380   1.989   6.219  0.5037  0.6306 -0.6991
 8167TIP3   OH245991   5.355   4.874  11.485  0.3400 -0.0777  0.6993
 8167TIP3    H145992   5.366   4.787  11.522  2.1735 -0.8812 -1.5152
 8167TIP3    H245993   5.415   4.929  11.535  0.1167 -0.3537  1.2753
 8168TIP3   OH245994   5.614   0.449   0.361  0.6512 -0.2585  0.5696
 8168TIP3    H145995   5.530   0.442   0.315 -0.5863  2.3498  2.1740
 8168TIP3    H245996   5.639   0.540   0.351  1.7157 -0.2595  2.6834
 8169TIP3   OH245997   4.298   5.777  14.177 -0.0748  0.3153  0.0166
 8169TIP3    H145998   4.325   5.800  14.089 -0.3042  0.4082 -0.0284
 8169TIP3    H245999   4.378   5.784  14.229  0.3828 -1.0920 -0.4404
 8170TIP3   OH246000   1.107   6.249  12.550 -0.0876  0.0035  0.1524
 8170TIP3    H146001   1.040   6.246  12.619 -0.6513 -1.5376 -0.4120
 8170TIP3    H246002   1.103   6.339  12.518 -1.3406  0.1695  0.6820
 8171TIP3   OH246003   2.645   0.144  17.056  0.1064  0.0170  0.5276
 8171TIP3    H146004   2.642   0.050  17.038 -0.4235 -0.1692  1.5357
 8171TIP3    H246005   2.567   0.179  17.011 -0.1262 -0.1503  0.7954
 8172TIP3   OH246006   4.497   5.482   4.805 -0.4208  0.5738  0.6143
 8172TIP3    H146007   4.450   5.560   4.774 -2.0403 -1.1551 -1.6659
 8172TIP3    H246008   4.567   5.471   4.741 -1.2137 -0.6862 -0.0888
 8173TIP3   OH246009   0.080   2.837   1.724  0.0510 -0.2836  0.3639
 8173TIP3    H146010   0.074   2.763   1.783  1.4278 -1.9912 -1.5120
 8173TIP3    H246011   0.038   2.808   1.643  0.9335  0.8197 -0.5393
 8174TIP3   OH246012   2.230   4.940  15.535  0.1242  0.1725  0.2492
 8174TIP3    H146013   2.271   4.870  15.485 -1.9616  0.1274 -1.5528
 8174TIP3    H246014   2.244   5.019  15.482 -0.9095  0.3851  0.2624
 8175TIP3   OH246015   2.281   1.928  17.430  0.1204 -0.4913 -0.2089
 8175TIP3    H146016   2.239   1.847  17.402 -0.4150 -0.4044  0.3254
 8175TIP3    H246017   2.301   1.914  17.523 -1.3180  0.5225  0.2910
 8176TIP3   OH246018   4.560   4.032   3.148  0.2604  0.0835 -0.5652
 8176TIP3    H146019   4.552   4.071   3.061 -1.1968  1.5928  0.1896
 8176TIP3    H246020   4.652   4.043   3.171  0.7972 -0.8510 -2.1033
 8177TIP3   OH246021   5.499   4.101  10.795  0.0844 -0.8981 -0.4250
 8177TIP3    H146022   5.589   4.094  10.765  0.0014  0.6267 -1.1259
 8177TIP3    H246023   5.451   4.134  10.720 -0.8148 -0.5080  0.3019
 8178TIP3   OH246024   6.489   1.697   1.225  0.0674 -0.4141  0.2306
 8178TIP3    H146025   6.449   1.774   1.267  0.8010  1.5768 -2.4679
 8178TIP3    H246026   6.572   1.685   1.271  1.0795  2.0104 -0.7927
 8179TIP3   OH246027   1.549   2.285  13.516  0.0693  0.6008  0.4143
 8179TIP3    H146028   1.484   2.321  13.576 -2.1417 -3.3069  0.6533
 8179TIP3    H246029   1.588   2.212  13.564  1.6205  0.2467 -1.2683
 8180TIP3   OH246030   0.069   2.923  12.064  0.2489 -0.3997 -0.2866
 8180TIP3    H146031   0.051   2.986  12.134  2.4406 -0.3187  0.2776
 8180TIP3    H246032   0.137   2.866  12.100  0.6418 -1.0455 -1.9541
 8181TIP3   OH246033   2.781   4.854  13.114 -0.6224 -0.3635 -0.4836
 8181TIP3    H146034   2.765   4.930  13.171 -1.4807 -1.0472  0.2104
 8181TIP3    H246035   2.874   4.835  13.124 -0.5572  0.1433 -0.0917
 8182TIP3   OH246036   0.143   5.384   4.328 -0.0914 -0.0970  0.2095
 8182TIP3    H146037   0.224   5.394   4.378 -0.2898  0.1498  0.4818
 8182TIP3    H246038   0.099   5.468   4.335  0.7698  0.6098 -1.9650
 8183TIP3   OH246039   0.258   0.158   3.189  0.5923 -0.2171 -0.8121
 8183TIP3    H146040   0.235   0.236   3.139  0.0877  0.3369  0.2582
 8183TIP3    H246041   0.317   0.189   3.257 -0.0184 -0.6619 -0.0628
 8184TIP3   OH246042   6.634   1.628   3.070 -0.3224  0.0577  0.5188
 8184TIP3    H146043   6.652   1.636   2.976  2.6701  1.9748  1.1181
 8184TIP3    H246044   6.597   1.541   3.080  0.7580 -0.8408 -2.2569
 8185TIP3   OH246045   4.836   1.014  16.198 -0.1628 -0.0006 -0.3582
 8185TIP3    H146046   4.851   0.996  16.290  0.0895 -0.6992 -0.5288
 8185TIP3    H246047   4.752   1.060  16.196 -0.6079 -0.7717  0.1448
 8186TIP3   OH246048   5.098   4.801   3.183 -0.3311  0.3420  0.4940
 8186TIP3    H146049   5.178   4.774   3.137 -1.2567 -0.7797 -0.5420
 8186TIP3    H246050   5.094   4.743   3.259 -0.3269  0.1889  0.3774
 8187TIP3   OH246051   0.967   4.728  16.976 -0.4914 -0.5459  0.0464
 8187TIP3    H146052   1.001   4.817  16.961 -2.5869  0.3218  0.0579
 8187TIP3    H246053   1.013   4.698  17.054  0.5031  0.3971 -0.1435
 8188TIP3   OH246054   3.205   5.782  12.439  0.2307 -0.7047  0.4381
 8188TIP3    H146055   3.213   5.863  12.489  0.2344 -1.1207  1.1211
 8188TIP3    H246056   3.254   5.717  12.490  0.1458 -1.1637 -0.0506
 8189TIP3   OH246057   5.281   2.972  13.492 -0.2650 -0.3087 -0.0301
 8189TIP3    H146058   5.191   3.006  13.490 -0.0637  0.2229 -0.1213
 8189TIP3    H246059   5.330   3.034  13.545  0.0031 -0.7297  0.2238
 8190TIP3   OH246060   2.877   6.694  12.149 -0.3965 -0.1635  0.1518
 8190TIP3    H146061   2.904   6.604  12.131 -0.5215  0.0769 -1.3669
 8190TIP3    H246062   2.861   6.732  12.062 -1.4876  0.9706  0.8209
 8191TIP3   OH246063   5.549   3.435   4.992 -0.1860  0.1099  0.1780
 8191TIP3    H146064   5.581   3.525   5.003  2.1676 -0.6396  0.1373
 8191TIP3    H246065   5.628   3.381   5.002 -1.6362 -2.0022  0.7803
 8192TIP3   OH246066   5.273   1.585  16.327 -0.3179 -0.1295  0.2438
 8192TIP3    H146067   5.221   1.540  16.260 -1.5860  0.6197  0.6916
 8192TIP3    H246068   5.245   1.546  16.409  0.3467 -0.1967  0.4409
 8193TIP3   OH246069   6.311   1.870  12.379  0.0697  0.7772  0.4271
 8193TIP3    H146070   6.301   1.932  12.451 -1.1409 -1.0652  1.9205
 8193TIP3    H246071   6.372   1.913  12.319 -0.2187  3.1053  1.6949
 8194TIP3   OH246072   5.166   3.834  11.036 -0.0582  0.2224  0.6588
 8194TIP3    H146073   5.245   3.856  10.987  0.9758  0.1128  2.1855
 8194TIP3    H246074   5.171   3.739  11.049  0.2494  0.3801  1.8383
 8195TIP3   OH246075   4.705   2.714   3.158  0.2890  0.2030  0.1970
 8195TIP3    H146076   4.649   2.642   3.188 -1.4027  0.3758 -2.2222
 8195TIP3    H246077   4.643   2.783   3.133  1.3744  0.0991 -3.4110
 8196TIP3   OH246078   3.650   2.351  15.896  0.0812  0.1286 -0.1612
 8196TIP3    H146079   3.600   2.324  15.973 -0.1348 -1.4068 -0.7933
 8196TIP3    H246080   3.675   2.269  15.853  1.5999  0.9068 -0.8591
 8197TIP3   OH246081   3.804   3.023   2.287 -0.2243  0.4593 -1.0943
 8197TIP3    H146082   3.710   3.034   2.302 -0.1613  0.3983 -0.6119
 8197TIP3    H246083   3.822   3.073   2.208 -0.1351  3.1829  0.4864
 8198TIP3   OH246084   1.895   2.953   5.136  0.0552 -0.4425 -0.1674
 8198TIP3    H146085   1.978   2.907   5.125  0.4233  0.4361 -1.3595
 8198TIP3    H246086   1.919   3.038   5.173 -0.4745 -0.7065  0.8075
 8199TIP3   OH246087   6.326   2.448   3.471  0.4243 -0.3392  0.6518
 8199TIP3    H146088   6.277   2.525   3.503 -0.7748 -0.8239  0.0502
 8199TIP3    H246089   6.402   2.485   3.426 -1.2670  0.6725 -1.5771
 8200TIP3   OH246090   6.528   0.992   4.420 -0.3325  0.0398 -0.3682
 8200TIP3    H146091   6.484   1.019   4.500  0.6486  0.7039 -0.0319
 8200TIP3    H246092   6.618   1.023   4.430  0.3161 -1.5351 -0.8979
 8201TIP3   OH246093   0.022   4.990  11.686 -0.2398  0.8498 -0.8631
 8201TIP3    H146094  -0.015   4.992  11.775 -0.4831 -0.3634 -0.9198
 8201TIP3    H246095  -0.054   4.989  11.629 -0.0897  0.9793 -1.0654
 8202TIP3   OH246096   0.296   5.444   1.207  0.3854  0.4178  0.1133
 8202TIP3    H146097   0.279   5.350   1.200  1.3787  0.0791  1.7427
 8202TIP3    H246098   0.310   5.473   1.116 -1.5259 -0.6565 -0.5727
 8203TIP3   OH246099   0.888   3.340   5.836 -0.1578  0.3229  0.2171
 8203TIP3    H146100   0.811   3.320   5.783  0.0984 -2.6250  0.8110
 8203TIP3    H246101   0.860   3.321   5.926  0.4369  2.0341  0.8061
 8204TIP3   OH246102   5.013   0.872  16.040  0.6966 -0.1536  0.3933
 8204TIP3    H146103   5.023   0.782  16.073 -3.7731 -1.4539 -0.9901
 8204TIP3    H246104   4.948   0.911  16.098  0.8713  1.3758 -0.4054
 8205TIP3   OH246105   5.462   3.780  11.234  0.1911  0.5503  0.7676
 8205TIP3    H146106   5.403   3.728  11.180  1.3424  0.7579 -0.7601
 8205TIP3    H246107   5.498   3.846  11.174  0.5571  1.6122  2.0929
 8206TIP3   OH246108   5.797   4.439   5.102  0.2275  0.1174 -0.6850
 8206TIP3    H146109   5.724   4.379   5.083  0.3146 -0.0061 -0.6294
 8206TIP3    H246110   5.875   4.386   5.088  0.4898  1.1448 -4.2699
 8207TIP3   OH246111   3.173   0.613   1.674 -0.2881  0.2227  0.0934
 8207TIP3    H146112   3.238   0.605   1.744 -1.2344  0.9246  1.0876
 8207TIP3    H246113   3.224   0.640   1.597  0.7998 -0.7769  0.4330
 8208TIP3   OH246114   0.411   2.522  17.633  0.1502  0.2478 -0.4026
 8208TIP3    H146115   0.374   2.468  17.564  1.3189  2.4841 -2.9438
 8208TIP3    H246116   0.493   2.555  17.597  1.1263  1.1036  2.3003
 8209TIP3   OH246117   6.308   5.909  14.801  0.0913 -0.0289 -0.0499
 8209TIP3    H146118   6.363   5.951  14.735  1.7157  0.4563  1.5366
 8209TIP3    H246119   6.339   5.945  14.884 -1.6115 -0.9288  1.0224
 8210TIP3   OH246120   1.757   3.170  15.633  0.3182 -0.4525 -0.5030
 8210TIP3    H146121   1.845   3.161  15.671  1.0096  1.7246 -1.3991
 8210TIP3    H246122   1.706   3.212  15.702  0.9373  1.3478 -1.0865
 8211TIP3   OH246123   4.920   6.590  16.647 -0.1159 -0.0902  0.1757
 8211TIP3    H146124   4.978   6.522  16.613  0.3492  0.1979  0.3750
 8211TIP3    H246125   4.852   6.543  16.695  1.2648 -0.3668  1.9564
 8212TIP3   OH246126   0.351   2.331  17.149 -0.1063 -0.1366  0.3789
 8212TIP3    H146127   0.428   2.274  17.146 -0.4972 -0.6253 -0.6289
 8212TIP3    H246128   0.356   2.383  17.069 -1.2117 -0.6989 -0.0796
 8213TIP3   OH246129   0.476   2.918  13.161 -0.3188  0.7421 -0.7502
 8213TIP3    H146130   0.527   2.993  13.192  0.1443  0.4493 -0.8002
 8213TIP3    H246131   0.502   2.908  13.069 -1.2937  1.2822 -1.1020
 8214TIP3   OH246132   0.137   3.139   5.693 -0.2508 -0.2451  0.0514
 8214TIP3    H146133   0.135   3.159   5.787  1.1073 -1.1845  0.3204
 8214TIP3    H246134   0.054   3.093   5.677 -0.8380  0.5934  0.6164
 8215TIP3   OH246135   1.344   0.257   4.217  0.0064 -0.2126  0.1036
 8215TIP3    H146136   1.277   0.191   4.201 -0.1414 -0.2298  0.7708
 8215TIP3    H246137   1.423   0.207   4.235 -0.6180 -0.3313  3.0466
 8216TIP3   OH246138   1.199   4.317  15.188 -0.0440  0.3487 -0.0687
 8216TIP3    H146139   1.284   4.299  15.228 -0.1470  1.6901  0.8110
 8216TIP3    H246140   1.219   4.334  15.096  0.6891  0.8791  0.1777
 8217TIP3   OH246141   0.528   2.792  12.900 -0.2394  0.8125  0.4280
 8217TIP3    H146142   0.613   2.748  12.895  0.9144  2.8545  1.2068
 8217TIP3    H246143   0.531   2.860  12.833 -1.6792  0.2912 -0.2213
 8218TIP3   OH246144   0.048   5.091   3.022 -0.2892  0.0672 -0.2655
 8218TIP3    H146145  -0.004   5.161   2.982  0.1050  0.7963  0.4773
 8218TIP3    H246146   0.062   5.119   3.112 -0.6032 -1.2517  0.2213
 8219TIP3   OH246147   3.942   2.451  16.245 -0.6653 -0.6297 -0.3522
 8219TIP3    H146148   4.017   2.399  16.271 -0.4113  0.5692  1.4923
 8219TIP3    H246149   3.976   2.513  16.180  0.4380  1.0417  1.6866
 8220TIP3   OH246150   2.964   5.359  12.883  0.1995 -0.1073  0.0420
 8220TIP3    H146151   2.947   5.412  12.961 -1.8869  1.4701 -1.3931
 8220TIP3    H246152   2.976   5.422  12.813 -0.1528 -1.5061 -1.3424
 8221TIP3   OH246153   4.295   2.074  15.167  0.5047 -0.4991  0.2783
 8221TIP3    H146154   4.336   2.010  15.225  1.8610  1.1671  1.2648
 8221TIP3    H246155   4.283   2.028  15.084 -2.8182 -3.4653  2.0955
 8222TIP3   OH246156   5.621   5.908  13.491  0.5952 -0.5303  0.1267
 8222TIP3    H146157   5.648   5.992  13.452 -0.0743 -0.2130  0.3273
 8222TIP3    H246158   5.534   5.892  13.454  1.0783 -1.5947 -0.6119
 8223TIP3   OH246159   0.605   3.055  11.400  0.1878  0.0298  0.6540
 8223TIP3    H146160   0.665   2.997  11.448  0.8624  0.8712  0.8512
 8223TIP3    H246161   0.566   2.999  11.334  0.8977 -0.6361  0.7839
 8224TIP3   OH246162   3.525   5.312   1.310  0.0679 -0.0166  0.0271
 8224TIP3    H146163   3.588   5.254   1.354 -0.1615  0.3231  0.8237
 8224TIP3    H246164   3.444   5.300   1.359 -0.2600  0.1883 -0.4660
 8225TIP3   OH246165   0.397   3.680  14.944 -0.0408 -0.0129  0.6942
 8225TIP3    H146166   0.482   3.711  14.976 -0.2807  0.3931  0.9344
 8225TIP3    H246167   0.419   3.622  14.871  0.4120  0.6213  0.3187
 8226TIP3   OH246168   2.075   5.412  14.355 -0.0953  0.2285  0.4987
 8226TIP3    H146169   2.117   5.335  14.394 -0.7793 -1.3915 -1.7480
 8226TIP3    H246170   1.983   5.387  14.349 -0.1364  0.6995 -1.3428
 8227TIP3   OH246171   6.350   5.807  12.850  0.7826  0.2751  0.0101
 8227TIP3    H146172   6.373   5.749  12.922  2.3227  0.3582 -0.3856
 8227TIP3    H246173   6.356   5.753  12.772 -0.6214  0.2541 -0.1128
 8228TIP3   OH246174   1.692   2.760   0.978 -0.3799 -0.3387 -0.2951
 8228TIP3    H146175   1.616   2.815   0.997  0.1910 -0.4635  2.7368
 8228TIP3    H246176   1.760   2.821   0.951  0.0344  0.4959  2.3590
 8229TIP3   OH246177   0.060   1.148  11.182  0.9725  0.1592  0.3247
 8229TIP3    H146178  -0.032   1.163  11.159  1.2266 -0.2641 -1.0531
 8229TIP3    H246179   0.104   1.139  11.098  1.9580 -1.5349  0.9823
 8230TIP3   OH246180   2.360   4.135  13.069  0.3075 -0.0148  0.3738
 8230TIP3    H146181   2.344   4.043  13.048 -0.5686 -0.0529  1.1785
 8230TIP3    H246182   2.320   4.148  13.155 -0.6851  1.4325 -0.2661
 8231TIP3   OH246183   3.850   3.889  17.174  0.1987  0.5461 -0.4824
 8231TIP3    H146184   3.925   3.948  17.174  0.1531  0.6147 -1.6294
 8231TIP3    H246185   3.774   3.946  17.175  0.1569  0.5060 -1.1238
 8232TIP3   OH246186   3.819   4.801  13.189 -0.6815 -0.3519 -0.2474
 8232TIP3    H146187   3.891   4.832  13.134 -0.7018 -1.9037 -1.1838
 8232TIP3    H246188   3.752   4.773  13.127 -1.3289 -0.7069  0.6006
 8233TIP3   OH246189   5.154   2.678   5.156  0.3716  0.4054  0.1645
 8233TIP3    H146190   5.193   2.623   5.224  2.5218 -0.1831 -1.4245
 8233TIP3    H246191   5.215   2.673   5.083 -1.8548  0.9676 -1.8731
 8234TIP3   OH246192   6.549   5.082  15.679 -0.0142  0.0663  0.4724
 8234TIP3    H146193   6.531   5.049  15.767 -0.5581 -0.3033  0.2316
 8234TIP3    H246194   6.471   5.059  15.629 -0.7279  2.3047  0.4472
 8235TIP3   OH246195   4.194   2.827  16.817 -0.2928  0.4748  0.2126
 8235TIP3    H146196   4.255   2.855  16.886  1.0376 -0.6821 -0.4485
 8235TIP3    H246197   4.229   2.744  16.787 -1.5326  0.3854 -1.0637
 8236TIP3   OH246198   3.341   5.686  14.264  0.4523 -0.0161  0.2365
 8236TIP3    H146199   3.287   5.618  14.223  0.3979 -1.3929  2.4551
 8236TIP3    H246200   3.431   5.655  14.256  0.3371 -1.1285  2.4243
 8237TIP3   OH246201   5.970   1.255   4.600 -0.0524  0.2574  0.4920
 8237TIP3    H146202   6.047   1.263   4.656  0.4151  0.6264 -0.2042
 8237TIP3    H246203   5.926   1.340   4.607  0.5611  0.6721 -0.4996
 8238TIP3   OH246204   1.606   3.601   2.428 -0.1874  0.1315  0.4919
 8238TIP3    H146205   1.621   3.549   2.507  1.0813 -0.2035  0.0481
 8238TIP3    H246206   1.619   3.692   2.456  1.9531 -0.0777  0.3371
 8239TIP3   OH246207   1.574   3.824   6.366  0.4770 -0.4847 -0.6151
 8239TIP3    H146208   1.641   3.850   6.429  0.5828  0.8518 -1.2372
 8239TIP3    H246209   1.552   3.734   6.390  0.7276 -0.1259  1.1311
 8240TIP3   OH246210   4.266   3.299  16.890 -0.2211  0.1295 -0.4090
 8240TIP3    H146211   4.251   3.392  16.873  0.1622  0.3865  0.6020
 8240TIP3    H246212   4.247   3.256  16.806 -0.3766  1.1144 -0.8939
 8241TIP3   OH246213   0.106   0.883  14.593 -0.1448 -0.5999  0.3653
 8241TIP3    H146214   0.027   0.932  14.617  0.8115  1.1597  0.1175
 8241TIP3    H246215   0.090   0.855  14.503 -0.8573 -1.0925  0.6316
 8242TIP3   OH246216   0.842   5.196  16.463 -0.2262  0.5998  0.5271
 8242TIP3    H146217   0.803   5.119  16.505  2.6829 -0.6545  1.2262
 8242TIP3    H246218   0.843   5.263  16.532 -1.8084  0.9557  0.2395
 8243TIP3   OH246219   1.525   0.130   0.924 -0.1372  0.5347  0.1957
 8243TIP3    H146220   1.482   0.071   0.863  1.3948  0.3190 -0.7298
 8243TIP3    H246221   1.508   0.217   0.890  1.2411  0.3934 -0.9764
 8244TIP3   OH246222   4.488   5.220  13.091 -0.2526  0.0636 -0.6117
 8244TIP3    H146223   4.543   5.149  13.059  0.1621  0.0697  0.0631
 8244TIP3    H246224   4.544   5.297  13.091 -0.3319  0.1289 -0.1859
 8245TIP3   OH246225   2.580   2.598  17.182 -0.3912 -0.5165  0.2172
 8245TIP3    H146226   2.669   2.589  17.217 -0.1049 -2.1485 -0.8172
 8245TIP3    H246227   2.567   2.692  17.173  1.1847 -0.2384  0.4935
 8246TIP3   OH246228   3.842   1.491  14.658  0.2587 -0.2652  0.1468
 8246TIP3    H146229   3.924   1.507  14.611  0.1429  0.0506  0.0497
 8246TIP3    H246230   3.809   1.578  14.679 -0.0441 -0.3920  0.1990
 8247TIP3   OH246231   3.075   6.034  16.040 -0.4076 -0.2117  0.5718
 8247TIP3    H146232   3.042   6.120  16.016 -0.5319 -0.2312  0.6802
 8247TIP3    H246233   3.010   5.972  16.005  0.0043 -0.2931 -0.0795
 8248TIP3   OH246234   0.679   5.659   0.690  0.3410  0.6991  0.9243
 8248TIP3    H146235   0.675   5.753   0.670 -2.4113  0.7093  1.0652
 8248TIP3    H246236   0.671   5.655   0.785  1.7494  0.3157  1.0489
 8249TIP3   OH246237   5.681   5.614  16.458  0.4660 -0.3318 -0.1464
 8249TIP3    H146238   5.643   5.676  16.521 -0.2938 -1.3764  0.4526
 8249TIP3    H246239   5.642   5.638  16.374  1.6382  1.2042 -0.2864
 8250TIP3   OH246240   6.204   0.531   3.178 -0.0880 -0.5007  0.1744
 8250TIP3    H146241   6.150   0.467   3.133 -0.8528 -0.8269  1.4882
 8250TIP3    H246242   6.220   0.599   3.113 -0.8478 -1.1112 -0.6814
 8251TIP3   OH246243   3.049   0.330   4.118  0.1571 -0.3030 -0.0727
 8251TIP3    H146244   3.037   0.236   4.126  0.0366 -0.1307  3.1812
 8251TIP3    H246245   3.106   0.353   4.192  2.9331  1.8102 -2.6154
 8252TIP3   OH246246   5.603   5.968   3.020  0.5105  0.1667  0.4853
 8252TIP3    H146247   5.648   5.956   3.103 -1.2651  1.5312  1.6900
 8252TIP3    H246248   5.588   5.878   2.988 -0.5920 -0.4789  2.6557
 8253TIP3   OH246249   6.253   4.735   3.959 -0.7534 -0.1528 -0.3319
 8253TIP3    H146250   6.332   4.682   3.973 -0.6746 -0.1075 -0.5854
 8253TIP3    H246251   6.205   4.689   3.891 -0.4920  0.3014 -0.8357
 8254TIP3   OH246252   1.154   6.465  12.765 -0.0344  0.2136  0.0776
 8254TIP3    H146253   1.223   6.399  12.763  0.3486  0.6129 -0.8866
 8254TIP3    H246254   1.166   6.512  12.848 -1.2274 -1.8371  1.4892
 8255TIP3   OH246255   5.720   4.807   5.002 -0.1731  0.6785 -0.0910
 8255TIP3    H146256   5.727   4.767   4.916  0.1772  0.5869 -0.0217
 8255TIP3    H246257   5.674   4.743   5.056  0.3966  0.3586  0.0232
 8256TIP3   OH246258   1.375   1.745   2.288  0.1430  0.0179  0.1925
 8256TIP3    H146259   1.452   1.728   2.234  0.6205 -0.0515  0.8716
 8256TIP3    H246260   1.302   1.747   2.227  0.6811  0.0452 -0.4609
 8257TIP3   OH246261   2.840   2.261  17.013 -0.2469 -0.3682  0.1742
 8257TIP3    H146262   2.819   2.350  16.987 -0.1847 -0.2701  0.4537
 8257TIP3    H246263   2.760   2.211  16.994 -0.3578 -0.2090  0.2258
 8258TIP3   OH246264   2.391   5.384   4.021  0.1849 -0.6458 -0.4264
 8258TIP3    H146265   2.384   5.302   3.973 -0.8919 -0.2226 -1.0375
 8258TIP3    H246266   2.304   5.423   4.015  0.5627  0.3466  0.2040
 8259TIP3   OH246267   0.170   1.071  16.565  0.3201 -0.1999  0.4185
 8259TIP3    H146268   0.129   0.989  16.540 -1.2124  0.5011  0.5287
 8259TIP3    H246269   0.241   1.083  16.502  0.9772 -1.8903  0.7854
 8260TIP3   OH246270   5.205   0.089  14.077 -0.2564  0.1291  0.1897
 8260TIP3    H146271   5.209   0.012  14.021 -0.1659 -0.6047  1.1963
 8260TIP3    H246272   5.260   0.068  14.153 -0.2656  1.1595  0.5075
 8261TIP3   OH246273   2.317   1.092  13.427 -0.0352  0.3915 -0.8099
 8261TIP3    H146274   2.397   1.056  13.464 -0.1259  1.4792  0.5077
 8261TIP3    H246275   2.261   1.110  13.503 -1.5649 -0.3921 -1.6973
 8262TIP3   OH246276   3.250   5.721  14.524 -0.0701  0.2050  0.1034
 8262TIP3    H146277   3.264   5.716  14.430 -0.6548 -0.3106  0.0340
 8262TIP3    H246278   3.224   5.812  14.540 -0.0423  0.2736 -0.2414
 8263TIP3   OH246279   0.474   5.910   4.073  0.2003  0.2437 -0.2771
 8263TIP3    H146280   0.535   5.918   4.147  2.7980 -2.3975 -1.9221
 8263TIP3    H246281   0.514   5.962   4.003  0.7113 -1.5716 -1.3931
 8264TIP3   OH246282   6.661   0.977   2.518  0.4619  0.2582  0.3039
 8264TIP3    H146283   6.597   1.042   2.547 -1.3917 -1.1463 -0.4704
 8264TIP3    H246284   6.658   0.909   2.585  0.2523 -0.3868 -0.3534
 8265TIP3   OH246285   0.219   0.533  11.778  0.4574 -0.1295  0.0599
 8265TIP3    H146286   0.138   0.481  11.778  0.6997 -0.5533 -1.4577
 8265TIP3    H246287   0.204   0.600  11.712  0.5198  1.1962  1.3376
 8266TIP3   OH246288   1.806   4.838   2.837 -0.2878  0.2485  0.5049
 8266TIP3    H146289   1.832   4.829   2.929  1.7662 -1.1611 -0.1400
 8266TIP3    H246290   1.768   4.753   2.815 -0.3285  0.4144 -0.0771
 8267TIP3   OH246291   0.210   1.794  16.750 -0.7850  0.7501  0.1767
 8267TIP3    H146292   0.148   1.861  16.780  0.1039  1.8586 -0.4037
 8267TIP3    H246293   0.293   1.840  16.742 -0.0165 -0.5680  0.3170
 8268TIP3   OH246294   3.517   0.973   2.192  0.0633 -0.0054 -0.1257
 8268TIP3    H146295   3.510   0.940   2.103 -0.5975 -3.5736  1.0717
 8268TIP3    H246296   3.609   0.995   2.203  0.5856 -1.5622 -1.1203
 8269TIP3   OH246297   4.638   6.606  10.761  0.1946  0.0712 -0.3256
 8269TIP3    H146298   4.650   6.533  10.821  0.1744 -2.4102 -3.1030
 8269TIP3    H246299   4.545   6.627  10.766  0.0510 -0.6134 -0.0418
 8270TIP3   OH246300   2.825   1.306   1.737  0.1984  0.0121  0.0380
 8270TIP3    H146301   2.870   1.373   1.788 -0.0900  0.3525 -0.1501
 8270TIP3    H246302   2.760   1.270   1.797 -1.7367  2.0026 -0.7243
 8271TIP3   OH246303   0.611   5.181  15.529 -0.2678 -0.5335  0.5024
 8271TIP3    H146304   0.679   5.182  15.596  0.0749 -0.9910  0.1736
 8271TIP3    H246305   0.651   5.223  15.453 -0.7286  0.1817  0.6452
 8272TIP3   OH246306   0.380   6.676  15.894 -0.2251  1.0842  0.3651
 8272TIP3    H146307   0.392   6.582  15.888 -1.5982  0.8699  0.7342
 8272TIP3    H246308   0.325   6.689  15.972 -1.5332  2.0363 -0.6740
 8273TIP3   OH246309   6.665   5.989   5.880 -0.2432  0.4409 -0.2163
 8273TIP3    H146310   6.719   6.059   5.841  1.4779 -0.9798 -0.5500
 8273TIP3    H246311   6.687   5.991   5.973 -0.4070  0.5269 -0.1798
 8274TIP3   OH246312   6.648   6.210  13.011 -0.1457 -0.1105 -0.1367
 8274TIP3    H146313   6.690   6.138  12.964 -0.1824  0.8771 -1.7877
 8274TIP3    H246314   6.682   6.289  12.969  0.0408  0.8601  1.7439
 8275TIP3   OH246315   3.022   3.732  14.837 -0.1861 -0.9094 -0.1878
 8275TIP3    H146316   2.953   3.687  14.788  0.6209 -1.2820 -1.0387
 8275TIP3    H246317   3.041   3.810  14.785 -1.4148  0.3485  1.1600
 8276TIP3   OH246318   4.244   1.017   1.245 -0.1294 -1.0797  0.3006
 8276TIP3    H146319   4.315   1.040   1.185 -1.6672 -0.8554 -1.5601
 8276TIP3    H246320   4.226   1.098   1.293 -0.5510 -0.4869 -0.8135
 8277TIP3   OH246321   0.872   5.141   6.124 -0.2825  0.0419 -0.0342
 8277TIP3    H146322   0.787   5.101   6.143 -0.2420 -0.1926 -0.3322
 8277TIP3    H246323   0.929   5.066   6.103  0.4488  0.0264  1.7825
 8278TIP3   OH246324   5.530   0.338  13.551  0.6677 -0.4128  0.1974
 8278TIP3    H146325   5.596   0.350  13.483  0.3141  0.1282 -0.0562
 8278TIP3    H246326   5.545   0.249  13.585  1.8567 -0.0987  0.5086
 8279TIP3   OH246327   4.831   5.591  14.057  0.1182  0.1235 -0.2373
 8279TIP3    H146328   4.773   5.536  14.110  1.3132  0.0680  1.1140
 8279TIP3    H246329   4.774   5.657  14.018 -0.6659  1.2843  2.5923
 8280TIP3   OH246330   2.944   0.824  12.616  0.6030 -0.0968 -0.1998
 8280TIP3    H146331   2.982   0.878  12.685  0.1116  1.9168 -1.4355
 8280TIP3    H246332   3.011   0.758  12.598  1.7726  0.8540  0.4966
 8281TIP3   OH246333   6.268   4.889   4.522 -0.1248  0.8197  0.3142
 8281TIP3    H146334   6.255   4.977   4.487 -1.0244  0.2442 -0.8900
 8281TIP3    H246335   6.276   4.902   4.617  0.5783  2.2553  0.0904
 8282TIP3   OH246336   1.288   1.491  12.921  0.0484  0.1393  0.0746
 8282TIP3    H146337   1.371   1.522  12.957 -0.1517 -0.3150  0.9364
 8282TIP3    H246338   1.305   1.401  12.893 -0.0109  0.2258 -0.2467
 8283TIP3   OH246339   3.048   0.500   4.837  0.2286  0.4084 -0.1669
 8283TIP3    H146340   3.120   0.558   4.813  0.0454  0.1368 -1.4644
 8283TIP3    H246341   3.079   0.412   4.812 -0.3756  0.2407 -0.3598
 8284TIP3   OH246342   4.337   5.154  13.330  0.1967 -0.2771 -0.1603
 8284TIP3    H146343   4.381   5.162  13.245 -0.0081 -3.8496 -0.7502
 8284TIP3    H246344   4.256   5.106  13.310 -0.8177  0.5148  1.8158
 8285TIP3   OH246345   4.139   4.469  11.627  0.0319  0.3655  0.7329
 8285TIP3    H146346   4.205   4.404  11.602  0.2996  0.8577  0.1443
 8285TIP3    H246347   4.063   4.446  11.573  0.5806  1.3726 -0.5249
 8286TIP3   OH246348   1.969   3.127   4.494 -0.9946  0.4233  0.6142
 8286TIP3    H146349   2.018   3.193   4.543  2.0015 -1.4779  0.4360
 8286TIP3    H246350   2.020   3.047   4.503 -2.2664 -0.9202 -2.5634
 8287TIP3   OH246351   6.495   0.477   3.656  0.1022 -0.3792 -0.0268
 8287TIP3    H146352   6.417   0.510   3.700  0.1161 -0.2399 -0.1048
 8287TIP3    H246353   6.468   0.463   3.565 -0.3101 -1.9837  0.3113
 8288TIP3   OH246354   5.753   1.444   6.130  0.1092  0.6421 -0.1774
 8288TIP3    H146355   5.674   1.457   6.182  0.1444  0.8597 -0.1757
 8288TIP3    H246356   5.736   1.365   6.079  0.0910  0.3997  0.1968
 8289TIP3   OH246357   4.544   2.798  13.902 -0.4193  0.4101 -0.5134
 8289TIP3    H146358   4.591   2.715  13.914 -1.9074 -0.5636 -1.1088
 8289TIP3    H246359   4.521   2.826  13.990 -0.1081  0.0647 -0.3193
 8290TIP3   OH246360   2.734   0.366   2.838 -0.2387  0.2874  0.2974
 8290TIP3    H146361   2.689   0.285   2.815 -1.0208  0.2778  1.7546
 8290TIP3    H246362   2.683   0.403   2.910  2.2682  0.0846  2.3354
 8291TIP3   OH246363   0.533   5.052   3.064  0.1946  0.2960  0.0800
 8291TIP3    H146364   0.606   5.015   3.113 -0.2337 -0.9336 -0.1902
 8291TIP3    H246365   0.573   5.117   3.007  0.6203  2.4022  2.5814
 8292TIP3   OH246366   4.714   6.387  17.532  0.0586  0.0065  0.4767
 8292TIP3    H146367   4.659   6.352  17.602  0.9040 -1.4410  0.4587
 8292TIP3    H246368   4.765   6.312  17.502  2.7933  1.4654  1.1780
 8293TIP3   OH246369   2.446   6.698  17.361 -0.5295  0.5052 -0.1977
 8293TIP3    H146370   2.367   6.700  17.307 -1.0471 -0.3442  0.5075
 8293TIP3    H246371   2.416   6.727  17.447 -0.7269 -2.5051  0.8543
 8294TIP3   OH246372   3.828   0.276   3.034  0.7463 -0.1297  0.2813
 8294TIP3    H146373   3.741   0.309   3.056  2.1336  3.4883  1.0453
 8294TIP3    H246374   3.813   0.212   2.965 -2.5453 -0.2163  0.9498
 8295TIP3   OH246375   0.353   6.368   6.085  0.1459 -0.1815  0.1904
 8295TIP3    H146376   0.407   6.292   6.107  2.0205  0.4425 -1.7832
 8295TIP3    H246377   0.410   6.443   6.102 -1.1593  0.7191  0.7510
 8296TIP3   OH246378   1.821   6.726   4.587  0.0583  0.4170  0.2034
 8296TIP3    H146379   1.759   6.701   4.519 -0.5967 -0.4334  1.0777
 8296TIP3    H246380   1.766   6.767   4.654  0.4348 -0.2615  0.9463
 8297TIP3   OH246381   5.494   5.588  14.383 -0.3305  0.3726  0.1243
 8297TIP3    H146382   5.445   5.633  14.452 -0.0098  0.5333  0.2509
 8297TIP3    H246383   5.512   5.656  14.318 -0.0749  0.3713  0.1910
 8298TIP3   OH246384   4.027   4.344   2.785  0.2101  0.1489  0.2444
 8298TIP3    H146385   4.090   4.416   2.791  0.4028  0.0005  0.0241
 8298TIP3    H246386   4.056   4.293   2.710  2.2342 -2.2188  2.4574
 8299TIP3   OH246387   3.143   0.675  16.607 -0.3019 -0.4100 -0.3196
 8299TIP3    H146388   3.171   0.721  16.687  1.0628  0.9506 -1.5210
 8299TIP3    H246389   3.069   0.725  16.575  1.1175  0.9960 -1.5692
 8300TIP3   OH246390   5.192   6.587   6.027 -0.5430  0.1603 -0.5228
 8300TIP3    H146391   5.254   6.656   6.052  0.0954  0.2665 -2.2460
 8300TIP3    H246392   5.109   6.614   6.067  0.1150  0.9145  0.3982
 8301TIP3   OH246393   2.276   6.101   5.854  0.1706 -0.6276  0.2869
 8301TIP3    H146394   2.261   6.091   5.760  1.8709 -2.0852  0.1211
 8301TIP3    H246395   2.244   6.020   5.892 -0.0563 -0.2483  0.9186
 8302TIP3   OH246396   5.053   0.135  14.739  0.0816 -0.1408  0.2781
 8302TIP3    H146397   5.055   0.230  14.749 -0.5186 -0.1395  0.3759
 8302TIP3    H246398   4.995   0.119  14.666  0.5541 -0.4153 -0.0438
 8303TIP3   OH246399   1.771   3.356  14.245 -0.2054 -0.1492  0.1297
 8303TIP3    H146400   1.824   3.337  14.322 -0.5336  0.2816  0.4704
 8303TIP3    H246401   1.772   3.275  14.194  1.3511  0.0706 -0.2275
 8304TIP3   OH246402   0.454   5.518   0.038  0.5315 -0.1009  0.2893
 8304TIP3    H146403   0.397   5.459  -0.012  1.0522 -1.4473  1.2060
 8304TIP3    H246404   0.542   5.499   0.007  0.6054  1.1147 -0.2772
 8305TIP3   OH246405   2.580   3.206   2.125 -0.0322 -0.3019 -0.1289
 8305TIP3    H146406   2.586   3.230   2.217 -0.3507  1.6692 -0.5877
 8305TIP3    H246407   2.569   3.110   2.126 -0.2901 -0.2894  1.8650
 8306TIP3   OH246408   2.436   4.583  17.291  0.0672  0.4733  0.0964
 8306TIP3    H146409   2.431   4.650  17.222  2.4737  1.2468  0.5612
 8306TIP3    H246410   2.378   4.513  17.261 -0.2050  1.4814 -1.9153
 8307TIP3   OH246411   3.569   0.250  14.387  0.3057 -0.2209 -0.3039
 8307TIP3    H146412   3.533   0.216  14.469 -1.0376  1.0416 -0.3339
 8307TIP3    H246413   3.584   0.343  14.404  1.0949 -0.1799 -1.1448
 8308TIP3   OH246414   1.494   2.084  14.885  0.8325  0.2658 -0.1428
 8308TIP3    H146415   1.488   2.164  14.834  0.0199 -0.2111 -0.8194
 8308TIP3    H246416   1.546   2.025  14.830  2.5141  0.7139  0.8903
 8309TIP3   OH246417   1.423   0.229   1.614  0.0862 -0.0097  0.0039
 8309TIP3    H146418   1.498   0.283   1.589  0.3820 -0.4534 -0.0733
 8309TIP3    H246419   1.347   0.279   1.583  0.4420 -0.7701 -2.3574
 8310TIP3   OH246420   3.075   2.795  16.066  0.1465 -0.2253 -0.6900
 8310TIP3    H146421   3.093   2.789  15.972  0.9285 -0.2034 -0.5475
 8310TIP3    H246422   3.051   2.887  16.079 -0.7999 -0.4212 -1.0029
 8311TIP3   OH246423   1.188   0.004   1.706 -0.5337 -0.6983  0.4719
 8311TIP3    H146424   1.128   0.035   1.638  2.1455  0.2841 -1.5993
 8311TIP3    H246425   1.138   0.014   1.787 -1.9424  3.6371 -0.6626
 8312TIP3   OH246426   2.991   2.560  13.975  0.0053  1.0612  0.1166
 8312TIP3    H146427   3.000   2.528  14.064 -0.8078 -1.7152 -0.7031
 8312TIP3    H246428   3.081   2.575  13.946  0.5043 -1.0528  0.4295
 8313TIP3   OH246429   0.766   3.452   2.558 -0.0134  0.5355 -0.4578
 8313TIP3    H146430   0.824   3.528   2.550  1.5615 -0.7560 -2.1596
 8313TIP3    H246431   0.793   3.394   2.487 -1.6833 -1.2983  0.3220
 8314TIP3   OH246432   3.735   1.304  14.836  0.1422  0.5089  0.0845
 8314TIP3    H146433   3.707   1.230  14.782  1.2303 -0.0200  0.2203
 8314TIP3    H246434   3.744   1.377  14.775 -0.1840  0.3292 -0.1794
 8315TIP3   OH246435   1.954   5.910   3.869 -0.1257 -0.5633  0.2623
 8315TIP3    H146436   1.954   6.004   3.851  1.4247 -0.2746  1.5390
 8315TIP3    H246437   1.919   5.870   3.790 -0.0016  1.0352 -0.6289
 8316TIP3   OH246438   2.247   2.742  17.567 -0.2433  0.1916  0.2896
 8316TIP3    H146439   2.194   2.726  17.489  2.3405 -1.0159 -1.3435
 8316TIP3    H246440   2.289   2.827  17.551  0.3145 -0.0693  0.3544
 8317TIP3   OH246441   4.520   5.612  14.568  0.3007 -0.3743 -0.1062
 8317TIP3    H146442   4.530   5.520  14.593  0.6177 -0.2598  0.1942
 8317TIP3    H246443   4.426   5.627  14.568  0.2528  0.3805  3.8608
 8318TIP3   OH246444   1.206   5.959   5.388 -0.3898 -0.8169  0.5815
 8318TIP3    H146445   1.174   6.048   5.400  2.5641  0.4673 -0.1209
 8318TIP3    H246446   1.154   5.924   5.316 -0.6889  0.8726 -0.0632
 8319TIP3   OH246447   3.246   1.083   2.241  0.4557 -0.4784  0.3865
 8319TIP3    H146448   3.197   1.063   2.161 -1.2377 -0.3890  1.3436
 8319TIP3    H246449   3.328   1.120   2.210 -1.0104  1.5964 -1.3719
 8320TIP3   OH246450   5.092   0.679   3.819 -0.3061 -0.1474 -0.4644
 8320TIP3    H146451   5.071   0.741   3.749 -0.8126  0.1721 -0.0424
 8320TIP3    H246452   5.029   0.699   3.888  0.6255  0.0183  0.3698
 8321TIP3   OH246453   5.297   1.924  14.816  0.2025  0.5902  0.2375
 8321TIP3    H146454   5.354   1.987  14.771 -0.8668  2.1783  1.0075
 8321TIP3    H246455   5.209   1.943  14.784 -0.0730 -1.0002 -0.0113
 8322TIP3   OH246456   3.918   0.368  10.983  0.2077  0.3837 -0.8295
 8322TIP3    H146457   3.980   0.302  11.014 -1.6376 -0.1900  2.0383
 8322TIP3    H246458   3.936   0.375  10.889  3.5277 -0.8090 -0.4302
 8323TIP3   OH246459   1.899   3.192   1.144  0.1974 -0.0402 -0.1065
 8323TIP3    H146460   1.865   3.248   1.074  1.5653  0.1356 -0.6611
 8323TIP3    H246461   1.994   3.203   1.139  0.3735 -0.8781  1.0760
 8324TIP3   OH246462   3.387   3.628   3.556  0.2159  0.0337  0.5165
 8324TIP3    H146463   3.298   3.655   3.579  0.2766 -0.1785  1.0096
 8324TIP3    H246464   3.383   3.533   3.554  0.6099 -0.0030  1.2774
 8325TIP3   OH246465   5.308   2.856   0.047  0.2745 -0.3275 -0.6659
 8325TIP3    H146466   5.307   2.945   0.010  1.6111 -0.3462 -0.7937
 8325TIP3    H246467   5.400   2.832   0.049 -0.0173 -1.4622  0.0102
 8326TIP3   OH246468   2.830   2.641  15.032  0.3311  0.5878 -0.6727
 8326TIP3    H146469   2.893   2.701  15.070 -0.9162  2.5993 -1.6434
 8326TIP3    H246470   2.768   2.696  14.984 -0.6897 -1.4875 -1.9326
 8327TIP3   OH246471   3.337   3.141  15.780  0.0981  0.5155 -0.9321
 8327TIP3    H146472   3.389   3.221  15.787 -0.8104  1.3676 -3.0650
 8327TIP3    H246473   3.399   3.070  15.798  1.1138  1.6420  0.1734
 8328TIP3   OH246474   2.338   4.900  14.425 -0.2397  0.1679  0.0750
 8328TIP3    H146475   2.396   4.909  14.349 -1.8947 -1.0656 -1.4578
 8328TIP3    H246476   2.345   4.983  14.471  1.0505  0.8577 -1.2686
 8329TIP3   OH246477   4.271   5.951   0.848  0.5828  0.3658  0.4741
 8329TIP3    H146478   4.273   5.953   0.753 -0.0993 -1.1319  0.3951
 8329TIP3    H246479   4.331   5.881   0.872 -1.1025 -0.9690  0.9969
 8330TIP3   OH246480   1.874   1.811  11.727 -0.5767  0.0481 -0.3367
 8330TIP3    H146481   1.919   1.745  11.673 -0.3983  0.0044 -0.1354
 8330TIP3    H246482   1.945   1.861  11.768 -0.6916 -0.9497  1.1436
 8331TIP3   OH246483   3.610   0.594   1.023 -0.5761 -0.2062 -0.1266
 8331TIP3    H146484   3.586   0.556   0.939 -0.9946  1.2365 -0.6804
 8331TIP3    H246485   3.577   0.683   1.020 -0.5706 -0.1149  1.5678
 8332TIP3   OH246486   2.294   2.517  12.425 -0.3318 -0.0153 -0.4113
 8332TIP3    H146487   2.359   2.586  12.440 -0.4462 -0.2519  1.2990
 8332TIP3    H246488   2.311   2.452  12.492 -2.0809 -0.2789 -0.1762
 8333TIP3   OH246489   6.699   1.109  14.377 -0.4667 -0.3814 -0.5872
 8333TIP3    H146490   6.713   1.134  14.286  0.0016 -1.9641 -0.9765
 8333TIP3    H246491   6.788   1.096  14.412 -0.6684 -0.8039 -0.2147
 8334TIP3   OH246492   6.332   2.496  13.347  0.3748  0.0072 -0.3009
 8334TIP3    H146493   6.403   2.546  13.386  1.3372 -1.2094 -0.4378
 8334TIP3    H246494   6.370   2.410  13.328 -1.3094 -0.8937  0.2121
 8335TIP3   OH246495   6.602   4.777   5.467  0.0994 -0.5964  0.0674
 8335TIP3    H146496   6.552   4.785   5.385  0.0310 -1.4154  0.0222
 8335TIP3    H246497   6.536   4.758   5.534  0.2381 -0.7018  0.1765
 8336TIP3   OH246498   2.017   0.467   0.274 -0.2377  0.3165  0.2279
 8336TIP3    H146499   1.946   0.442   0.333 -0.8016 -1.6057 -1.1426
 8336TIP3    H246500   2.001   0.559   0.254  0.5570  1.3545  3.7419
 8337TIP3   OH246501   4.863   3.965   3.487  0.3169 -0.4995  0.0294
 8337TIP3    H146502   4.887   3.891   3.432 -0.8983  0.1284 -1.4180
 8337TIP3    H246503   4.861   3.929   3.576  0.5817 -1.9761 -0.5350
 8338TIP3   OH246504   1.871   3.423   1.324 -0.4731  0.1523 -0.0811
 8338TIP3    H146505   1.860   3.331   1.298 -1.9405  0.4276 -0.5524
 8338TIP3    H246506   1.829   3.472   1.253  2.0289  1.3357 -0.8724
 8339TIP3   OH246507   4.400   1.650  11.686  0.2849 -0.0719  0.3958
 8339TIP3    H146508   4.409   1.646  11.781 -1.9722  1.5543  0.7242
 8339TIP3    H246509   4.383   1.742  11.666  0.6586 -0.3801 -1.6077
 8340TIP3   OH246510   4.975   2.548   2.451  0.4110  0.2915 -0.2844
 8340TIP3    H146511   5.063   2.519   2.427 -0.9620 -3.4852 -1.3465
 8340TIP3    H246512   4.956   2.505   2.534 -1.1739 -0.7060 -1.1193
 8341TIP3   OH246513   1.928   4.431   2.415 -0.4203  0.6875 -0.9096
 8341TIP3    H146514   1.949   4.347   2.455 -1.4665  1.4788  1.4554
 8341TIP3    H246515   2.009   4.458   2.372  0.2119 -1.0570 -0.8910
 8342TIP3   OH246516   4.464   4.200  15.603 -0.8470 -0.5236  0.1581
 8342TIP3    H146517   4.501   4.231  15.685 -2.4885  1.0126  0.3900
 8342TIP3    H246518   4.455   4.279  15.550 -0.6153 -1.3672 -1.1725
 8343TIP3   OH246519   4.530   6.008   4.179 -0.5892 -0.5447  0.3120
 8343TIP3    H146520   4.528   5.913   4.166 -3.2668 -0.5693  0.4336
 8343TIP3    H246521   4.525   6.019   4.274 -0.7661 -0.2697  0.2709
 8344TIP3   OH246522   3.054   4.515   6.277  0.0631 -0.2869 -0.0820
 8344TIP3    H146523   3.127   4.573   6.299 -0.0326 -0.7393  1.5900
 8344TIP3    H246524   2.976   4.563   6.304 -0.2964  0.1977 -1.8695
 8345TIP3   OH246525   1.257   2.063   1.742  0.0701  0.4497  0.2353
 8345TIP3    H146526   1.240   2.153   1.770  0.2717  0.1497  1.3861
 8345TIP3    H246527   1.226   2.059   1.652  0.5310  1.8136 -0.0047
 8346TIP3   OH246528   3.362   1.086  13.622 -0.6096 -0.3863  0.0922
 8346TIP3    H146529   3.392   1.172  13.594 -1.2243  0.0191  0.6246
 8346TIP3    H246530   3.437   1.029  13.610 -0.4198  0.0628 -0.9897
 8347TIP3   OH246531   0.002   2.589   1.247  0.2773  0.3592 -0.4299
 8347TIP3    H146532  -0.065   2.527   1.275  1.0940  0.2749  1.4805
 8347TIP3    H246533   0.028   2.560   1.159 -1.8093  0.1228 -1.0170
 8348TIP3   OH246534   6.026   2.041  14.525 -0.0451 -0.2698 -0.0050
 8348TIP3    H146535   6.096   2.090  14.568  0.6632  0.2641 -1.6845
 8348TIP3    H246536   5.979   2.107  14.473 -2.0050 -0.5545  1.2959
 8349TIP3   OH246537   0.926   2.051   3.909  0.0314  0.3996 -0.0750
 8349TIP3    H146538   0.953   2.069   3.819  3.0198 -2.1183  0.1852
 8349TIP3    H246539   0.985   2.104   3.963  0.8623 -0.9863  0.4209
 8350TIP3   OH246540   1.755   6.041  13.093 -0.1757 -0.2674  0.7898
 8350TIP3    H146541   1.851   6.031  13.094  0.1008  1.4638 -0.9672
 8350TIP3    H246542   1.740   6.125  13.137 -0.4555  1.3563 -2.1279
 8351TIP3   OH246543   1.482   4.628  15.249  0.1223 -0.5065 -0.7334
 8351TIP3    H146544   1.513   4.695  15.187  2.2770 -0.6944  0.0479
 8351TIP3    H246545   1.559   4.572  15.263 -0.5399 -0.9549  1.4609
 8352TIP3   OH246546   6.080   4.536   0.326  0.4349  0.0525 -0.5136
 8352TIP3    H146547   6.042   4.607   0.275  0.0636  0.0742 -0.2153
 8352TIP3    H246548   6.107   4.471   0.261  1.0208  0.5775 -0.8053
 8353TIP3   OH246549   1.486   6.452  14.870  0.6074  0.1369 -0.1879
 8353TIP3    H146550   1.565   6.399  14.882  1.0126  0.5975 -0.7341
 8353TIP3    H246551   1.510   6.538  14.903 -0.1217 -0.0607  0.9074
 8354TIP3   OH246552   5.743   1.024  13.373  0.6248  0.1306 -0.6091
 8354TIP3    H146553   5.670   0.977  13.413  0.1056  1.1104 -0.3808
 8354TIP3    H246554   5.809   0.956  13.356  0.0175 -0.6247 -0.0147
 8355TIP3   OH246555   2.788   6.594   2.249 -0.7563  0.1545  0.5059
 8355TIP3    H146556   2.824   6.515   2.210 -0.5150  1.3210 -1.8412
 8355TIP3    H246557   2.694   6.579   2.254 -0.8254  0.0360 -0.8180
 8356TIP3   OH246558   5.954   4.700   0.123 -0.2346 -0.2571  0.0277
 8356TIP3    H146559   5.974   4.792   0.110 -0.1265  0.1224  2.4330
 8356TIP3    H246560   5.866   4.689   0.088  0.4028  0.3029 -1.8839
 8357TIP3   OH246561   3.575   5.182   5.956  0.1693  0.5641 -0.3816
 8357TIP3    H146562   3.488   5.218   5.937  0.3688  0.9527 -0.5730
 8357TIP3    H246563   3.561   5.126   6.033 -0.1487  1.0691 -0.0584
 8358TIP3   OH246564   6.158   4.488   3.798  0.2207 -0.0671  0.4486
 8358TIP3    H146565   6.205   4.404   3.798  0.9773  0.3217 -1.1228
 8358TIP3    H246566   6.213   4.546   3.745 -1.5493  0.7029 -0.6355
 8359TIP3   OH246567   6.511   6.508   0.111  0.2387 -0.1054 -0.0474
 8359TIP3    H146568   6.521   6.413   0.111  0.9527 -0.0381 -0.3911
 8359TIP3    H246569   6.456   6.527   0.036  1.4310 -0.1353 -0.9549
 8360TIP3   OH246570   0.932   3.054  14.339 -0.0800  0.3906  0.0648
 8360TIP3    H146571   0.971   3.126  14.290 -0.8417  1.1183  0.5111
 8360TIP3    H246572   0.844   3.045  14.302  0.3942 -1.0994 -0.7955
 8361TIP3   OH246573   3.539   4.224   3.920 -0.0743  0.3053 -0.1117
 8361TIP3    H146574   3.572   4.135   3.930 -1.3682 -0.1934 -0.1276
 8361TIP3    H246575   3.579   4.273   3.992 -0.6461 -0.6708  0.8809
 8362TIP3   OH246576   6.399   3.815  13.908  0.9145  0.0159  0.5635
 8362TIP3    H146577   6.397   3.909  13.891 -1.7891 -0.3860 -2.2954
 8362TIP3    H246578   6.359   3.806  13.995 -2.2768  1.4095 -0.6220
 8363TIP3   OH246579   3.301   0.602   6.211 -0.2300 -0.1513 -0.3812
 8363TIP3    H146580   3.216   0.593   6.167 -0.5766  2.2309 -0.3022
 8363TIP3    H246581   3.281   0.641   6.296  0.9481  0.6037 -0.4226
 8364TIP3   OH246582   2.520   2.747   3.380 -0.2220 -0.1762 -0.2695
 8364TIP3    H146583   2.534   2.838   3.355  0.4305 -0.6434 -1.7040
 8364TIP3    H246584   2.558   2.740   3.468  0.5954  0.7075 -0.5372
 8365TIP3   OH246585   3.109   4.392   3.967 -0.1101  0.1010  0.4925
 8365TIP3    H146586   3.060   4.378   3.886 -0.0186 -0.0580  0.4659
 8365TIP3    H246587   3.138   4.483   3.962  0.2710 -0.0398  0.1440
 8366TIP3   OH246588   3.774   2.010   4.395 -0.1139 -0.3707 -0.4500
 8366TIP3    H146589   3.796   2.062   4.472 -0.1464 -0.8541 -0.1104
 8366TIP3    H246590   3.742   2.074   4.331  2.4838  0.4323 -1.0727
 8367TIP3   OH246591   2.713   0.686  17.454 -0.2845  0.2195  0.0580
 8367TIP3    H146592   2.679   0.768  17.489 -3.1226 -0.9137  0.3040
 8367TIP3    H246593   2.762   0.647  17.527  0.4671  1.3357  0.1711
 8368TIP3   OH246594   1.847   4.979  16.269  0.7648  0.2065 -0.2550
 8368TIP3    H146595   1.833   4.919  16.196  1.3381 -0.6477  0.3224
 8368TIP3    H246596   1.797   5.057  16.245 -1.6219 -1.1784 -0.1681
 8369TIP3   OH246597   1.122   0.536   3.268 -0.0872  0.2761 -0.4205
 8369TIP3    H146598   1.041   0.487   3.276  0.4260 -0.4467  0.5984
 8369TIP3    H246599   1.099   0.626   3.293 -0.4166 -0.0916  0.6307
 8370TIP3   OH246600   3.623   0.767  14.809 -0.2827 -0.2081  0.1442
 8370TIP3    H146601   3.675   0.740  14.734 -2.4197 -1.8662 -0.8281
 8370TIP3    H246602   3.676   0.744  14.885  0.2608 -2.2063 -0.7898
 8371TIP3   OH246603   1.716   0.652   2.390 -0.0842  0.4441  0.3880
 8371TIP3    H146604   1.712   0.570   2.342 -2.4482  1.8027 -1.9475
 8371TIP3    H246605   1.732   0.719   2.324  1.1832  1.9909  2.1380
 8372TIP3   OH246606   4.840   2.923  13.135 -0.2268  0.0046 -0.1514
 8372TIP3    H146607   4.929   2.957  13.138 -0.6599  1.1450  0.4646
 8372TIP3    H246608   4.816   2.912  13.227 -0.6304 -0.5282 -0.3200
 8373TIP3   OH246609   0.642   6.477   3.517 -0.0576 -0.1359 -0.3383
 8373TIP3    H146610   0.662   6.446   3.605 -2.2944 -1.0163 -0.0724
 8373TIP3    H246611   0.715   6.445   3.463  1.9897  1.4845  1.3305
 8374TIP3   OH246612   1.693   3.530   7.310 -0.2229 -0.6391 -0.7004
 8374TIP3    H146613   1.676   3.476   7.387 -0.7964  0.8295  0.2374
 8374TIP3    H246614   1.768   3.584   7.334 -1.7889  1.4551 -0.2310
 8375TIP3   OH246615   2.654   6.330  16.530 -0.5730  0.2272 -0.0750
 8375TIP3    H146616   2.629   6.270  16.601 -1.0649  1.6729  1.0259
 8375TIP3    H246617   2.575   6.337  16.476 -0.0342 -1.3030 -1.1486
 8376TIP3   OH246618   1.305   5.998  12.753 -0.5778  0.4717 -0.0376
 8376TIP3    H146619   1.360   5.938  12.803  0.9348 -1.0356 -3.2784
 8376TIP3    H246620   1.218   5.958  12.753 -0.0281 -0.7468 -0.5643
 8377TIP3   OH246621   5.214   4.764   5.905  0.2392  0.2382 -0.2202
 8377TIP3    H146622   5.174   4.850   5.911 -0.7510 -0.2298  0.1055
 8377TIP3    H246623   5.232   4.752   5.811  2.4044  1.6628 -0.0500
 8378TIP3   OH246624   5.976   5.658   3.817  0.0652 -0.0166  0.9383
 8378TIP3    H146625   5.948   5.732   3.763 -1.2060  0.5629  2.3228
 8378TIP3    H246626   5.992   5.696   3.903  0.8810 -1.1142  1.2889
 8379TIP3   OH246627   1.817   0.010  12.208  0.2250 -0.6435 -0.3449
 8379TIP3    H146628   1.774  -0.064  12.166  0.2642 -0.6825 -0.3162
 8379TIP3    H246629   1.779   0.087  12.166 -0.4543 -0.6514  0.2324
 8380TIP3   OH246630   4.498   2.525  12.126  0.4054  0.4640  0.1936
 8380TIP3    H146631   4.472   2.607  12.168  0.7347  0.2312  0.8524
 8380TIP3    H246632   4.585   2.506  12.161  0.9167  0.5300 -0.9694
 8381TIP3   OH246633   0.569   5.645   3.700 -0.3145  0.2518  0.1817
 8381TIP3    H146634   0.643   5.643   3.761 -1.1141 -1.8800  1.2055
 8381TIP3    H246635   0.506   5.584   3.738 -1.0423 -0.8452 -2.5590
 8382TIP3   OH246636   5.900   5.471   6.011  0.6773  0.1893 -0.4414
 8382TIP3    H146637   5.820   5.514   6.040  0.9491  0.8938 -0.7179
 8382TIP3    H246638   5.924   5.413   6.084  0.8932  1.3172  0.4099
 8383TIP3   OH246639   1.700   2.576   2.694 -0.4236  0.8805  0.2584
 8383TIP3    H146640   1.737   2.512   2.755  0.6146  1.6067  0.4094
 8383TIP3    H246641   1.605   2.563   2.701 -0.3019 -2.7907 -2.0455
 8384TIP3   OH246642   3.098   0.552   5.991  0.3076  0.4329 -0.1109
 8384TIP3    H146643   3.027   0.512   5.940 -0.3019  2.8191 -1.2755
 8384TIP3    H246644   3.168   0.567   5.927  2.0286 -2.0256  1.0510
 8385TIP3   OH246645   6.386   4.324  14.500  0.0456  0.4345 -0.1844
 8385TIP3    H146646   6.444   4.327  14.423  1.1459  2.2217  0.6489
 8385TIP3    H246647   6.435   4.274  14.565 -0.6521 -0.6108 -0.4476
 8386TIP3   OH246648   4.456   2.861   0.991 -0.2098  0.1887 -0.3757
 8386TIP3    H146649   4.368   2.843   1.026  0.8563 -1.5749  1.6327
 8386TIP3    H246650   4.441   2.878   0.898 -2.7543  0.8273  0.0574
 8387TIP3   OH246651   6.085   4.705   4.381 -0.0871 -0.2735  0.0884
 8387TIP3    H146652   6.065   4.779   4.323  0.3694 -0.5071 -0.3692
 8387TIP3    H246653   6.135   4.744   4.452  0.6333 -0.2238 -0.4365
 8388TIP3   OH246654   4.025   0.718   4.223  0.9387  0.1851  0.3716
 8388TIP3    H146655   3.939   0.723   4.264  1.1877 -1.3528  1.1465
 8388TIP3    H246656   4.006   0.695   4.132  0.4998  0.7786  0.3068
 8389TIP3   OH246657   5.214   1.489  17.055 -0.0069  0.8858 -0.0451
 8389TIP3    H146658   5.149   1.548  17.017 -0.9926  0.1292  0.4162
 8389TIP3    H246659   5.236   1.428  16.985  1.7817  2.3537 -0.8500
 8390TIP3   OH246660   3.858   1.589  12.987  0.0521 -0.5325 -0.6214
 8390TIP3    H146661   3.834   1.641  13.063  2.4128 -2.3573  1.5377
 8390TIP3    H246662   3.935   1.540  13.014  1.0955 -1.2310 -4.2632
 8391TIP3   OH246663   1.669   1.732  13.023  0.4083  0.5076  0.8809
 8391TIP3    H146664   1.580   1.747  12.994 -0.1642 -0.9319  1.7528
 8391TIP3    H246665   1.708   1.819  13.031 -1.2089  1.2085  1.3840
 8392TIP3   OH246666   6.186   6.476  13.262 -0.1050 -0.6104  0.0583
 8392TIP3    H146667   6.255   6.410  13.258  0.4005 -0.0330 -1.7031
 8392TIP3    H246668   6.180   6.510  13.173 -0.1712  1.9178  0.9352
 8393TIP3   OH246669   4.631   1.177   2.093  0.2657  0.2355  0.1695
 8393TIP3    H146670   4.595   1.090   2.111  1.6654 -0.6560 -1.1139
 8393TIP3    H246671   4.671   1.205   2.175  2.4076 -1.6601 -0.1386
 8394TIP3   OH246672   3.934   1.770  15.260 -0.2755  0.1372 -0.0788
 8394TIP3    H146673   4.020   1.732  15.275 -0.1240  0.3199 -0.4593
 8394TIP3    H246674   3.886   1.701  15.213 -0.6709 -0.3427  1.0052
 8395TIP3   OH246675   2.848   3.590   6.808  0.3544  0.0430  0.5612
 8395TIP3    H146676   2.809   3.535   6.877  0.9516 -0.1527  0.7492
 8395TIP3    H246677   2.858   3.676   6.849 -0.1428  0.1771  0.4166
 8396TIP3   OH246678   5.781   2.301  13.800 -0.0759 -0.0518 -0.5281
 8396TIP3    H146679   5.762   2.395  13.806 -1.1895 -0.1805 -1.6433
 8396TIP3    H246680   5.714   2.267  13.740 -0.5919 -1.8132  0.9451
 8397TIP3   OH246681   6.550   0.802   3.162  0.0812  0.3125 -0.0552
 8397TIP3    H146682   6.577   0.710   3.162 -1.4308 -0.2024  1.5247
 8397TIP3    H246683   6.583   0.836   3.245  0.7369  1.2586 -0.6842
 8398TIP3   OH246684   5.817   0.339   2.871 -0.0163 -0.2099 -0.5965
 8398TIP3    H146685   5.789   0.408   2.811  2.5618  1.6700  0.1683
 8398TIP3    H246686   5.835   0.264   2.814 -0.4761  0.5446 -1.7752
 8399TIP3   OH246687   3.242   1.050  15.313 -0.2299  0.7335  0.2926
 8399TIP3    H146688   3.173   1.114  15.296 -1.4496 -0.3897  0.8926
 8399TIP3    H246689   3.278   1.030  15.226 -1.3753  0.5506 -0.1483
 8400TIP3   OH246690   3.112   1.079  14.278  0.3154 -0.3185  0.1685
 8400TIP3    H146691   3.059   1.010  14.238 -0.2564  0.4713 -0.4545
 8400TIP3    H246692   3.076   1.160  14.244  2.4803  0.2291 -0.9711
 8401TIP3   OH246693   4.887   5.676  13.312  0.0909 -0.2014  0.1142
 8401TIP3    H146694   4.850   5.620  13.244  1.3430 -0.4261 -0.4047
 8401TIP3    H246695   4.847   5.644  13.393 -1.4436  0.0947 -0.4875
 8402TIP3   OH246696   2.670   1.884   3.303 -0.1477 -0.4486  0.0131
 8402TIP3    H146697   2.737   1.816   3.298 -0.2092 -0.5189  0.1421
 8402TIP3    H246698   2.719   1.964   3.320 -0.1816 -0.6767  1.2869
 8403TIP3   OH246699   5.956   2.378   2.434  0.7060  0.1500  0.0609
 8403TIP3    H146700   6.007   2.400   2.357  0.8299  2.2221  0.6825
 8403TIP3    H246701   6.018   2.384   2.507  0.3380 -0.6751  0.4564
 8404TIP3   OH246702   0.998   1.358   0.927  0.1366 -0.0010 -0.0657
 8404TIP3    H146703   0.907   1.335   0.909  0.1943 -0.2601 -0.0336
 8404TIP3    H246704   1.025   1.298   0.996  0.7491 -0.8668 -1.0301
 8405TIP3   OH246705   1.798   4.633   2.551 -0.3944  0.5919  0.2248
 8405TIP3    H146706   1.703   4.627   2.545 -0.3444 -0.6676  0.4671
 8405TIP3    H246707   1.830   4.563   2.495  0.3633  0.0610  1.3044
 8406TIP3   OH246708   2.399   6.291   6.005 -0.4622 -0.4075 -0.2778
 8406TIP3    H146709   2.334   6.362   6.005  1.1840  1.3453 -3.5038
 8406TIP3    H246710   2.370   6.232   5.935 -0.7760 -1.9852  1.1188
 8407TIP3   OH246711   3.709   1.160  12.412 -0.4979  0.2686 -0.4034
 8407TIP3    H146712   3.712   1.073  12.451  1.4756  0.0733 -0.8930
 8407TIP3    H246713   3.615   1.182  12.409 -0.8894 -0.8505  1.8103
 8408TIP3   OH246714   5.488   6.556  14.727 -0.0615 -0.1265 -0.2542
 8408TIP3    H146715   5.458   6.479  14.775 -1.2298 -0.7010 -1.8038
 8408TIP3    H246716   5.421   6.623  14.744 -0.9472 -0.5969 -1.6578
 8409TIP3   OH246717   5.928   5.490   2.160  0.1524  0.0495  0.0130
 8409TIP3    H146718   5.932   5.549   2.084  0.2180 -0.1799 -0.1610
 8409TIP3    H246719   5.943   5.547   2.235  1.1137  0.1157 -0.2183
 8410TIP3   OH246720   4.294   3.075  16.682 -0.4861  0.8171 -0.1405
 8410TIP3    H146721   4.297   2.981  16.669  0.8136  0.4253  2.4005
 8410TIP3    H246722   4.216   3.104  16.635 -1.6169 -1.6939  0.0945
 8411TIP3   OH246723   1.399   2.706   0.276  0.1929  0.4288 -0.3205
 8411TIP3    H146724   1.438   2.768   0.338 -1.6891  0.6405  0.7099
 8411TIP3    H246725   1.305   2.716   0.287 -0.1902 -0.4665 -2.3319
 8412TIP3   OH246726   0.089   6.327   2.809 -0.3024  0.0073 -0.8628
 8412TIP3    H146727   0.117   6.418   2.803  1.0930 -0.3150  0.1996
 8412TIP3    H246728   0.032   6.325   2.886  1.3807 -0.3573  0.4504
 8413TIP3   OH246729   1.140   6.536  14.327  0.0383 -0.1634 -0.4292
 8413TIP3    H146730   1.067   6.524  14.267 -0.1358  0.8748 -0.4377
 8413TIP3    H246731   1.119   6.616  14.375  0.9735 -0.0705 -0.1519
 8414TIP3   OH246732   5.081   4.275   3.186  0.3020  0.0357 -0.0916
 8414TIP3    H146733   5.150   4.339   3.164 -0.0804  0.4622 -0.0726
 8414TIP3    H246734   5.063   4.291   3.279  0.8822 -0.7620  0.1642
 8415TIP3   OH246735   6.422   5.282   6.100  0.2773 -0.2082  0.1062
 8415TIP3    H146736   6.414   5.359   6.157  1.1888 -1.4377  2.0020
 8415TIP3    H246737   6.498   5.235   6.135 -0.4545 -2.1411 -0.7886
 8416TIP3   OH246738   6.095   0.992   1.120  0.4720  0.1333 -0.4598
 8416TIP3    H146739   6.052   1.064   1.166 -0.1602  0.3694 -1.3808
 8416TIP3    H246740   6.092   0.919   1.181 -0.8322  0.2885 -0.3046
 8417TIP3   OH246741   5.623   2.837   4.175 -0.2553  0.3298 -0.1862
 8417TIP3    H146742   5.626   2.913   4.232 -0.1974 -0.7502  1.3221
 8417TIP3    H246743   5.648   2.764   4.232 -1.0367 -0.9171 -1.3845
 8418TIP3   OH246744   1.707   1.923   0.514 -0.5390  0.3845  0.4075
 8418TIP3    H146745   1.754   2.004   0.496  0.0558 -0.0461 -0.0378
 8418TIP3    H246746   1.627   1.929   0.463  0.2909 -0.0295 -0.9950
 8419TIP3   OH246747   4.753   4.259  11.809 -0.5134  0.0417  0.6012
 8419TIP3    H146748   4.660   4.246  11.792 -0.4531  1.2402 -0.8524
 8419TIP3    H246749   4.756   4.323  11.880 -0.8192  0.6968  0.0354
 8420TIP3   OH246750   1.069   2.814  13.838 -0.4650 -0.2732  0.1171
 8420TIP3    H146751   1.141   2.834  13.779 -0.7552  0.1720 -0.0940
 8420TIP3    H246752   1.045   2.899  13.877  1.7596 -0.9215  3.2771
 8421TIP3   OH246753   4.322   5.572   2.995 -0.2819  0.6765 -0.4658
 8421TIP3    H146754   4.301   5.611   3.079  0.4956 -0.7246  0.4278
 8421TIP3    H246755   4.238   5.561   2.951 -0.8168  0.4072  0.6084
 8422TIP3   OH246756   2.003   0.490  16.432  0.2563 -0.0478  0.2143
 8422TIP3    H146757   1.913   0.477  16.402  0.3788 -0.2667 -0.0670
 8422TIP3    H246758   2.025   0.579  16.407  0.6782 -0.5305 -1.2107
 8423TIP3   OH246759   2.680   4.662   1.358  0.3601 -0.0004  0.0644
 8423TIP3    H146760   2.666   4.698   1.270 -0.7758 -1.6771 -0.4800
 8423TIP3    H246761   2.592   4.650   1.393  0.8027  0.9496  1.6079
 8424TIP3   OH246762   6.719   4.316  16.068 -0.2246 -0.0790  0.0842
 8424TIP3    H146763   6.633   4.282  16.046  0.1532 -1.0466  0.0549
 8424TIP3    H246764   6.719   4.406  16.035 -1.5928  0.3000  1.0399
 8425TIP3   OH246765   6.518   4.133  12.617  0.2591  0.1523  0.3612
 8425TIP3    H146766   6.459   4.127  12.693  1.4904 -2.7012  1.2488
 8425TIP3    H246767   6.596   4.176  12.651  0.2183  0.2827  0.2890
 8426TIP3   OH246768   6.724   3.316  16.532 -0.0353  0.5418  0.7392
 8426TIP3    H146769   6.757   3.401  16.504  1.6275 -0.0098  0.9088
 8426TIP3    H246770   6.656   3.294  16.469  0.8235  1.1611 -0.4307
 8427TIP3   OH246771   5.243   1.383  12.901  0.4769 -0.2341 -0.5844
 8427TIP3    H146772   5.276   1.460  12.855  2.0553 -0.0686  0.7400
 8427TIP3    H246773   5.240   1.410  12.993  1.9073 -1.9907  0.0240
 8428TIP3   OH246774   1.990   6.162  16.863  0.4886 -0.3423  0.1970
 8428TIP3    H146775   1.949   6.240  16.826 -0.2090 -0.6147  0.3685
 8428TIP3    H246776   2.083   6.174  16.847  0.2774 -0.0806 -0.9584
 8429TIP3   OH246777   3.959   2.188   1.985  0.4209  0.0021 -0.2873
 8429TIP3    H146778   3.980   2.253   1.918  0.5707 -0.8569 -1.0897
 8429TIP3    H246779   3.876   2.150   1.957 -0.3293  0.7050  0.8541
 8430TIP3   OH246780   1.136   1.252   5.613  0.1802 -0.2800 -0.0063
 8430TIP3    H146781   1.061   1.217   5.660  1.8263 -2.4179  1.2454
 8430TIP3    H246782   1.206   1.254   5.679  1.3146  1.4017 -1.1775
 8431TIP3   OH246783   1.992   2.793   2.093  0.3546 -0.0076  0.3806
 8431TIP3    H146784   2.007   2.823   2.183  1.1580  1.1635 -0.1260
 8431TIP3    H246785   2.059   2.837   2.042  0.0611 -0.8636 -0.7677
 8432TIP3   OH246786   5.327   4.568  12.376 -0.7247 -0.1647  0.1777
 8432TIP3    H146787   5.370   4.557  12.291 -1.0602  2.9792 -0.5429
 8432TIP3    H246788   5.399   4.569  12.439 -0.3679 -1.3535 -0.1851
 8433TIP3   OH246789   1.776   6.223  11.299 -0.2117 -0.0169  0.3296
 8433TIP3    H146790   1.705   6.172  11.260 -1.6906  1.2963  1.2121
 8433TIP3    H246791   1.851   6.207  11.241 -1.1396 -1.6157 -0.5050
 8434TIP3   OH246792   1.896   5.803   6.276 -0.2704 -0.6381  0.1332
 8434TIP3    H146793   1.952   5.817   6.352  0.1686  0.7040 -0.4025
 8434TIP3    H246794   1.809   5.788   6.313 -0.0299 -0.1811  0.9046
 8435TIP3   OH246795   2.107   5.733   6.484 -0.1058  0.4640 -0.0213
 8435TIP3    H146796   2.143   5.692   6.563  0.8278 -1.4082 -1.3485
 8435TIP3    H246797   2.176   5.792   6.454  0.9652 -1.2844 -1.1924
 8436TIP3   OH246798   4.199   0.175  11.273 -0.2191 -0.1497 -0.2363
 8436TIP3    H146799   4.154   0.092  11.260  0.6282 -0.5328 -0.8724
 8436TIP3    H246800   4.275   0.170  11.215 -0.4408  1.2909 -0.7040
 8437TIP3   OH246801   6.524   3.025  15.702 -0.1634  0.0070 -0.0651
 8437TIP3    H146802   6.497   3.083  15.631 -1.0550  0.9892  1.0384
 8437TIP3    H246803   6.456   2.958  15.705  0.1488 -0.3345 -0.4562
 8438TIP3   OH246804   2.418   1.687   2.470 -0.1859  0.2393  0.0273
 8438TIP3    H146805   2.506   1.686   2.434 -0.7363 -1.4375 -1.4372
 8438TIP3    H246806   2.361   1.697   2.394 -1.2876  0.7596  0.8915
 8439TIP3   OH246807   1.531   3.439  15.304 -0.3120  0.4650  0.0245
 8439TIP3    H146808   1.503   3.525  15.335  1.2516  0.1122  2.7955
 8439TIP3    H246809   1.478   3.377  15.354 -1.5315 -0.2467 -2.0471
 8440TIP3   OH246810   6.478   6.320  14.920 -0.4484  0.6219  0.0594
 8440TIP3    H146811   6.497   6.315  14.826 -2.4299 -0.4570 -0.3383
 8440TIP3    H246812   6.561   6.344  14.960  0.3440  1.6085 -2.0106
 8441TIP3   OH246813   0.811   3.795  13.173  0.2148 -0.1617 -0.5916
 8441TIP3    H146814   0.746   3.823  13.237  1.4782  0.3990  0.4988
 8441TIP3    H246815   0.841   3.710  13.205 -1.7810 -1.7103 -2.5096
 8442TIP3   OH246816   2.903   1.312  11.935 -0.2655  0.2396 -0.1042
 8442TIP3    H146817   2.906   1.222  11.901  2.6023  0.9887 -2.2188
 8442TIP3    H246818   2.948   1.307  12.019  0.6436 -0.1881 -0.6002
 8443TIP3   OH246819   6.487   0.422  16.191 -0.2465 -0.8281  0.1931
 8443TIP3    H146820   6.564   0.385  16.234 -0.4050  0.0897  1.3153
 8443TIP3    H246821   6.515   0.508  16.160 -0.3027 -1.2435 -1.0623
 8444TIP3   OH246822   6.198   4.888   5.245 -0.5419 -0.4859  0.2049
 8444TIP3    H146823   6.287   4.885   5.280  0.3164  1.6242 -1.5585
 8444TIP3    H246824   6.173   4.981   5.252 -2.1785 -0.8500 -0.3517
 8445TIP3   OH246825   0.638   5.267   2.281 -0.1577 -0.1867  0.2866
 8445TIP3    H146826   0.686   5.258   2.199 -0.7298 -1.3196  0.0500
 8445TIP3    H246827   0.621   5.361   2.289 -1.8519 -0.2201 -1.9411
 8446TIP3   OH246828   5.665   2.047   2.171  0.5046 -0.6190  0.1411
 8446TIP3    H146829   5.704   2.058   2.258  3.4308 -0.2414 -1.0964
 8446TIP3    H246830   5.606   1.973   2.181  1.5010 -1.2200  2.2255
 8447TIP3   OH246831   0.857   4.430  16.418  0.8596 -0.1846  0.1393
 8447TIP3    H146832   0.893   4.383  16.344 -2.3855 -1.4770 -0.8091
 8447TIP3    H246833   0.783   4.479  16.382 -1.0340 -1.0892  2.4644
 8448TIP3   OH246834   5.462   2.551   1.303  0.7029  0.3512 -0.5162
 8448TIP3    H146835   5.483   2.533   1.211 -2.1290  0.2529 -1.2137
 8448TIP3    H246836   5.421   2.637   1.302 -1.5751 -0.6474  0.2308
 8449TIP3   OH246837   2.381   5.714  14.014 -0.2943 -0.4847  0.1673
 8449TIP3    H146838   2.298   5.730  13.970 -0.2502  0.1356  0.3034
 8449TIP3    H246839   2.409   5.628  13.983 -1.5248 -1.2008  0.9541
 8450TIP3   OH246840   5.675   3.437  17.088  0.4098 -0.3135  0.0971
 8450TIP3    H146841   5.624   3.392  17.155 -0.0612  2.3500  1.6799
 8450TIP3    H246842   5.699   3.520  17.128  1.8915  0.5612 -2.3597
 8451TIP3   OH246843   1.660   5.793  16.598 -0.0299 -0.0587 -0.1201
 8451TIP3    H146844   1.615   5.860  16.547 -0.2087  0.3641  0.5704
 8451TIP3    H246845   1.732   5.840  16.640  0.5629 -0.5609 -0.5703
 8452TIP3   OH246846   2.662   1.019  11.986  0.4165 -0.5255 -0.0598
 8452TIP3    H146847   2.612   0.951  11.941  1.5053 -1.2455 -0.2167
 8452TIP3    H246848   2.737   1.037  11.929  0.4766  0.3682  0.2767
 8453TIP3   OH246849   3.573   1.272   5.301  0.4773  0.3985  0.2502
 8453TIP3    H146850   3.560   1.325   5.380  2.0305  2.0317 -0.5425
 8453TIP3    H246851   3.649   1.218   5.321  0.6105  0.5001  0.0129
 8454TIP3   OH246852   0.936   5.736  12.382  0.1612  0.2509 -0.2087
 8454TIP3    H146853   0.843   5.746  12.403 -0.1056 -1.1276 -0.6125
 8454TIP3    H246854   0.961   5.819  12.343 -0.6061  1.0578  0.9506
 8455TIP3   OH246855   2.529   4.226  13.457  0.5519  0.1721  0.1684
 8455TIP3    H146856   2.583   4.155  13.424  1.3174  0.5141  0.6443
 8455TIP3    H246857   2.561   4.241  13.546  0.8651  1.5392 -0.1422
 8456TIP3   OH246858   2.250   2.862  14.190 -0.3573  0.2035  0.5844
 8456TIP3    H146859   2.158   2.877  14.211 -0.4040  1.1463 -0.2118
 8456TIP3    H246860   2.250   2.775  14.150 -0.6270 -0.5273  2.1077
 8457TIP3   OH246861   2.888   5.032   2.029  0.5169  0.2347 -0.2760
 8457TIP3    H146862   2.884   5.128   2.024  0.4452  0.2682  0.4036
 8457TIP3    H246863   2.853   5.011   2.115 -0.7368 -0.4853 -0.9289
 8458TIP3   OH246864   4.002   6.230  16.827 -0.2570 -0.5093 -0.3185
 8458TIP3    H146865   3.908   6.216  16.833 -0.2707  0.2302  2.5365
 8458TIP3    H246866   4.016   6.261  16.738 -3.1046  1.9290 -0.0570
 8459TIP3   OH246867   6.734   2.686   4.847  0.0588  0.3802 -0.6881
 8459TIP3    H146868   6.690   2.771   4.842  0.9185  0.7614 -2.3781
 8459TIP3    H246869   6.801   2.689   4.779  0.0598 -1.6824 -0.8528
 8460TIP3   OH246870   4.599   5.139   0.718  0.2350  0.2230 -0.5461
 8460TIP3    H146871   4.609   5.116   0.810  0.9473  0.2927 -0.5952
 8460TIP3    H246872   4.599   5.055   0.672  3.1466  0.2202 -0.7550
 8461TIP3   OH246873   3.557   6.079  16.971 -0.5686 -0.1209 -0.5343
 8461TIP3    H146874   3.495   6.077  17.045 -0.1531 -0.2501 -0.1847
 8461TIP3    H246875   3.575   5.987  16.954 -0.2215 -0.0743 -0.4206
 8462TIP3   OH246876   4.719   3.508  12.173  0.5786  0.2722  0.6260
 8462TIP3    H146877   4.726   3.422  12.132 -0.9385  0.9206 -1.1514
 8462TIP3    H246878   4.783   3.562  12.127  2.2879 -0.0895  2.4525
 8463TIP3   OH246879   0.810   3.371  12.558 -0.3694 -0.0793 -0.1800
 8463TIP3    H146880   0.831   3.297  12.501 -1.5916 -0.6803  0.1104
 8463TIP3    H246881   0.746   3.422  12.507  0.1588  0.5684 -0.2092
 8464TIP3   OH246882   4.200   1.431  13.953  0.2760 -0.3017 -0.2356
 8464TIP3    H146883   4.118   1.440  14.002  0.6817 -0.6241  0.5127
 8464TIP3    H246884   4.186   1.355  13.897  0.5347 -1.1875  0.8654
 8465TIP3   OH246885   1.370   0.346   6.417  0.1687 -0.6066 -0.3168
 8465TIP3    H146886   1.299   0.408   6.405  0.7395  0.0573 -0.3440
 8465TIP3    H246887   1.386   0.345   6.511  0.0319 -0.8547 -0.2970
 8466TIP3   OH246888   3.868   4.293  11.743 -0.3705  0.3838  0.0379
 8466TIP3    H146889   3.860   4.383  11.774  0.7107  0.6430 -0.3845
 8466TIP3    H246890   3.814   4.289  11.665 -2.1013  0.0714  1.1841
 8467TIP3   OH246891   0.424   3.207   1.678  0.3943 -0.5249  0.3831
 8467TIP3    H146892   0.493   3.273   1.689 -1.4854  1.5595  0.3768
 8467TIP3    H246893   0.405   3.178   1.767 -0.0201  0.3180  0.5759
 8468TIP3   OH246894   5.617   0.171   2.308  0.7594 -0.0356  0.3782
 8468TIP3    H146895   5.560   0.181   2.384  0.7012  0.5459  0.2649
 8468TIP3    H246896   5.645   0.260   2.287  0.3419 -0.1255 -0.6145
 8469TIP3   OH246897   6.014   0.699  13.593 -0.0910  0.3551 -0.0174
 8469TIP3    H146898   6.011   0.626  13.656  0.2103  0.5587  0.2351
 8469TIP3    H246899   6.064   0.665  13.519 -0.0037  0.2840  0.0735
 8470TIP3   OH246900   5.987   2.688   6.316  0.1801  0.0422 -0.3262
 8470TIP3    H146901   5.979   2.633   6.238  0.0405  1.5671 -1.4449
 8470TIP3    H246902   5.970   2.629   6.389 -3.2068 -0.7991 -1.5716
 8471TIP3   OH246903   1.808   4.296  16.605 -0.4288  0.1408  0.2778
 8471TIP3    H146904   1.745   4.326  16.539 -0.3240  1.0864  0.5786
 8471TIP3    H246905   1.790   4.352  16.681 -1.3381 -1.7041  1.4853
 8472TIP3   OH246906   5.703   0.555  15.055  0.1043  0.3077  0.9555
 8472TIP3    H146907   5.700   0.540  15.150  1.1149  1.0201  1.1132
 8472TIP3    H246908   5.741   0.474  15.019  0.1041  0.1988  1.1995
 8473TIP3   OH246909   6.507   6.503  13.753 -0.2365 -0.3217 -0.4414
 8473TIP3    H146910   6.602   6.514  13.744 -0.4438  1.1331 -1.1834
 8473TIP3    H246911   6.496   6.466  13.840  1.1110 -2.3168 -1.0567
 8474TIP3   OH246912   5.470   2.221  15.603  0.3305 -0.1626 -0.4472
 8474TIP3    H146913   5.522   2.149  15.638  0.9550 -0.7043 -2.3362
 8474TIP3    H246914   5.526   2.260  15.535 -0.7375  0.8803 -0.7591
 8475TIP3   OH246915   4.583   0.161   2.351 -0.3806 -0.2772  0.5330
 8475TIP3    H146916   4.559   0.199   2.435  0.8347 -0.6813  1.0852
 8475TIP3    H246917   4.588   0.237   2.292  4.1010  0.9627  2.0830
 8476TIP3   OH246918   4.181   5.921  13.300 -0.3939  0.0714 -0.4978
 8476TIP3    H146919   4.234   5.899  13.223  0.3358  0.6029 -0.1582
 8476TIP3    H246920   4.160   5.837  13.340  0.7084 -0.1170 -0.3017
 8477TIP3   OH246921   2.558   0.842  12.761  0.3162  0.5290 -0.3528
 8477TIP3    H146922   2.584   0.838  12.669 -0.6856 -0.7842 -0.6008
 8477TIP3    H246923   2.469   0.807  12.762  0.7486 -0.6278  1.2707
 8478TIP3   OH246924   5.251   0.943  11.198 -0.7641  0.4296 -0.2407
 8478TIP3    H146925   5.307   1.017  11.221 -0.9851  1.2336 -2.1301
 8478TIP3    H246926   5.162   0.978  11.202 -0.9610 -0.0838  0.0399
 8479TIP3   OH246927   5.607   1.627   4.739 -0.2053  0.0235  0.4261
 8479TIP3    H146928   5.548   1.595   4.807  0.0832 -0.4849  0.4400
 8479TIP3    H246929   5.632   1.715   4.768 -1.5694  0.5771  0.0261
 8480TIP3   OH246930   1.627   5.909  17.486 -0.0039 -0.0591 -0.1936
 8480TIP3    H146931   1.665   5.859  17.559  2.5128 -0.0100 -1.3684
 8480TIP3    H246932   1.641   6.000  17.510 -0.2733 -0.0145 -0.2056
 8481TIP3   OH246933   0.428   2.642  16.298  0.2647 -0.3544 -0.2057
 8481TIP3    H146934   0.412   2.706  16.229 -2.0127  0.0487  0.6319
 8481TIP3    H246935   0.476   2.571  16.254  0.9823  0.9531 -1.6167
 8482TIP3   OH246936   1.353   1.098   2.035 -0.3986  0.4676 -0.3947
 8482TIP3    H146937   1.286   1.120   1.970 -0.3324 -0.8267 -0.9468
 8482TIP3    H246938   1.420   1.052   1.984 -0.3289 -0.5408  0.5685
 8483TIP3   OH246939   6.084   3.461  14.401 -0.1045 -0.1260 -0.0677
 8483TIP3    H146940   6.101   3.555  14.409  0.2220 -0.1649 -0.2842
 8483TIP3    H246941   6.164   3.425  14.361 -0.7418 -0.2906 -1.2521
 8484TIP3   OH246942   0.940   4.769   1.438 -0.2091  0.2954 -0.4274
 8484TIP3    H146943   1.011   4.723   1.483 -0.9520 -1.9382 -1.3974
 8484TIP3    H246944   0.881   4.796   1.508  0.5863  0.4093  0.2215
 8485TIP3   OH246945   3.145   2.593   3.413 -0.2555  0.0977  0.6876
 8485TIP3    H146946   3.208   2.523   3.398 -0.2152  0.2351  0.1989
 8485TIP3    H246947   3.064   2.547   3.436 -0.2687 -0.1211  0.2227
 8486TIP3   OH246948   0.616   6.262  15.477  0.4545 -0.0999  0.3385
 8486TIP3    H146949   0.697   6.313  15.483 -0.3093  1.0133  2.1112
 8486TIP3    H246950   0.635   6.194  15.412  2.1567  1.2788 -0.7046
 8487TIP3   OH246951   1.368   4.353   0.351  0.2912 -0.4255  0.5913
 8487TIP3    H146952   1.407   4.396   0.275  1.3369 -3.6329 -0.8465
 8487TIP3    H246953   1.442   4.335   0.410 -0.0073 -0.7995  0.8596
 8488TIP3   OH246954   4.131   3.040  12.315 -0.5576  1.0213 -0.1089
 8488TIP3    H146955   4.110   2.946  12.317  1.6749  0.4186 -2.0885
 8488TIP3    H246956   4.226   3.044  12.321 -0.6436  3.2542  0.8009
 8489TIP3   OH246957   1.298   2.427   2.044 -0.1382  0.0067 -0.1999
 8489TIP3    H146958   1.361   2.359   2.020 -0.9746 -0.2405 -1.8089
 8489TIP3    H246959   1.327   2.457   2.130  2.4621  0.2264 -1.0568
 8490TIP3   OH246960   4.987   6.200   1.967 -0.5716  0.1001 -0.7073
 8490TIP3    H146961   4.964   6.222   1.877  1.2862  1.4760 -0.9004
 8490TIP3    H246962   5.008   6.284   2.008 -1.0785 -0.5227  0.9386
 8491TIP3   OH246963   4.878   6.256   0.382  0.2369 -0.3797  0.4158
 8491TIP3    H146964   4.860   6.350   0.393 -0.2190 -0.2514 -1.1640
 8491TIP3    H246965   4.972   6.252   0.364  0.5355 -0.3862  1.8359
 8492TIP3   OH246966   1.043   2.734  17.054  0.0393 -0.0288  0.6055
 8492TIP3    H146967   1.048   2.816  17.104 -0.8537 -0.8853  2.1521
 8492TIP3    H246968   1.120   2.684  17.081  1.1425  0.6670 -1.1001
 8493TIP3   OH246969   4.206   4.690   1.947  0.1569  0.6142 -1.0560
 8493TIP3    H146970   4.286   4.679   1.999 -0.2885 -2.1257 -0.7944
 8493TIP3    H246971   4.136   4.690   2.012 -0.1843  1.3230 -1.4114
 8494TIP3   OH246972   6.626   2.603  13.175 -0.9020 -0.1616 -1.0547
 8494TIP3    H146973   6.675   2.634  13.099  0.2347  0.4646 -0.1121
 8494TIP3    H246974   6.558   2.547  13.139 -0.6727  0.4822 -2.5565
 8495TIP3   OH246975   3.696   2.522  12.552  0.3702  0.0838  0.0647
 8495TIP3    H146976   3.778   2.510  12.600  0.5283  2.4706  0.5063
 8495TIP3    H246977   3.708   2.606  12.506 -1.7837  0.4379  0.0664
 8496TIP3   OH246978   0.750   4.828  15.357 -0.5569 -0.5304  0.1695
 8496TIP3    H146979   0.780   4.794  15.272 -1.7697  0.2708 -0.6015
 8496TIP3    H246980   0.831   4.846  15.405  0.1494 -1.2446 -0.6989
 8497TIP3   OH246981   0.953   2.140   5.583 -0.4817 -0.0911 -0.4650
 8497TIP3    H146982   0.919   2.172   5.667  0.0571 -0.1735 -0.2176
 8497TIP3    H246983   0.904   2.191   5.518 -0.8378  0.0380 -0.1046
 8498TIP3   OH246984   2.218   0.545   1.735  0.4904  0.3498 -0.7965
 8498TIP3    H146985   2.156   0.615   1.712 -0.3187  0.2133  0.7827
 8498TIP3    H246986   2.304   0.584   1.720  0.0759  1.9710  0.6379
 8499TIP3   OH246987   3.929   4.708  15.854 -0.4161  0.1298  0.7297
 8499TIP3    H146988   3.838   4.709  15.826 -0.2534  1.6924  0.1590
 8499TIP3    H246989   3.924   4.702  15.949 -1.2315  2.2543  0.8921
 8500TIP3   OH246990   5.938   0.399   3.226  0.3389  0.7261 -0.9812
 8500TIP3    H146991   5.893   0.315   3.219  1.4758 -0.0258  0.3588
 8500TIP3    H246992   5.977   0.398   3.313  0.2735  2.7075 -0.8975
 8501TIP3   OH246993   6.249   0.245   5.498  0.1377 -0.3562  0.0009
 8501TIP3    H146994   6.284   0.290   5.421 -0.8802  0.4493 -0.0217
 8501TIP3    H246995   6.249   0.312   5.566 -0.4171 -0.6206  0.2648
 8502TIP3   OH246996   6.631   2.724  17.095  0.2479  0.0169  0.1765
 8502TIP3    H146997   6.555   2.774  17.126 -1.4051 -1.3253 -1.4604
 8502TIP3    H246998   6.687   2.788  17.054 -1.2189  0.7446 -0.7794
 8503TIP3   OH246999   2.550   6.209  15.975 -0.0792 -0.2200  0.0186
 8503TIP3    H147000   2.621   6.153  16.006 -0.1779 -0.6358 -0.4986
 8503TIP3    H247001   2.542   6.277  16.043  0.5029 -0.4284  0.3055
 8504TIP3   OH247002   4.678   5.818   5.503  0.2340 -0.1338 -0.1370
 8504TIP3    H147003   4.737   5.828   5.429  1.4561 -0.4707  0.7719
 8504TIP3    H247004   4.680   5.725   5.524  0.4392  0.0618  0.7552
 8505TIP3   OH247005   1.026   0.695   2.247 -0.0108  0.2865 -0.1535
 8505TIP3    H147006   1.068   0.697   2.333  0.6592 -1.8140 -0.3892
 8505TIP3    H247007   0.934   0.676   2.266  0.3201 -1.2066  0.0924
 8506TIP3   OH247008   5.641   6.041  14.272  0.1618  0.5045 -0.1423
 8506TIP3    H147009   5.651   5.998  14.357 -1.2683  2.4051  1.0631
 8506TIP3    H247010   5.652   6.134  14.291  0.0323  0.9641 -2.0974
 8507TIP3   OH247011   1.862   6.703  16.465  0.0427  0.4547  0.8608
 8507TIP3    H147012   1.903   6.787  16.448  0.4217  0.5270  2.0291
 8507TIP3    H247013   1.776   6.709  16.424  0.2270  1.2586  0.5896
 8508TIP3   OH247014   1.235   6.055  16.363 -0.4488 -0.5993 -0.0513
 8508TIP3    H147015   1.278   5.978  16.326 -1.4201 -1.2120  0.0923
 8508TIP3    H247016   1.177   6.021  16.431  1.2569  0.4860  2.0937
 8509TIP3   OH247017   6.451   4.733   3.439  0.4419  0.0221  0.4112
 8509TIP3    H147018   6.437   4.801   3.373  0.5285 -1.8706 -1.6802
 8509TIP3    H247019   6.545   4.713   3.433  0.1646 -1.2375 -0.0461
 8510TIP3   OH247020   0.237   2.729  17.438  0.2720 -0.0863  0.4061
 8510TIP3    H147021   0.326   2.750  17.465  0.4629  0.0771 -0.3528
 8510TIP3    H247022   0.242   2.714  17.344 -0.5205  0.0281  0.3332
 8511TIP3   OH247023   0.266   2.688   1.135 -0.2000  0.2256  0.2503
 8511TIP3    H147024   0.197   2.664   1.072  1.4493 -1.5851 -0.9813
 8511TIP3    H247025   0.219   2.724   1.210 -2.5472 -1.5993 -0.2430
 8512TIP3   OH247026   5.866   4.925   5.237  0.4182 -0.3776  0.3972
 8512TIP3    H147027   5.923   4.906   5.162  0.7140 -0.3162  0.6038
 8512TIP3    H247028   5.789   4.871   5.222 -0.2053  0.7499 -0.7376
 8513TIP3   OH247029   0.105   2.431  15.117 -0.3077  0.2729  0.0136
 8513TIP3    H147030   0.029   2.407  15.065 -0.2369  3.3877 -1.7279
 8513TIP3    H247031   0.169   2.362  15.100 -1.6184 -0.7167 -1.0344
 8514TIP3   OH247032   0.270   0.934  15.365  0.3129  0.2108 -0.1451
 8514TIP3    H147033   0.224   0.998  15.420 -2.5135 -2.2781  0.6753
 8514TIP3    H247034   0.338   0.898  15.422 -1.2555 -0.8734  1.1309
 8515TIP3   OH247035   6.416   4.602   2.038 -0.4695  0.2863  0.4276
 8515TIP3    H147036   6.479   4.668   2.009  0.4173 -0.0376  1.5890
 8515TIP3    H247037   6.336   4.652   2.055 -0.2660  0.8331 -0.1863
 8516TIP3   OH247038   6.602   1.071  12.925 -0.2703 -0.6319 -0.2175
 8516TIP3    H147039   6.612   1.033  12.838  2.0613 -0.3724 -0.1158
 8516TIP3    H247040   6.683   1.049  12.971 -0.7506  0.6313  1.3287
 8517TIP3   OH247041   4.154   5.313   0.899  0.3820 -0.0565  0.6454
 8517TIP3    H147042   4.159   5.405   0.924  0.0822  0.4467 -1.0085
 8517TIP3    H247043   4.243   5.290   0.873  0.2969  0.0052  0.2953
 8518TIP3   OH247044   6.011   3.026   2.242  0.2451 -0.3932  0.2977
 8518TIP3    H147045   5.999   3.015   2.148  2.7029 -0.9700 -0.0187
 8518TIP3    H247046   6.046   2.942   2.272 -0.0101 -0.0476  1.6442
 8519TIP3   OH247047   0.936   1.464   0.543  1.0462  0.1105  0.0190
 8519TIP3    H147048   0.992   1.388   0.557  2.7894  0.9800 -1.6634
 8519TIP3    H247049   0.852   1.440   0.581  2.3649 -1.5004  2.1224
 8520TIP3   OH247050   3.763   2.000   1.925  0.0332  0.2071 -0.4521
 8520TIP3    H147051   3.669   2.006   1.907  0.4646  2.9402 -2.4263
 8520TIP3    H247052   3.785   1.910   1.905 -1.8042  0.0758 -2.2054
 8521TIP3   OH247053   6.155   6.553   4.862  0.1549 -0.2299  0.1774
 8521TIP3    H147054   6.151   6.647   4.879  1.7958 -0.0302 -0.3235
 8521TIP3    H247055   6.075   6.534   4.813 -0.5982  0.7367  0.9845
 8522TIP3   OH247056   2.162   1.844   4.552  0.3632 -0.0730 -0.1514
 8522TIP3    H147057   2.142   1.926   4.598  1.6409  0.2902 -0.2079
 8522TIP3    H247058   2.077   1.800   4.544  0.0896 -0.2186  2.6667
 8523TIP3   OH247059   2.836   4.923   3.818  0.1102  0.6767  0.5636
 8523TIP3    H147060   2.801   5.004   3.782 -0.4398 -0.0095 -0.4925
 8523TIP3    H247061   2.765   4.888   3.872 -0.3742 -0.0383 -0.5033
 8524TIP3   OH247062   0.983   3.952   3.781  0.2082 -0.0940 -0.0452
 8524TIP3    H147063   1.077   3.970   3.771  0.4994 -1.4517  0.0898
 8524TIP3    H247064   0.954   3.926   3.694 -0.4035  1.7237 -0.4371
 8525TIP3   OH247065   1.804   6.234   4.445 -0.1314 -0.1086 -0.4686
 8525TIP3    H147066   1.859   6.162   4.475 -1.5399 -1.0948 -0.2181
 8525TIP3    H247067   1.793   6.290   4.522  1.0919  0.5123 -0.7034
 8526TIP3   OH247068   2.661   0.495  12.479  0.4724 -0.2252 -0.2632
 8526TIP3    H147069   2.633   0.587  12.483  2.8397  0.5290  1.7459
 8526TIP3    H247070   2.614   0.459  12.404 -1.1981  2.3758 -0.6218
 8527TIP3   OH247071   1.424   2.956   3.205 -0.0876 -0.2669  0.2054
 8527TIP3    H147072   1.453   2.984   3.118  0.5052 -1.0375  0.1319
 8527TIP3    H247073   1.417   2.860   3.198 -1.6614 -0.2017  0.5410
 8528TIP3   OH247074   6.458   3.654  14.450 -0.1219  0.2173 -0.3219
 8528TIP3    H147075   6.482   3.562  14.450  0.5048  0.3389  1.5952
 8528TIP3    H247076   6.520   3.695  14.511 -1.2290  1.6673 -0.1211
 8529TIP3   OH247077   5.001   5.045  17.217 -0.0637  0.2922  0.2193
 8529TIP3    H147078   4.949   4.971  17.185 -3.6012  2.0011  1.4375
 8529TIP3    H247079   5.040   5.014  17.298  0.3937 -0.8750 -0.4191
 8530TIP3   OH247080   3.682   1.987   0.740  0.9226 -0.2669  0.5298
 8530TIP3    H147081   3.775   1.982   0.722  1.2681  0.6828  1.9282
 8530TIP3    H247082   3.667   2.078   0.766 -0.1395 -0.7238  1.6174
 8531TIP3   OH247083   5.779   0.055   5.695  0.2004 -0.5072 -0.3906
 8531TIP3    H147084   5.776   0.011   5.610 -0.0967  2.9956 -2.3781
 8531TIP3    H247085   5.872   0.058   5.717  0.3711 -0.6827 -1.0623
 8532TIP3   OH247086   6.250   5.137   3.483  0.7107 -0.0663  0.2659
 8532TIP3    H147087   6.219   5.051   3.457 -0.6926  0.9031 -1.5119
 8532TIP3    H247088   6.276   5.180   3.401  2.9641  0.6719  1.2565
 8533TIP3   OH247089   5.696   2.327  15.471 -0.5124  0.1821 -1.0395
 8533TIP3    H147090   5.733   2.400  15.422  0.5616 -0.0488 -0.6067
 8533TIP3    H247091   5.772   2.278  15.502 -1.1793 -0.0238  0.3452
 8534TIP3   OH247092   0.027   2.447   5.307  0.3406  0.2626 -0.4138
 8534TIP3    H147093   0.089   2.375   5.292 -1.1125 -1.0752 -0.2951
 8534TIP3    H247094  -0.011   2.427   5.393 -1.9734 -0.3296 -1.5119
 8535TIP3   OH247095   4.596   5.503   5.081  0.8492 -0.0700  0.5483
 8535TIP3    H147096   4.553   5.519   4.997  1.7621  0.9441  0.2441
 8535TIP3    H247097   4.538   5.442   5.127 -0.3512  0.4298 -0.2594
 8536TIP3   OH247098   2.467   6.211  12.207 -0.7582  0.0885 -0.0488
 8536TIP3    H147099   2.405   6.241  12.140 -0.6003 -2.4439 -1.4890
 8536TIP3    H247100   2.552   6.241  12.176 -0.7066 -0.9288 -0.9600
 8537TIP3   OH247101   6.454   1.940  15.002 -0.0233  0.2488  0.4438
 8537TIP3    H147102   6.385   1.892  14.956  0.1979 -0.3631  0.7403
 8537TIP3    H247103   6.411   2.018  15.035 -0.7910 -0.5439  1.3642
 8538TIP3   OH247104   2.792   1.101   5.682 -0.2858  0.0505 -0.3294
 8538TIP3    H147105   2.821   1.169   5.743 -0.3321  0.4163 -0.7094
 8538TIP3    H247106   2.873   1.062   5.650 -0.2264  0.5406 -0.7932
 8539TIP3   OH247107   3.001   4.100   2.733  0.5774  0.7369 -0.0349
 8539TIP3    H147108   3.088   4.104   2.695  1.1441 -0.7929  0.9959
 8539TIP3    H247109   3.001   4.165   2.803 -0.2242  3.0224 -1.9970
 8540TIP3   OH247110   5.480   3.066  16.443 -0.0114 -0.2342  0.4222
 8540TIP3    H147111   5.551   3.041  16.384  0.9502 -0.0958  1.4981
 8540TIP3    H247112   5.469   3.160  16.428  0.2199 -0.2014  0.4564
 8541TIP3   OH247113   3.352   6.047  14.664  0.2190 -0.4342 -0.7311
 8541TIP3    H147114   3.302   6.034  14.584  0.9127 -0.3051 -1.1919
 8541TIP3    H247115   3.289   6.086  14.726 -0.8319 -2.2389 -0.5856
 8542TIP3   OH247116   5.852   1.234   2.021  0.0550 -0.1164  0.3010
 8542TIP3    H147117   5.943   1.226   2.049  1.3243  1.6113 -2.7839
 8542TIP3    H247118   5.801   1.215   2.100  3.0460 -0.8913  2.2320
 8543TIP3   OH247119   1.905   4.249  14.748  0.0261 -0.1899 -0.0717
 8543TIP3    H147120   1.809   4.245  14.742  0.1450 -1.9471 -1.7202
 8543TIP3    H247121   1.925   4.343  14.746 -1.6191  0.1871 -0.9218
 8544TIP3   OH247122   2.532   1.869  16.778 -0.3894 -0.7115 -0.3524
 8544TIP3    H147123   2.573   1.920  16.708  2.5539 -0.4328  1.4099
 8544TIP3    H247124   2.577   1.784  16.775 -1.7503 -1.4724 -0.1203
 8545TIP3   OH247125   4.156   3.671   2.052  0.5105 -0.5297 -0.0190
 8545TIP3    H147126   4.132   3.738   1.988  0.0725 -1.3067 -0.6880
 8545TIP3    H247127   4.078   3.660   2.105  0.8623  0.0878  0.6360
 8546TIP3   OH247128   0.105   0.525   1.000  0.0881 -0.6819  0.4666
 8546TIP3    H147129   0.120   0.562   0.913 -0.4969  2.7149  1.6643
 8546TIP3    H247130   0.009   0.524   1.010  0.0031 -3.3419  0.2932
 8547TIP3   OH247131   1.353   4.308  14.274  0.5926 -0.2437  0.5369
 8547TIP3    H147132   1.273   4.254  14.281 -0.3260  0.8139 -1.0712
 8547TIP3    H247133   1.329   4.392  14.313  0.1923  0.7535 -1.6892
 8548TIP3   OH247134   4.813   0.102  14.614  0.4428 -0.1229  0.7188
 8548TIP3    H147135   4.742   0.166  14.611  0.7139  0.1556  0.1534
 8548TIP3    H247136   4.769   0.017  14.617  0.0413  0.0909  3.1354
 8549TIP3   OH247137   0.782   2.755   5.926  0.2487 -0.6623 -0.6754
 8549TIP3    H147138   0.843   2.694   5.885  0.8165 -0.5330 -0.0383
 8549TIP3    H247139   0.772   2.827   5.863  1.5391 -0.1968 -0.3674
 8550TIP3   OH247140   2.138   3.121   1.464 -0.2378  0.2234 -0.4729
 8550TIP3    H147141   2.152   3.111   1.558 -0.3376  1.2586 -0.3354
 8550TIP3    H247142   2.152   3.214   1.447 -1.9033  0.3902 -1.1857
 8551TIP3   OH247143   0.536   0.453   6.902 -0.3133  0.4258  0.5332
 8551TIP3    H147144   0.595   0.522   6.871 -0.4572  0.9428  1.3710
 8551TIP3    H247145   0.594   0.390   6.946 -0.1485 -0.1481 -0.4614
 8552TIP3   OH247146   4.565   2.272  13.965  0.3453 -0.7233  0.6136
 8552TIP3    H147147   4.577   2.220  14.045 -0.1504 -0.9474  0.5452
 8552TIP3    H247148   4.653   2.285  13.931  0.3758 -2.9532 -0.2937
 8553TIP3   OH247149   1.766   0.422  16.659  0.0792  0.7379 -0.0776
 8553TIP3    H147150   1.806   0.436  16.574  0.7007  0.6820  0.1998
 8553TIP3    H247151   1.765   0.508  16.700  1.2781  0.5011  0.4947
 8554TIP3   OH247152   2.016   5.148  12.591 -0.4320  0.1034  0.1259
 8554TIP3    H147153   2.043   5.071  12.541 -0.2168  0.6830 -0.6638
 8554TIP3    H247154   2.037   5.222  12.534 -1.3202  0.7089  0.5740
 8555TIP3   OH247155   5.865   0.283  17.288 -0.4141 -0.5058 -0.0749
 8555TIP3    H147156   5.819   0.306  17.207  0.3243 -0.8337 -0.5979
 8555TIP3    H247157   5.883   0.366  17.330 -2.0292 -0.3868  0.4614
 8556TIP3   OH247158   1.953   1.875   2.918  0.0723 -0.5364  0.5870
 8556TIP3    H147159   1.912   1.807   2.973  0.6331 -0.2812  1.3294
 8556TIP3    H247160   1.888   1.892   2.849  0.0600 -2.0592  0.1916
 8557TIP3   OH247161   2.815   3.859  15.639 -0.5326  0.1374  0.7469
 8557TIP3    H147162   2.756   3.793  15.676 -1.6317  0.1378 -0.8910
 8557TIP3    H247163   2.897   3.811  15.623 -1.0052 -0.5975  0.4748
 8558TIP3   OH247164   2.392   1.549   0.176  0.5036 -0.3485  0.8039
 8558TIP3    H147165   2.442   1.508   0.247  0.4455 -3.1142 -0.6022
 8558TIP3    H247166   2.453   1.612   0.138  1.4682 -0.7226  1.6507
 8559TIP3   OH247167   2.310   4.111  15.405 -0.0447 -0.2942  0.0693
 8559TIP3    H147168   2.239   4.167  15.434  0.0648 -0.5443  0.8454
 8559TIP3    H247169   2.388   4.167  15.409 -0.2360  0.0871 -1.1298
 8560TIP3   OH247170   0.312   4.705   5.824  0.0400  0.3686  0.1545
 8560TIP3    H147171   0.276   4.776   5.772 -1.5642 -0.5522 -0.0295
 8560TIP3    H247172   0.258   4.703   5.903 -0.7394 -1.3972 -0.3840
 8561TIP3   OH247173   4.363   2.127  13.146 -0.0868  0.0325 -0.3127
 8561TIP3    H147174   4.341   2.204  13.199  0.0627 -0.3156  0.2729
 8561TIP3    H247175   4.322   2.143  13.061  0.4788  1.0404 -0.4062
 8562TIP3   OH247176   1.390   2.834   6.208 -0.6608  0.0242 -0.4600
 8562TIP3    H147177   1.410   2.740   6.211  1.8399  0.4805 -0.4864
 8562TIP3    H247178   1.410   2.866   6.296 -1.6523  0.5324 -0.4041
 8563TIP3   OH247179   4.134   1.391   6.376 -0.4841  0.3444  0.0419
 8563TIP3    H147180   4.185   1.370   6.299  0.1003 -1.4391  0.8609
 8563TIP3    H247181   4.053   1.342   6.365  0.7056 -2.2072  1.7671
 8564TIP3   OH247182   3.233   4.460  14.636  0.3081 -0.5955  0.5215
 8564TIP3    H147183   3.202   4.370  14.625 -1.0739 -0.0479 -0.3998
 8564TIP3    H247184   3.186   4.493  14.713 -2.2950  0.5112 -1.3709
 8565TIP3   OH247185   3.907   4.761  16.334 -0.1200  0.2430  0.3976
 8565TIP3    H147186   3.892   4.742  16.241 -1.1136  0.3757  0.5129
 8565TIP3    H247187   3.819   4.779  16.368  0.2642  0.3980  1.3178
 8566TIP3   OH247188   5.494   4.124   5.790 -0.6643 -0.0033  0.3640
 8566TIP3    H147189   5.559   4.176   5.837 -0.1175  0.6117 -1.0056
 8566TIP3    H247190   5.496   4.039   5.833  1.0358  0.0150  0.4016
 8567TIP3   OH247191   0.975   4.894   1.094 -0.1716 -0.4304 -0.5376
 8567TIP3    H147192   0.993   4.860   1.006 -0.2150 -0.3332 -0.5841
 8567TIP3    H247193   1.041   4.852   1.149  0.5201  0.2962 -0.7891
 8568TIP3   OH247194   3.211   4.682  14.449 -0.4506  0.1663 -0.0697
 8568TIP3    H147195   3.228   4.594  14.482 -1.2166 -0.0560 -0.2595
 8568TIP3    H247196   3.169   4.727  14.523 -0.7571  0.1374 -0.2257
 8569TIP3   OH247197   6.189   3.106   0.756  0.0593  0.1834  0.6447
 8569TIP3    H147198   6.106   3.113   0.710 -0.6240 -0.3867  1.7607
 8569TIP3    H247199   6.245   3.172   0.715 -0.2565 -0.8271 -1.5200
 8570TIP3   OH247200   2.731   3.118   2.695 -0.3366 -0.1817 -0.1615
 8570TIP3    H147201   2.637   3.114   2.676 -0.6988 -2.4224  1.7023
 8570TIP3    H247202   2.743   3.061   2.770  2.5744 -0.0551 -0.4154
 8571TIP3   OH247203   0.315   4.696  11.672  0.4263  0.1072  0.0330
 8571TIP3    H147204   0.277   4.610  11.692  0.4739  0.4054  1.4868
 8571TIP3    H247205   0.327   4.695  11.577 -1.8972 -0.5336 -0.3113
 8572TIP3   OH247206   3.361   0.944   1.770 -0.0056 -0.0973  0.3363
 8572TIP3    H147207   3.421   0.869   1.770 -0.3729 -0.4037 -0.3933
 8572TIP3    H247208   3.417   1.020   1.754  0.2732 -0.2949  0.3604
 8573TIP3   OH247209   4.886   4.595  15.746 -0.0700 -0.2274  0.3289
 8573TIP3    H147210   4.942   4.526  15.783 -0.1861 -1.9862 -2.4739
 8573TIP3    H247211   4.945   4.666  15.723  0.7022 -1.0910 -0.4241
 8574TIP3   OH247212   3.437   2.909  12.480 -0.1873 -0.0297 -0.4379
 8574TIP3    H147213   3.452   2.866  12.396 -1.0828  1.6858 -1.5194
 8574TIP3    H247214   3.369   2.856  12.522  2.0117 -2.3867  0.4093
 8575TIP3   OH247215   0.615   0.568  17.370 -0.2258 -0.1109  0.0528
 8575TIP3    H147216   0.583   0.630  17.304 -0.3411  0.0080  0.2201
 8575TIP3    H247217   0.672   0.508  17.321  1.3388  1.1905  0.1753
 8576TIP3   OH247218   1.532   5.757   5.924 -0.5019  0.2881 -0.0408
 8576TIP3    H147219   1.576   5.686   5.970  1.4423  0.1987 -1.8711
 8576TIP3    H247220   1.442   5.726   5.913 -0.1365 -1.1337  0.7130
 8577TIP3   OH247221   4.529   1.299   3.397  0.1016  0.5772 -0.4753
 8577TIP3    H147222   4.494   1.232   3.338 -1.0663  0.5667  0.2007
 8577TIP3    H247223   4.453   1.350   3.425  0.9810  2.3785 -1.1684
 8578TIP3   OH247224   5.114   4.278  16.470  0.4861 -0.6202 -0.0926
 8578TIP3    H147225   5.192   4.277  16.526  0.6488  1.1898 -0.2084
 8578TIP3    H247226   5.084   4.369  16.473 -1.0324 -1.0621 -0.8750
 8579TIP3   OH247227   4.024   0.666  14.782 -0.0519 -0.1110 -0.2857
 8579TIP3    H147228   3.976   0.683  14.701 -0.2605  0.8797  0.0271
 8579TIP3    H247229   3.961   0.686  14.852  0.3612 -0.2179  0.1201
 8580TIP3   OH247230   4.955   5.025   2.686 -0.1102 -0.0850 -0.1822
 8580TIP3    H147231   5.012   4.963   2.730  0.3170  0.4627  0.0472
 8580TIP3    H247232   4.867   4.990   2.698  0.0518 -0.2231  0.6534
 8581TIP3   OH247233   2.024   0.967   2.449 -0.0835 -0.0155 -0.4082
 8581TIP3    H147234   1.945   0.915   2.433  0.6769 -1.6685  0.9573
 8581TIP3    H247235   1.992   1.056   2.463 -1.7974 -0.7753  0.8269
 8582TIP3   OH247236   4.282   0.268   2.715 -0.2395  0.0579  0.0056
 8582TIP3    H147237   4.215   0.332   2.740 -0.6424 -0.0413 -0.7779
 8582TIP3    H247238   4.263   0.191   2.769  2.1351  1.5594  3.2916
 8583TIP3   OH247239   5.233   4.423   4.946  0.3969 -0.2929  0.0348
 8583TIP3    H147240   5.181   4.387   4.875  0.1336 -2.4660  1.2539
 8583TIP3    H247241   5.296   4.482   4.903 -2.1601  1.4326 -1.5821
 8584TIP3   OH247242   0.049   3.267   4.092 -0.4755  0.1482  0.6548
 8584TIP3    H147243  -0.044   3.265   4.069 -0.6915 -1.9322  1.5384
 8584TIP3    H247244   0.081   3.347   4.050 -2.1590 -0.2362 -1.6088
 8585TIP3   OH247245   4.319   0.283   2.062  0.8936  0.1276 -0.5454
 8585TIP3    H147246   4.266   0.207   2.037  3.3168 -1.8849 -0.0275
 8585TIP3    H247247   4.334   0.330   1.981 -3.2969  2.0839 -0.4581
 8586TIP3   OH247248   1.115   6.157  16.807  0.0468 -0.3227  0.1355
 8586TIP3    H147249   1.181   6.146  16.876 -0.0464  0.8040  0.4284
 8586TIP3    H247250   1.162   6.141  16.725  0.8110  0.9139  0.3072
 8587TIP3   OH247251   5.403   3.514  16.073  0.0773 -0.3398  0.1839
 8587TIP3    H147252   5.488   3.559  16.069  0.1940 -0.6197 -0.6233
 8587TIP3    H247253   5.346   3.577  16.116  0.7403 -0.2258  0.9192
 8588TIP3   OH247254   0.704   6.398  14.818  0.1582  0.2002  0.0507
 8588TIP3    H147255   0.688   6.335  14.749 -1.2048  0.2325  0.3164
 8588TIP3    H247256   0.761   6.464  14.778  1.2494 -0.9621 -0.3410
 8589TIP3   OH247257   1.001   2.932   2.748 -0.1171 -0.2527 -0.2767
 8589TIP3    H147258   1.095   2.948   2.746 -0.0970  0.0495  1.4043
 8589TIP3    H247259   0.963   2.999   2.692  0.5688  0.5173  0.1702
 8590TIP3   OH247260   2.366   3.768  11.607 -0.6438  0.0280 -0.2267
 8590TIP3    H147261   2.395   3.836  11.547  0.3567  0.3048  0.5401
 8590TIP3    H247262   2.288   3.731  11.566  1.1889 -1.2861 -2.7797
 8591TIP3   OH247263   0.586   3.082  11.925  0.2451 -0.2647  0.2454
 8591TIP3    H147264   0.677   3.059  11.907 -0.3968 -1.7093 -1.4261
 8591TIP3    H247265   0.554   3.012  11.982 -0.0937 -0.2927  0.0214
 8592TIP3   OH247266   0.576   4.921   1.383  0.2799 -0.1271  0.1490
 8592TIP3    H147267   0.663   4.956   1.367  0.2036 -0.9576 -2.6953
 8592TIP3    H247268   0.539   4.977   1.451  2.0716  1.8932 -0.4418
 8593TIP3   OH247269   3.890   5.770   5.851  0.1024 -0.1625 -0.1291
 8593TIP3    H147270   3.861   5.854   5.815  2.4337 -0.0924 -2.0884
 8593TIP3    H247271   3.908   5.788   5.943  0.3034  1.4167 -0.4513
 8594TIP3   OH247272   2.913   6.014   0.322  0.0452  0.6173 -0.5123
 8594TIP3    H147273   2.890   6.099   0.360 -2.3918  0.4145 -1.3629
 8594TIP3    H247274   2.829   5.971   0.307  1.2026 -1.9753 -0.1196
 8595TIP3   OH247275   6.296   3.977   6.503  0.0905 -0.3815 -0.3033
 8595TIP3    H147276   6.276   3.972   6.410  1.8668  2.6983 -0.9807
 8595TIP3    H247277   6.392   3.976   6.506  0.0615 -0.2281  1.4764
 8596TIP3   OH247278   3.929   0.569   3.084  0.2612  0.4264 -0.2481
 8596TIP3    H147279   3.835   0.555   3.081  0.0375  1.1152  1.9048
 8596TIP3    H247280   3.963   0.520   3.009 -1.6950 -0.6321 -0.5118
 8597TIP3   OH247281   3.018   4.809   6.123  0.2767  0.6164 -0.4351
 8597TIP3    H147282   3.083   4.820   6.053  0.3013 -0.0916 -0.5281
 8597TIP3    H247283   3.069   4.793   6.202  0.2233 -0.4532 -0.5986
 8598TIP3   OH247284   4.318   2.751  11.968  0.0199  0.0098 -0.0199
 8598TIP3    H147285   4.324   2.716  12.057  2.1945  0.2511 -0.0190
 8598TIP3    H247286   4.316   2.674  11.912  0.3678 -0.1503  0.1802
 8599TIP3   OH247287   5.233   6.352  11.875 -0.1004 -0.3377  0.0514
 8599TIP3    H147288   5.275   6.401  11.945  0.9232 -0.7615 -0.2454
 8599TIP3    H247289   5.240   6.261  11.902  0.4324 -0.5133 -0.6585
 8600TIP3   OH247290   1.815   0.911   5.428  0.5087  0.0284  0.3066
 8600TIP3    H147291   1.821   0.835   5.486  0.0162 -0.2365  0.0176
 8600TIP3    H247292   1.779   0.981   5.483  2.5295  0.5760  1.0478
 8601TIP3   OH247293   2.379   3.947   2.691  0.7326  0.9917 -0.3298
 8601TIP3    H147294   2.309   3.948   2.626  1.0567  1.0194 -0.6841
 8601TIP3    H247295   2.368   4.029   2.739  0.8352  1.2402 -0.7242
 8602TIP3   OH247296   3.495   0.694  14.497 -0.0066 -0.4701 -0.6279
 8602TIP3    H147297   3.429   0.764  14.500  0.6783  0.4006 -3.1939
 8602TIP3    H247298   3.451   0.622  14.451  0.3870 -0.3899 -1.1376
 8603TIP3   OH247299   1.729   5.840  17.246  1.3114  0.2552 -0.5586
 8603TIP3    H147300   1.674   5.868  17.319  0.3398 -0.7485 -0.8900
 8603TIP3    H247301   1.787   5.774  17.285  0.5131 -0.5823 -0.7771
 8604TIP3   OH247302   2.910   6.406  12.680 -0.1077  0.1647  0.3921
 8604TIP3    H147303   2.936   6.329  12.630 -2.4370  0.5392 -1.6099
 8604TIP3    H247304   2.887   6.372  12.766  0.7403 -1.0731  0.1544
 8605TIP3   OH247305   2.653   5.355  15.108 -0.2518 -0.3917 -0.7178
 8605TIP3    H147306   2.705   5.394  15.038  0.0089 -0.3889 -0.5236
 8605TIP3    H247307   2.630   5.428  15.165 -1.9054 -0.0888 -1.6827
 8606TIP3   OH247308   0.179   3.476  15.961 -0.0417  0.2873  0.3594
 8606TIP3    H147309   0.199   3.393  15.916 -0.0116  0.9266 -0.8222
 8606TIP3    H247310   0.187   3.454  16.054  0.2303 -0.9763  0.0610
 8607TIP3   OH247311   2.390   3.361   4.230  0.1990  0.2279 -0.3245
 8607TIP3    H147312   2.431   3.284   4.191  2.3590  1.4947 -0.7361
 8607TIP3    H247313   2.370   3.334   4.320  0.1234 -1.0457 -0.7007
 8608TIP3   OH247314   1.283   1.031  11.848 -0.0468 -0.6230 -0.0176
 8608TIP3    H147315   1.209   1.002  11.901 -0.3788 -0.1893 -0.2358
 8608TIP3    H247316   1.257   1.014  11.758 -0.6723  1.2187 -0.2289
 8609TIP3   OH247317   4.069   4.686   3.372 -0.1951 -0.1384  0.3603
 8609TIP3    H147318   4.000   4.736   3.414 -0.4281  0.3276 -0.5469
 8609TIP3    H247319   4.105   4.745   3.306  1.9769  0.1090  1.6682
 8610TIP3   OH247320   2.124   3.460   6.104 -0.5353 -0.5005 -0.2278
 8610TIP3    H147321   2.052   3.397   6.105 -3.0347  2.0693  1.8828
 8610TIP3    H247322   2.121   3.501   6.191  1.1605  2.2025 -1.2939
 8611TIP3   OH247323   1.730   2.267   3.503 -0.2270 -0.0495 -0.2960
 8611TIP3    H147324   1.718   2.324   3.580  0.0604 -0.2604 -0.0906
 8611TIP3    H247325   1.822   2.240   3.508 -0.0054  0.5136 -1.1189
 8612TIP3   OH247326   3.318   4.484   2.382 -0.7535  0.1853  0.0844
 8612TIP3    H147327   3.306   4.519   2.470  0.9797 -0.3290  0.5662
 8612TIP3    H247328   3.266   4.404   2.380 -2.3931  1.2062 -0.0571
 8613TIP3   OH247329   5.237   6.430  14.207  0.3872  0.2754  0.1110
 8613TIP3    H147330   5.238   6.524  14.226 -0.0517  0.1525  0.7909
 8613TIP3    H247331   5.329   6.405  14.199  0.5173  0.6875  0.3252
 8614TIP3   OH247332   5.787   0.638  17.104 -0.0047  0.0782 -0.3674
 8614TIP3    H147333   5.809   0.548  17.128 -0.7773 -0.0689 -0.1864
 8614TIP3    H247334   5.693   0.645  17.122 -0.0345  0.7900 -0.7835
 8615TIP3   OH247335   5.603   5.293  11.043 -0.0131  0.2100  0.1947
 8615TIP3    H147336   5.589   5.354  10.970 -1.8562 -0.7015 -0.2639
 8615TIP3    H247337   5.659   5.224  11.006 -1.3349 -0.5029 -0.5407
 8616TIP3   OH247338   6.688   0.796   3.405  0.3172  0.7173 -0.2764
 8616TIP3    H147339   6.603   0.821   3.443 -0.4266  0.5113 -1.7471
 8616TIP3    H247340   6.747   0.867   3.431 -0.3415  0.9525  0.6184
 8617TIP3   OH247341   6.627   5.218  11.854 -0.0692  0.4479 -0.4074
 8617TIP3    H147342   6.550   5.230  11.797 -0.1071 -0.3284 -0.5281
 8617TIP3    H247343   6.594   5.231  11.942 -0.3194  0.2148 -0.4662
 8618TIP3   OH247344   3.634   6.687  15.505 -0.2403 -0.3457 -0.0895
 8618TIP3    H147345   3.577   6.615  15.479 -1.6379  1.3464 -1.9474
 8618TIP3    H247346   3.593   6.723  15.584 -0.2402 -0.7590  0.1040
 8619TIP3   OH247347   6.686   1.950  13.699  0.3177  1.0110  0.2445
 8619TIP3    H147348   6.771   1.917  13.729 -0.7681 -0.0402  2.3757
 8619TIP3    H247349   6.637   1.872  13.675  0.3501  1.6961 -2.2592
 8620TIP3   OH247350   3.809   6.124   1.832  0.0823 -0.2392  0.4992
 8620TIP3    H147351   3.735   6.105   1.774 -0.8512  0.0744  1.5387
 8620TIP3    H247352   3.880   6.149   1.774 -0.8940  0.2980 -0.4897
 8621TIP3   OH247353   1.824   4.339   0.997 -0.6689  0.8973  0.0747
 8621TIP3    H147354   1.815   4.434   0.999 -1.4358  0.8368 -0.2830
 8621TIP3    H247355   1.835   4.317   0.905 -0.2116  0.6623  0.1830
 8622TIP3   OH247356   4.037   5.706   4.209  0.6454  0.6770 -0.1072
 8622TIP3    H147357   3.996   5.785   4.174 -0.9466 -0.2518 -0.4634
 8622TIP3    H247358   4.011   5.703   4.301  1.0086  0.7636 -0.0018
 8623TIP3   OH247359   1.978   6.213   5.041 -0.7045  0.4850 -0.1040
 8623TIP3    H147360   2.013   6.146   4.983 -1.6588 -2.6574  2.6234
 8623TIP3    H247361   1.929   6.272   4.983 -1.2719 -2.1737 -2.5451
 8624TIP3   OH247362   1.790   5.051  12.019  0.6932 -0.0230 -0.3733
 8624TIP3    H147363   1.811   5.117  11.953 -0.9646  1.0813  0.1328
 8624TIP3    H247364   1.825   5.087  12.100  1.6565 -0.8039 -0.4269
 8625TIP3   OH247365   4.805   6.211   4.593 -0.4004 -0.2616 -0.6719
 8625TIP3    H147366   4.859   6.184   4.666 -0.7161 -1.8826 -0.9997
 8625TIP3    H247367   4.859   6.196   4.515 -1.4069 -2.3230 -1.0371
 8626TIP3   OH247368   3.684   5.474  12.603  0.2148  0.4085  0.9543
 8626TIP3    H147369   3.707   5.555  12.559 -2.1006 -1.0149 -3.5089
 8626TIP3    H247370   3.763   5.421  12.601  0.9390  1.4566  1.2485
 8627TIP3   OH247371   4.196   0.645   0.182 -0.0259 -0.0187 -0.3372
 8627TIP3    H147372   4.137   0.635   0.107  0.9146 -0.5846 -1.0258
 8627TIP3    H247373   4.138   0.640   0.259 -0.9726  0.3052 -1.0046
 8628TIP3   OH247374   5.428   1.726  16.552  0.0311 -0.0290 -0.0402
 8628TIP3    H147375   5.458   1.803  16.601  1.6088 -0.5981 -0.0455
 8628TIP3    H247376   5.503   1.702  16.498  0.1146 -2.3896  0.9866
 8629TIP3   OH247377   3.192   1.330  10.706 -0.2855 -0.9989 -0.1861
 8629TIP3    H147378   3.221   1.383  10.781  2.2467 -2.7966  0.2140
 8629TIP3    H247379   3.144   1.392  10.651  0.5612  1.1518  1.3354
 8630TIP3   OH247380   4.043   2.202  10.982  0.3324  0.5821  0.3892
 8630TIP3    H147381   3.956   2.237  11.004  0.3594 -0.5774  2.5671
 8630TIP3    H247382   4.026   2.113  10.952  0.8448 -0.1295  2.1301
 8631TIP3   OH247383   1.602   0.296  14.751 -0.0851 -0.2964  0.7531
 8631TIP3    H147384   1.668   0.237  14.715  0.0056 -0.5387  1.3152
 8631TIP3    H247385   1.608   0.284  14.846  1.2584  1.9817  1.0289
 8632TIP3   OH247386   6.577   5.956   1.478  0.6071 -0.4305  0.2340
 8632TIP3    H147387   6.560   5.864   1.499 -0.4066 -0.1484  0.6818
 8632TIP3    H247388   6.603   5.955   1.386  3.0328 -1.4385  0.8253
 8633TIP3   OH247389   1.489   2.044  13.124 -0.0701 -0.6937 -0.2655
 8633TIP3    H147390   1.477   1.982  13.197 -2.0897 -0.5325 -0.3883
 8633TIP3    H247391   1.574   2.022  13.088  0.3002 -1.8275  1.1758
 8634TIP3   OH247392   2.493   5.019   0.568 -0.0360  0.0137  0.5200
 8634TIP3    H147393   2.558   4.959   0.531 -1.2606 -0.7234 -0.5310
 8634TIP3    H247394   2.515   5.104   0.530  0.7648 -0.0731  0.7705
 8635TIP3   OH247395   6.039   6.647   1.950  0.7559 -0.5478 -0.0832
 8635TIP3    H147396   5.987   6.717   1.990  0.2188  0.5034 -2.4564
 8635TIP3    H247397   6.045   6.671   1.857  0.5903 -3.6252 -1.0051
 8636TIP3   OH247398   6.522   6.139  13.710  0.2130  0.3321 -0.5353
 8636TIP3    H147399   6.593   6.075  13.699  1.0666  0.7811  1.7913
 8636TIP3    H247400   6.565   6.216  13.747 -1.4323  0.7491  0.5961
 8637TIP3   OH247401   4.244   3.400   1.584  0.5143  0.7969 -0.1460
 8637TIP3    H147402   4.201   3.440   1.509  1.9379 -0.6587 -1.8367
 8637TIP3    H247403   4.335   3.427   1.577  0.9243 -0.4054  0.2677
 8638TIP3   OH247404   3.562   6.632   5.910 -0.3289 -0.2416 -0.2635
 8638TIP3    H147405   3.564   6.591   5.996 -1.7631 -2.6973 -1.2840
 8638TIP3    H247406   3.487   6.690   5.913 -0.6322 -0.6425  0.0167
 8639TIP3   OH247407   0.115   4.597   5.448  0.7904 -0.1400 -0.1185
 8639TIP3    H147408   0.101   4.590   5.353  0.2003  0.1774 -0.0590
 8639TIP3    H247409   0.029   4.620   5.483  1.2921  1.0997  0.3591
 8640TIP3   OH247410   4.665   6.514  13.738  0.3337 -0.4336 -0.4162
 8640TIP3    H147411   4.624   6.569  13.670  2.1466 -0.1204 -1.3228
 8640TIP3    H247412   4.695   6.576  13.804 -0.7534 -0.6762  0.3280
 8641TIP3   OH247413   2.937   0.207  13.369  0.1009 -0.4712  0.1546
 8641TIP3    H147414   2.974   0.120  13.354  0.4324 -0.1310 -1.1325
 8641TIP3    H247415   3.002   0.268  13.335 -1.0103  0.1943 -0.8910
 8642TIP3   OH247416   4.334   0.108  11.041  0.3858  0.4410  0.0454
 8642TIP3    H147417   4.361   0.017  11.052  0.3538  0.5973  1.5703
 8642TIP3    H247418   4.271   0.106  10.969  0.0367 -0.8236  0.3638
 8643TIP3   OH247419   5.856   0.312   2.441  0.8144 -0.1363 -0.0868
 8643TIP3    H147420   5.874   0.400   2.406 -0.0948 -1.0131 -3.1111
 8643TIP3    H247421   5.784   0.324   2.502  0.0606  1.1180 -1.1846
 8644TIP3   OH247422   2.991   3.742  15.103  0.2909  0.0532  0.0133
 8644TIP3    H147423   2.929   3.814  15.117 -2.4059 -2.4364  1.7999
 8644TIP3    H247424   3.003   3.739  15.008 -3.0495  0.1193 -0.5023
 8645TIP3   OH247425   4.191   4.475  17.337  0.0978 -0.0326 -0.1745
 8645TIP3    H147426   4.255   4.404  17.342 -0.0581 -0.3431 -1.9231
 8645TIP3    H247427   4.205   4.514  17.250 -2.3220 -0.3936 -0.7960
 8646TIP3   OH247428   4.879   1.382  15.930 -0.2981  0.1166 -0.0861
 8646TIP3    H147429   4.952   1.444  15.933 -0.0892  0.0125 -1.9931
 8646TIP3    H247430   4.823   1.413  15.859 -0.7829 -1.2212 -0.3210
 8647TIP3   OH247431   1.013   2.196  15.098  0.2226  0.1695  0.0507
 8647TIP3    H147432   1.072   2.269  15.080 -0.6054  0.6105 -0.9177
 8647TIP3    H247433   1.027   2.135  15.026 -1.8865  1.1772 -1.3130
 8648TIP3   OH247434   0.285   3.331   2.616  0.1676 -0.1066 -0.2151
 8648TIP3    H147435   0.310   3.383   2.693 -0.9879  1.9813 -1.1438
 8648TIP3    H247436   0.207   3.376   2.582 -1.5778 -3.0949 -0.5301
 8649TIP3   OH247437   0.882   2.730  15.738 -0.0405 -0.2784  0.0100
 8649TIP3    H147438   0.915   2.813  15.772  0.3744 -0.5586  0.2963
 8649TIP3    H247439   0.881   2.671  15.813  0.1695 -0.6833 -0.2985
 8650TIP3   OH247440   0.486   3.131   4.721  0.2249  0.1164  0.0823
 8650TIP3    H147441   0.461   3.046   4.685  0.4349  0.1951 -0.2576
 8650TIP3    H247442   0.471   3.192   4.649 -1.9623  0.7184  0.9650
 8651TIP3   OH247443   3.149   6.130   2.006  0.3493 -0.1122 -0.3316
 8651TIP3    H147444   3.095   6.188   1.952 -2.0303 -2.2619 -0.4614
 8651TIP3    H247445   3.188   6.068   1.943  0.0903 -0.7156  0.0891
 8652TIP3   OH247446   5.064   5.125   2.156 -0.0062  0.6304  0.0120
 8652TIP3    H147447   5.009   5.171   2.092 -0.7293 -0.6004 -0.2860
 8652TIP3    H247448   5.006   5.111   2.231  0.4683  0.9574  0.4493
 8653TIP3   OH247449   5.903   5.961   2.852  0.3229  0.0233  0.1926
 8653TIP3    H147450   5.881   5.969   2.759  0.1718  0.3270  0.2533
 8653TIP3    H247451   5.881   6.046   2.889  0.1385 -0.1791  0.5573
 8654TIP3   OH247452   3.104   4.019  14.154 -0.0266 -0.1564 -0.2207
 8654TIP3    H147453   3.145   4.087  14.101  1.5723 -0.0830  1.0451
 8654TIP3    H247454   3.043   4.066  14.211 -2.2105 -0.2934 -2.2924
 8655TIP3   OH247455   6.562   5.023   6.770  0.2281  0.2369 -0.1597
 8655TIP3    H147456   6.626   4.978   6.826  0.6186 -1.2230 -1.6880
 8655TIP3    H247457   6.483   5.029   6.824  1.5551  1.9262  1.7052
 8656TIP3   OH247458   5.404   6.256   1.186  0.0867  0.1908 -0.1930
 8656TIP3    H147459   5.313   6.228   1.177 -0.0940  0.8242 -0.4569
 8656TIP3    H247460   5.409   6.336   1.133  0.6171  0.5449  0.3784
 8657TIP3   OH247461   5.392   1.302   5.692  0.5237 -0.0045  0.2807
 8657TIP3    H147462   5.458   1.332   5.630 -0.7199  2.7239  0.1156
 8657TIP3    H247463   5.377   1.377   5.749 -2.6092 -0.3423  0.0961
 8658TIP3   OH247464   1.543   3.195  16.294  0.6929 -0.4414 -0.0620
 8658TIP3    H147465   1.570   3.274  16.246  1.4502 -1.0965 -0.7558
 8658TIP3    H247466   1.583   3.205  16.380 -1.7068  1.3503  0.9496
 8659TIP3   OH247467   6.697   4.562  15.943  0.1306 -0.6328 -0.4409
 8659TIP3    H147468   6.628   4.590  15.883  0.0878  1.4931  0.5222
 8659TIP3    H247469   6.776   4.560  15.889  0.2380  1.9928 -0.5042
 8660TIP3   OH247470   3.604   2.371  15.304 -0.1650 -0.2060  0.2849
 8660TIP3    H147471   3.531   2.432  15.316  1.6546  1.9535  0.9850
 8660TIP3    H247472   3.682   2.427  15.301  1.5618 -2.4718  0.3166
 8661TIP3   OH247473   0.294   1.760  14.538 -0.3338 -0.2320  0.3011
 8661TIP3    H147474   0.299   1.830  14.603  0.1732 -1.1072  1.2151
 8661TIP3    H247475   0.232   1.794  14.473  0.0849  1.1697  0.5859
 8662TIP3   OH247476   1.512   3.723  11.333  0.0283 -0.2853  0.3000
 8662TIP3    H147477   1.434   3.704  11.384 -0.2835  1.9144  0.7095
 8662TIP3    H247478   1.514   3.818  11.325  3.1862 -0.1496  1.1653
 8663TIP3   OH247479   0.801   5.719  14.875 -0.3366  0.3442 -0.1942
 8663TIP3    H147480   0.727   5.774  14.851 -0.3435  0.3213 -0.2263
 8663TIP3    H247481   0.762   5.633  14.893 -0.0301 -0.5853 -3.2906
 8664TIP3   OH247482   2.343   5.194   5.000  0.4862 -0.0558  0.1119
 8664TIP3    H147483   2.304   5.242   4.928  1.6010  1.5286  0.5050
 8664TIP3    H247484   2.301   5.108   4.998  1.3205 -0.5318 -3.1413
 8665TIP3   OH247485   6.524   4.768  13.315  0.0756 -0.6817 -0.2847
 8665TIP3    H147486   6.431   4.753  13.334 -0.0601  0.9863  0.4798
 8665TIP3    H247487   6.547   4.698  13.254 -1.8847 -0.6891 -1.0867
 8666TIP3   OH247488   5.057   3.723  16.991  0.2397  0.1739  0.1304
 8666TIP3    H147489   5.075   3.738  16.898 -0.7955  0.1541 -0.0854
 8666TIP3    H247490   5.042   3.810  17.027 -2.1652  0.0253 -0.3493
 8667TIP3   OH247491   0.847   6.606  16.016 -0.0387 -0.6225 -0.3650
 8667TIP3    H147492   0.829   6.512  16.011  1.4896 -1.0024  0.5866
 8667TIP3    H247493   0.876   6.620  16.107 -1.6913  1.0605 -0.0391
 8668TIP3   OH247494   1.146   0.629   3.789  0.5794 -0.6709 -0.4630
 8668TIP3    H147495   1.232   0.632   3.746  0.1247 -0.0089 -1.3490
 8668TIP3    H247496   1.091   0.579   3.729 -0.0689  0.2716 -0.6706
 8669TIP3   OH247497   4.070   3.246  12.152 -0.4013 -0.1722  0.2071
 8669TIP3    H147498   4.079   3.309  12.224  0.1240 -1.2995  1.1600
 8669TIP3    H247499   4.078   3.160  12.194 -0.8678 -0.8821 -1.0948
 8670TIP3   OH247500   1.917   5.910  15.468  0.4774  0.1961 -0.1271
 8670TIP3    H147501   1.881   5.986  15.424 -0.1471  0.2418  0.4555
 8670TIP3    H247502   1.867   5.902  15.549  1.8759  0.3658  0.7885
 8671TIP3   OH247503   1.666   4.865   3.565 -0.2794 -0.0307 -0.3935
 8671TIP3    H147504   1.616   4.868   3.647  0.5917 -0.9427  0.2004
 8671TIP3    H247505   1.696   4.955   3.553 -1.9610  0.5217 -0.7250
 8672TIP3   OH247506   0.560   6.727   3.883  0.4273  0.1465  0.4874
 8672TIP3    H147507   0.542   6.759   3.972 -0.5658  0.6944  0.1005
 8672TIP3    H247508   0.561   6.806   3.829 -0.4783 -0.3211 -0.2256
 8673TIP3   OH247509   5.131   1.389  15.120  0.4464  0.4150  0.7765
 8673TIP3    H147510   5.106   1.455  15.055  1.4537  1.2910  1.2528
 8673TIP3    H247511   5.056   1.382  15.178 -0.4498 -0.3376 -0.4274
 8674TIP3   OH247512   5.855   5.243  13.101 -0.0841 -0.3190 -0.0338
 8674TIP3    H147513   5.780   5.276  13.051  1.6494  0.5359 -2.2518
 8674TIP3    H247514   5.846   5.148  13.096 -0.5782 -0.2353 -1.0275
 8675TIP3   OH247515   3.023   5.507   6.367  0.1070  0.1111 -0.2216
 8675TIP3    H147516   3.048   5.416   6.352 -0.5991 -0.1458  0.0674
 8675TIP3    H247517   3.093   5.543   6.422  0.9197  0.0576 -1.1968
 8676TIP3   OH247518   1.825   1.821   1.226  0.3097 -0.3894  0.0515
 8676TIP3    H147519   1.921   1.820   1.235  0.2324 -2.0068  0.9893
 8676TIP3    H247520   1.792   1.790   1.310 -1.0399 -0.1912 -0.3792
 8677TIP3   OH247521   5.417   2.985   0.500 -0.1822 -0.1643  0.5196
 8677TIP3    H147522   5.426   3.040   0.422 -2.4996  0.3213  0.5283
 8677TIP3    H247523   5.471   3.029   0.566  1.8110 -0.5752 -0.7316
 8678TIP3   OH247524   3.870   0.731   4.564 -0.5470 -0.0885  0.0123
 8678TIP3    H147525   3.892   0.816   4.525  0.4458  1.1054  2.9242
 8678TIP3    H247526   3.946   0.676   4.549 -0.3836  0.1891 -0.1734
 8679TIP3   OH247527   4.796   1.049   0.764 -0.4022  0.1955 -0.0063
 8679TIP3    H147528   4.806   1.127   0.818 -0.9787 -0.4262  1.0385
 8679TIP3    H247529   4.718   1.066   0.711 -0.2872  0.5011 -0.0740
 8680TIP3   OH247530   0.235   3.901   0.644 -0.0146  0.3550 -0.0993
 8680TIP3    H147531   0.289   3.972   0.680  1.1112 -0.0746 -0.8668
 8680TIP3    H247532   0.260   3.824   0.696  0.3053  0.1051 -0.6126
 8681TIP3   OH247533   3.965   2.318   3.261 -0.0379 -0.3760 -0.0223
 8681TIP3    H147534   3.973   2.230   3.297  0.2076 -1.4626 -2.5220
 8681TIP3    H247535   4.056   2.346   3.247 -0.1209  0.1424  0.4661
 8682TIP3   OH247536   3.631   2.456   5.027  0.4135  0.3038  0.3507
 8682TIP3    H147537   3.652   2.545   4.998  1.3105 -0.0612 -0.1826
 8682TIP3    H247538   3.549   2.465   5.074 -0.5098  1.1277 -1.3196
 8683TIP3   OH247539   5.673   2.921   4.671  0.0454  0.3428 -0.4852
 8683TIP3    H147540   5.756   2.931   4.718 -0.4172 -0.0852  0.4539
 8683TIP3    H247541   5.647   3.011   4.648  0.7727  0.4759 -0.8028
 8684TIP3   OH247542   5.462   1.444   5.143  0.7721 -0.3970  0.0322
 8684TIP3    H147543   5.431   1.359   5.175  0.3730 -0.7926 -1.3119
 8684TIP3    H247544   5.441   1.442   5.050  1.4580  0.8796 -0.1583
 8685TIP3   OH247545   3.166   4.265   1.700 -0.2652  0.2518  0.2815
 8685TIP3    H147546   3.217   4.295   1.775 -1.4455  3.4032 -0.0364
 8685TIP3    H247547   3.220   4.286   1.624 -1.3052  2.1880  0.0269
 8686TIP3   OH247548   5.122   0.645  12.687 -0.5452  0.4531  0.5158
 8686TIP3    H147549   5.130   0.554  12.717 -2.1545  0.2672  0.4541
 8686TIP3    H247550   5.207   0.664  12.649 -0.4463 -1.3460 -0.2848
 8687TIP3   OH247551   1.895   1.621   3.550 -0.4000 -0.0017 -0.2941
 8687TIP3    H147552   1.957   1.553   3.578 -0.0677 -0.1003 -1.2347
 8687TIP3    H247553   1.843   1.580   3.481 -0.6499  0.4877 -0.4031
 8688TIP3   OH247554   1.945   0.923   6.238  0.0697  0.4305  0.4777
 8688TIP3    H147555   1.857   0.960   6.231  0.4016  1.1060 -0.4579
 8688TIP3    H247556   1.932   0.833   6.267 -0.9493  0.4294  0.0433
 8689TIP3   OH247557   6.639   5.663   5.373 -0.1062  0.5776  0.4718
 8689TIP3    H147558   6.564   5.694   5.323  0.0732  0.1383 -0.0710
 8689TIP3    H247559   6.703   5.734   5.367  0.2723  0.1588 -0.6994
 8690TIP3   OH247560   1.964   3.846   3.926 -0.0879 -0.3376  0.1554
 8690TIP3    H147561   1.963   3.905   4.002  0.9517  0.7438 -0.6200
 8690TIP3    H247562   2.007   3.897   3.858 -2.2529 -0.7413 -1.6187
 8691TIP3   OH247563   2.842   4.087  14.544 -0.3561 -0.0230  0.4205
 8691TIP3    H147564   2.791   4.161  14.576 -2.1215 -1.4739  1.1534
 8691TIP3    H247565   2.875   4.044  14.623  0.7393  0.0281  0.0066
 8692TIP3   OH247566   2.857   6.614   1.404  0.4089 -0.3026 -0.0401
 8692TIP3    H147567   2.942   6.593   1.442  0.0877  0.9015  1.4722
 8692TIP3    H247568   2.847   6.553   1.331  2.3083 -0.8380  0.1026
 8693TIP3   OH247569   1.246   3.789  11.667  0.5335 -0.2644  0.4208
 8693TIP3    H147570   1.276   3.742  11.590  1.3036 -1.2981  1.3259
 8693TIP3    H247571   1.226   3.877  11.635  1.3254 -0.5263 -0.8516
 8694TIP3   OH247572   4.689   6.490  14.395 -0.1836 -0.0182 -0.6301
 8694TIP3    H147573   4.685   6.402  14.432  0.5106  0.8418  1.6633
 8694TIP3    H247574   4.780   6.500  14.367 -0.0089  0.3072  0.0418
 8695TIP3   OH247575   6.563   1.976   2.448  0.2962 -0.2366 -0.4049
 8695TIP3    H147576   6.574   1.900   2.504  0.0378  0.0091 -0.0122
 8695TIP3    H247577   6.565   2.051   2.508  0.6787  0.0731 -0.7994
 8696TIP3   OH247578   2.974   6.073   4.448 -0.3019 -0.1952 -0.0122
 8696TIP3    H147579   2.912   6.018   4.401 -0.3066 -1.5696  1.5071
 8696TIP3    H247580   3.056   6.023   4.446  1.4748  2.3965 -3.6187
 8697TIP3   OH247581   5.767   5.278  12.589  0.4781 -0.2870 -0.2862
 8697TIP3    H147582   5.725   5.194  12.569  0.5288 -0.7423  1.4187
 8697TIP3    H247583   5.758   5.288  12.683  2.5871  0.4786 -0.1110
 8698TIP3   OH247584   4.466   5.341   6.656 -0.0260 -0.1558  0.4719
 8698TIP3    H147585   4.435   5.379   6.574 -0.6281 -0.9504  0.3229
 8698TIP3    H247586   4.554   5.379   6.668  0.1988 -0.2736 -0.6988
 8699TIP3   OH247587   2.287   1.579   5.613 -0.2179 -0.0751 -0.1291
 8699TIP3    H147588   2.285   1.499   5.666  0.6372 -1.1362 -1.6196
 8699TIP3    H247589   2.196   1.605   5.603 -0.4269 -0.1247  1.4132
 8700TIP3   OH247590   1.057   6.304   3.710 -0.6543 -0.0022  0.2260
 8700TIP3    H147591   0.995   6.261   3.652 -1.2944 -0.1896  1.0252
 8700TIP3    H247592   1.065   6.393   3.676  0.5711 -0.6818 -1.3602
 8701TIP3   OH247593   4.170   0.427  15.475  0.0519 -0.2269 -0.4038
 8701TIP3    H147594   4.254   0.457  15.509 -1.1946  0.1222  2.7145
 8701TIP3    H247595   4.105   0.478  15.524 -1.9979 -1.1308 -2.0505
 8702TIP3   OH247596   3.113   1.373  16.612  0.5897  0.2714 -0.0572
 8702TIP3    H147597   3.029   1.326  16.617  0.9288 -0.2417  0.8956
 8702TIP3    H247598   3.092   1.453  16.563 -1.1474  1.6198  2.6641
 8703TIP3   OH247599   5.219   0.784   4.450 -0.0104 -0.3361 -0.1354
 8703TIP3    H147600   5.193   0.699   4.415  1.1808 -0.5723 -0.4975
 8703TIP3    H247601   5.270   0.763   4.529  0.0550  0.0457 -0.0718
 8704TIP3   OH247602   2.826   4.111   3.144  0.0547 -0.4206  0.3881
 8704TIP3    H147603   2.857   4.197   3.174 -0.8921 -0.4808  1.5793
 8704TIP3    H247604   2.766   4.131   3.072  0.2633 -0.1197  0.2965
 8705TIP3   OH247605   3.643   1.638  16.485 -0.3674  0.4503  0.2125
 8705TIP3    H147606   3.602   1.721  16.507  1.6920  1.5058  0.3129
 8705TIP3    H247607   3.737   1.652  16.501  0.3396 -1.1279 -2.0060
 8706TIP3   OH247608   3.593   1.097  17.616 -0.2238 -0.3036 -0.2793
 8706TIP3    H147609   3.582   1.084  17.710 -1.9209  2.3182 -0.0086
 8706TIP3    H247610   3.660   1.165  17.609  0.2818 -0.8658 -1.0153
 8707TIP3   OH247611   3.564   3.220  12.239 -0.1448 -0.6322 -0.0905
 8707TIP3    H147612   3.654   3.188  12.234  0.4761  1.0756 -0.4207
 8707TIP3    H247613   3.525   3.194  12.156  0.0876 -1.2149 -0.0251
 8708TIP3   OH247614   2.723   2.976  12.621  0.3961 -0.0781  0.0362
 8708TIP3    H147615   2.678   3.009  12.543 -2.1415 -1.0271  0.9959
 8708TIP3    H247616   2.687   3.028  12.693 -1.6455 -2.8369  1.2176
 8709TIP3   OH247617   4.476   6.448   3.213  0.4073 -0.5173  0.1597
 8709TIP3    H147618   4.419   6.518   3.243  1.1492  0.9860 -1.7116
 8709TIP3    H247619   4.435   6.417   3.132  0.9261 -1.1420  0.1274
 8710TIP3   OH247620   0.481   3.949   6.880  0.1761 -0.1880  0.0066
 8710TIP3    H147621   0.387   3.933   6.883  0.6184 -4.1307 -1.0989
 8710TIP3    H247622   0.508   3.915   6.795  2.4922  1.8900 -0.1816
 8711TIP3   OH247623   5.433   3.187   3.502  0.0694 -0.2014 -0.0787
 8711TIP3    H147624   5.398   3.119   3.559  1.1572  0.1425  1.0100
 8711TIP3    H247625   5.379   3.264   3.521  0.2784 -0.1509  0.3008
 8712TIP3   OH247626   1.377   6.450  13.016 -0.0102 -0.4664 -0.0621
 8712TIP3    H147627   1.438   6.508  12.970 -1.3906  0.2588 -1.0152
 8712TIP3    H247628   1.431   6.374  13.040  1.1371 -0.1242 -1.4123
 8713TIP3   OH247629   0.285   0.304  17.158 -0.7830 -0.1299  0.4655
 8713TIP3    H147630   0.217   0.320  17.224 -0.0070  0.2924  1.1974
 8713TIP3    H247631   0.367   0.308  17.208  0.0414  2.9210 -0.9044
 8714TIP3   OH247632   5.672   2.697   5.547  0.1765  0.2466 -0.2387
 8714TIP3    H147633   5.589   2.672   5.505 -0.6433 -0.2999  1.5949
 8714TIP3    H247634   5.682   2.634   5.618  1.7267  0.8683  0.1159
 8715TIP3   OH247635   2.398   0.811   3.515  0.0200  0.1378 -0.2589
 8715TIP3    H147636   2.420   0.784   3.426 -2.8061  2.0189 -1.6818
 8715TIP3    H247637   2.474   0.860   3.546  0.8146 -0.0360 -1.8833
 8716TIP3   OH247638   1.397   1.609  17.346 -0.0521  0.5230 -0.1630
 8716TIP3    H147639   1.450   1.539  17.309  0.3202  1.1629 -0.8660
 8716TIP3    H247640   1.311   1.569  17.360  0.6515 -0.5979  1.2269
 8717TIP3   OH247641   3.419   1.450  12.661  0.0247 -0.1089  0.5324
 8717TIP3    H147642   3.430   1.355  12.671 -0.2773 -0.4470 -1.7323
 8717TIP3    H247643   3.331   1.467  12.695 -0.1014 -0.7343  0.5433
 8718TIP3   OH247644   4.872   4.123   6.044 -0.2564  0.0111 -0.4544
 8718TIP3    H147645   4.827   4.207   6.046 -0.6767 -0.1870  1.9428
 8718TIP3    H247646   4.892   4.108   5.952 -1.0821  2.2345 -1.0537
 8719TIP3   OH247647   0.320   6.370  16.204 -0.5057 -0.1757 -0.1627
 8719TIP3    H147648   0.252   6.333  16.260  0.7507 -1.2649  0.7368
 8719TIP3    H247649   0.307   6.328  16.119 -1.2216 -0.0430 -0.1189
 8720TIP3   OH247650   6.086   2.759  10.795 -0.0183 -0.1325  0.2897
 8720TIP3    H147651   6.175   2.722  10.802 -0.5493 -1.2637  1.5313
 8720TIP3    H247652   6.034   2.705  10.854 -1.5027  0.6578 -0.2685
 8721TIP3   OH247653   4.583   1.534  12.465 -0.5042 -0.4143  0.2920
 8721TIP3    H147654   4.667   1.512  12.424  0.1704 -0.6871  1.7333
 8721TIP3    H247655   4.519   1.481  12.418  0.6207 -2.9710  1.4466
 8722TIP3   OH247656   5.183   2.754  12.130  0.0925 -0.8257  0.2287
 8722TIP3    H147657   5.268   2.775  12.091 -1.0479 -1.0696 -2.7068
 8722TIP3    H247658   5.181   2.802  12.212  1.1212  3.4503 -1.9397
 8723TIP3   OH247659   0.802   0.492  14.041  0.5014 -0.1639 -0.2895
 8723TIP3    H147660   0.814   0.587  14.042  0.9039 -0.1751 -1.7312
 8723TIP3    H247661   0.851   0.463  13.964 -1.3730 -1.2887 -1.1207
 8724TIP3   OH247662   5.304   2.508  10.558 -0.0863  0.7359 -0.3751
 8724TIP3    H147663   5.286   2.446  10.488  2.4383  0.4975 -0.8984
 8724TIP3    H247664   5.267   2.467  10.637 -1.9017  0.4588 -1.3187
 8725TIP3   OH247665   2.383   2.957   1.902  0.6071 -0.4566  0.2965
 8725TIP3    H147666   2.314   2.984   1.842 -0.6503 -1.5134  1.2070
 8725TIP3    H247667   2.435   3.036   1.916  0.0934  0.1537 -1.0507
 8726TIP3   OH247668   6.338   1.104  13.387  0.5114  0.1576  0.3565
 8726TIP3    H147669   6.272   1.082  13.322  0.9140  1.1097 -0.3935
 8726TIP3    H247670   6.414   1.132  13.337  0.7480  1.1539  1.2273
 8727TIP3   OH247671   5.014   6.150   2.522 -0.0462  0.6786  0.4442
 8727TIP3    H147672   5.059   6.113   2.598  0.3750 -0.8174 -0.5112
 8727TIP3    H247673   4.972   6.075   2.480 -2.0125  1.7782  0.3240
 8728TIP3   OH247674   1.182   4.951   5.710 -0.2800 -0.1973  0.0520
 8728TIP3    H147675   1.134   5.016   5.659 -0.5623 -0.3657  0.0996
 8728TIP3    H247676   1.176   4.871   5.658 -2.1064 -0.8421  1.1693
 8729TIP3   OH247677   2.798   2.615   2.274 -0.6350 -0.5161  0.3357
 8729TIP3    H147678   2.705   2.638   2.270 -0.8989 -1.5434  0.2213
 8729TIP3    H247679   2.804   2.531   2.229  0.5909  0.2025 -0.9006
 8730TIP3   OH247680   5.376   1.803  14.321  0.2173  0.0277 -0.5239
 8730TIP3    H147681   5.360   1.755  14.401 -1.3561 -1.4844 -1.6795
 8730TIP3    H247682   5.435   1.747  14.270  1.5731  1.1753 -0.3038
 8731TIP3   OH247683   5.849   6.712   1.436  0.1081 -0.7030 -0.4035
 8731TIP3    H147684   5.844   6.781   1.502 -1.9065 -1.1387 -0.0239
 8731TIP3    H247685   5.898   6.642   1.479 -0.8384 -0.8255  0.5283
 8732TIP3   OH247686   3.708   3.116  12.882  0.5066  0.6664  0.1265
 8732TIP3    H147687   3.751   3.031  12.873  1.0432  0.7234  1.8966
 8732TIP3    H247688   3.672   3.116  12.970  1.4184  2.6735  0.5595
 8733TIP3   OH247689   2.924   6.200  11.486  0.4876  0.2589  0.1790
 8733TIP3    H147690   2.957   6.184  11.397  0.4562  0.1777  0.1811
 8733TIP3    H247691   2.869   6.123  11.504 -1.1336  1.1955 -0.5036
 8734TIP3   OH247692   1.465   6.610  13.791 -0.6274 -0.3906 -0.0785
 8734TIP3    H147693   1.534   6.575  13.735  0.0044 -2.0992  1.6309
 8734TIP3    H247694   1.385   6.569  13.759 -1.1633  2.3097 -2.6710
 8735TIP3   OH247695   5.427   1.925   5.398  0.6579 -0.1039  0.2431
 8735TIP3    H147696   5.356   1.861   5.408  0.3307 -0.0902 -1.6110
 8735TIP3    H247697   5.403   1.997   5.456 -0.1664 -0.6536  0.6111
 8736TIP3   OH247698   0.975   2.522   0.177  0.5650 -0.1867  1.0607
 8736TIP3    H147699   1.064   2.554   0.162  0.6987 -0.4814  1.1934
 8736TIP3    H247700   0.926   2.547   0.099  1.1841 -1.4900  0.2039
 8737TIP3   OH247701   3.313   4.299  11.261  0.2486 -0.4367 -0.1439
 8737TIP3    H147702   3.219   4.309  11.253  0.3774  0.6002 -0.4512
 8737TIP3    H247703   3.327   4.277  11.353 -0.1854  0.8981  0.2607
 8738TIP3   OH247704   0.105   5.130   4.275  0.5822 -0.1210  0.5572
 8738TIP3    H147705   0.100   5.079   4.356  2.7379  0.2588  0.9796
 8738TIP3    H247706   0.131   5.217   4.303  1.0324  0.1029 -0.5247
 8739TIP3   OH247707   3.031   2.507  16.628 -0.4815 -0.0387  0.6252
 8739TIP3    H147708   3.000   2.481  16.542 -0.3190 -3.4813  1.4803
 8739TIP3    H247709   3.123   2.528  16.616 -0.0370 -2.0710  0.1637
 8740TIP3   OH247710   0.543   3.582   5.525  0.2694  0.1869 -0.1268
 8740TIP3    H147711   0.625   3.585   5.576 -0.1346  1.0090  0.5019
 8740TIP3    H247712   0.483   3.533   5.581 -0.7285  2.6107  1.0971
 8741TIP3   OH247713   3.941   0.111  15.817  1.0740 -0.8010  0.8222
 8741TIP3    H147714   3.916   0.051  15.887  0.0126 -0.4094  0.8035
 8741TIP3    H247715   3.860   0.158  15.796  1.7373  0.1973  0.4121
 8742TIP3   OH247716   1.966   1.867  12.985  0.1454  0.4781  0.7057
 8742TIP3    H147717   1.898   1.932  13.003 -1.4807 -1.2569  1.1901
 8742TIP3    H247718   2.043   1.919  12.963 -0.9993  2.5607  1.2747
 8743TIP3   OH247719   0.871   4.160  16.743  0.9049 -0.5698 -0.1598
 8743TIP3    H147720   0.793   4.186  16.695  1.0823  2.1345  0.8473
 8743TIP3    H247721   0.906   4.242  16.779  2.7520 -2.0057  1.5872
 8744TIP3   OH247722   0.876   2.705  15.155  0.3168  0.7392 -0.0656
 8744TIP3    H147723   0.790   2.695  15.116  0.2963 -1.1349  0.3219
 8744TIP3    H247724   0.923   2.764  15.096 -0.8889  0.9460 -0.8530
 8745TIP3   OH247725   5.859   5.887  12.361 -0.0675  0.7417 -0.1975
 8745TIP3    H147726   5.809   5.811  12.331 -0.2059  0.0141  1.7549
 8745TIP3    H247727   5.947   5.872  12.327 -0.3110  0.1742 -0.5952
 8746TIP3   OH247728   1.335   2.016   2.752 -0.6020 -0.0579  0.2319
 8746TIP3    H147729   1.298   2.036   2.666 -0.1979  0.4940  0.1843
 8746TIP3    H247730   1.430   2.011   2.738 -0.5917 -0.8018  0.4844
 8747TIP3   OH247731   6.728   4.242   4.774 -0.2794  0.1398 -0.4973
 8747TIP3    H147732   6.736   4.230   4.869  1.0100 -1.8031 -0.7884
 8747TIP3    H247733   6.802   4.298   4.751 -1.4338  1.8457 -0.2119
 8748TIP3   OH247734   0.205   4.099   0.412  0.0619  0.3083  0.2877
 8748TIP3    H147735   0.253   4.180   0.396 -1.2750  1.3032  1.1172
 8748TIP3    H247736   0.220   4.081   0.505  0.0412 -0.1943  0.1935
 8749TIP3   OH247737   6.292   0.880  17.140 -0.1323 -0.3489  0.0901
 8749TIP3    H147738   6.275   0.864  17.233  1.4632  1.3778  0.7367
 8749TIP3    H247739   6.215   0.928  17.109 -0.1805  0.0501  0.8134
 8750TIP3   OH247740   5.010   4.176  11.754 -0.4084  0.1092  0.6350
 8750TIP3    H147741   5.024   4.127  11.673 -1.4174  0.3812  0.2889
 8750TIP3    H247742   4.915   4.183  11.762 -0.3064  0.6333  1.5139
 8751TIP3   OH247743   4.203   4.497  12.146 -0.5686 -0.4664  0.1953
 8751TIP3    H147744   4.198   4.425  12.083  0.2761 -2.1194  1.9422
 8751TIP3    H247745   4.112   4.526  12.156 -0.9488 -1.4125 -0.3761
 8752TIP3   OH247746   3.699   2.364   0.363 -0.4201 -0.0106 -0.3888
 8752TIP3    H147747   3.695   2.409   0.447  0.6013 -0.6731  0.0303
 8752TIP3    H247748   3.759   2.291   0.377 -1.4320 -1.0561 -1.2695
 8753TIP3   OH247749   0.438   6.341   1.892  0.3432  0.3409 -0.1766
 8753TIP3    H147750   0.352   6.304   1.873  0.7927  0.5199 -2.9571
 8753TIP3    H247751   0.420   6.431   1.919 -0.3173  1.1870 -3.1001
 8754TIP3   OH247752   5.318   5.301   1.528  0.2873 -0.1507  0.6251
 8754TIP3    H147753   5.392   5.313   1.469  0.8716  0.4952  1.4778
 8754TIP3    H247754   5.330   5.366   1.596 -0.7173 -0.4727  1.1349
 8755TIP3   OH247755   0.392   4.465   4.872  0.1683 -0.2595 -0.2153
 8755TIP3    H147756   0.458   4.504   4.929 -0.4506  1.4013 -0.5764
 8755TIP3    H247757   0.421   4.375   4.859  1.1866 -0.1934  1.3866
 8756TIP3   OH247758   6.006   6.465   4.256  0.5319  0.3424  0.0382
 8756TIP3    H147759   6.025   6.399   4.191 -2.4678  0.3661 -1.0072
 8756TIP3    H247760   6.047   6.433   4.336  1.1540 -1.5529 -0.9948
 8757TIP3   OH247761   0.170   4.915   5.723 -0.2775 -0.2452 -0.3139
 8757TIP3    H147762   0.180   5.005   5.752 -0.2407 -0.5486  0.6791
 8757TIP3    H247763   0.176   4.919   5.628 -0.4131  0.8097 -0.2888
 8758TIP3   OH247764   3.540   4.831   4.090  0.0461 -0.3060 -0.1617
 8758TIP3    H147765   3.553   4.926   4.097  0.7542 -0.5272  2.5270
 8758TIP3    H247766   3.623   4.793   4.119 -0.2928 -1.7901 -1.0156
 8759TIP3   OH247767   2.959   1.378   4.737 -0.4766 -0.4099  0.4022
 8759TIP3    H147768   3.030   1.333   4.690  2.0338  0.7720  2.7700
 8759TIP3    H247769   2.972   1.471   4.716 -1.3495 -0.1748  0.8613
 8760TIP3   OH247770   0.963   6.376  11.324 -0.1560  0.6270  0.6025
 8760TIP3    H147771   0.984   6.445  11.388  0.3379  2.1160 -1.0707
 8760TIP3    H247772   0.868   6.381  11.315 -0.2464  0.3087  1.3076
 8761TIP3   OH247773   5.020   4.527   2.760  0.0165  0.5008  1.0104
 8761TIP3    H147774   4.976   4.445   2.738  1.1778 -0.5649  2.4609
 8761TIP3    H247775   4.993   4.545   2.850  1.6891  0.3666  1.5691
 8762TIP3   OH247776   3.469   4.359  17.654  0.5392  0.3778 -0.1862
 8762TIP3    H147777   3.398   4.339  17.714  1.3398  1.3389  1.1316
 8762TIP3    H247778   3.548   4.326  17.698  0.9296 -0.9421 -1.7478
 8763TIP3   OH247779   1.003   1.671   3.726 -0.2105 -0.2036  0.4442
 8763TIP3    H147780   1.014   1.723   3.647  2.1015 -0.4220  0.5629
 8763TIP3    H247781   1.015   1.580   3.697  1.1518 -0.2486  1.0915
 8764TIP3   OH247782   4.391   2.442  14.167 -0.4485  0.3368  0.4015
 8764TIP3    H147783   4.435   2.384  14.104 -1.0343  0.7128 -0.3587
 8764TIP3    H247784   4.448   2.440  14.244  0.4723  0.1613 -0.2671
 8765TIP3   OH247785   5.342   3.072   4.093  0.3027 -0.6466 -0.5607
 8765TIP3    H147786   5.306   3.080   4.181 -1.9385 -0.7684 -1.3947
 8765TIP3    H247787   5.295   2.998   4.054 -0.0149  0.4537 -2.4105
 8766TIP3   OH247788   1.554   0.120  13.850 -0.2705 -0.7770 -0.9299
 8766TIP3    H147789   1.531   0.027  13.856 -0.2910 -0.7346 -0.3553
 8766TIP3    H247790   1.650   0.121  13.857 -0.3188 -0.7002 -0.2960
 8767TIP3   OH247791   3.971   3.849  15.366 -0.0612 -0.3731  0.4103
 8767TIP3    H147792   4.019   3.767  15.355  1.8844  0.9348 -1.6285
 8767TIP3    H247793   3.962   3.859  15.461  1.5270 -1.8925  0.7680
 8768TIP3   OH247794   5.432   2.874   3.254  0.4405 -0.5973 -0.0110
 8768TIP3    H147795   5.407   2.807   3.317  1.5725 -1.1177 -0.0874
 8768TIP3    H247796   5.352   2.892   3.205 -0.4732 -0.1561  1.5769
 8769TIP3   OH247797   1.364   6.316   5.530 -0.1946  0.8438  0.6251
 8769TIP3    H147798   1.305   6.280   5.464  0.2484  0.0216  0.6550
 8769TIP3    H247799   1.358   6.411   5.519 -0.1707  0.7246 -0.5605
 8770TIP3   OH247800   1.566   5.551  11.450 -0.6958  0.2286 -0.0179
 8770TIP3    H147801   1.658   5.577  11.453 -0.8712  1.4798 -2.4757
 8770TIP3    H247802   1.568   5.458  11.427  0.0311  0.6838 -2.0289
 8771TIP3   OH247803   4.925   2.598   6.294 -0.1131 -0.5297 -0.5877
 8771TIP3    H147804   4.849   2.588   6.236 -1.1233  0.9676  0.4046
 8771TIP3    H247805   4.942   2.509   6.326 -1.1186 -0.9791 -1.2497
 8772TIP3   OH247806   3.083   0.744   0.687  0.2419  0.3393  0.0918
 8772TIP3    H147807   3.133   0.751   0.769  0.1128 -1.3331  0.3519
 8772TIP3    H247808   3.029   0.666   0.699 -0.0354  0.2702 -1.4594
 8773TIP3   OH247809   2.091   6.128   0.700  0.1464 -0.2452  0.6694
 8773TIP3    H147810   2.159   6.147   0.765 -0.6776 -0.2833  1.5744
 8773TIP3    H247811   2.084   6.032   0.700  1.9923 -0.4511 -1.4648
 8774TIP3   OH247812   1.140   6.326  15.782  0.3323  0.1861  0.3653
 8774TIP3    H147813   1.152   6.265  15.709 -1.0808 -0.1928  0.4135
 8774TIP3    H247814   1.197   6.400  15.761 -1.6128  1.0932 -2.2856
 8775TIP3   OH247815   4.174   6.201  11.555 -0.4940 -0.8580 -0.4926
 8775TIP3    H147816   4.235   6.162  11.492  1.9584 -0.2461  1.3590
 8775TIP3    H247817   4.190   6.296  11.548 -0.4058 -0.7595  0.7724
 8776TIP3   OH247818   0.851   1.732  13.384 -0.0887 -0.4742  0.3990
 8776TIP3    H147819   0.815   1.817  13.359 -1.2665 -1.1307 -0.2058
 8776TIP3    H247820   0.834   1.676  13.308 -0.7883 -1.6679  1.4026
 8777TIP3   OH247821   6.664   3.093  16.015  0.5739  0.3936 -0.4747
 8777TIP3    H147822   6.702   3.180  16.032 -1.8742  1.3863  0.3206
 8777TIP3    H247823   6.575   3.111  15.986  0.6478 -1.8303 -2.3391
 8778TIP3   OH247824   4.091   4.094   4.312  0.2002 -0.3440  0.0305
 8778TIP3    H147825   4.038   4.152   4.367  1.4804  1.5364 -0.6058
 8778TIP3    H247826   4.070   4.006   4.342 -0.4774  0.5279  2.2937
 8779TIP3   OH247827   2.185   5.868   2.309 -0.1660  0.0153 -0.2601
 8779TIP3    H147828   2.172   5.892   2.401  1.0658  0.3255 -0.1486
 8779TIP3    H247829   2.232   5.785   2.312  1.8386  1.0793 -0.5467
 8780TIP3   OH247830   2.942   4.784  14.283 -0.0249  0.1903 -0.2645
 8780TIP3    H147831   2.974   4.701  14.247  1.1541  0.3538  0.3420
 8780TIP3    H247832   3.005   4.849  14.251 -0.2073  0.6532  0.3155
 8781TIP3   OH247833   6.139   1.970   0.870 -0.4874 -0.3286 -0.8183
 8781TIP3    H147834   6.178   1.970   0.783 -0.0918 -0.5910 -0.6448
 8781TIP3    H247835   6.073   1.901   0.866 -0.8358  0.0136 -1.0663
 8782TIP3   OH247836   2.598   4.535  11.727 -0.1722  0.1582 -0.3014
 8782TIP3    H147837   2.661   4.527  11.655 -1.1942  2.4237 -1.5677
 8782TIP3    H247838   2.526   4.476  11.702  0.1752 -0.2571 -0.3278
 8783TIP3   OH247839   1.847   6.073  12.187  0.0280 -0.2437 -0.0669
 8783TIP3    H147840   1.761   6.048  12.221  0.1570  2.8351  3.1049
 8783TIP3    H247841   1.909   6.043  12.253  0.9189  1.1982 -0.2071
 8784TIP3   OH247842   0.771   6.043   4.020  0.1692 -0.3723 -0.9006
 8784TIP3    H147843   0.727   6.128   4.017  0.6700 -0.0242  0.5850
 8784TIP3    H247844   0.849   6.059   4.074  0.5268 -1.6708 -1.0006
 8785TIP3   OH247845   1.234   2.234  12.188  0.3448 -0.5466  0.5190
 8785TIP3    H147846   1.316   2.185  12.196  0.4582 -0.2412  1.3295
 8785TIP3    H247847   1.175   2.191  12.249  0.7441  0.9091  1.9913
 8786TIP3   OH247848   2.801   5.647  16.266 -0.0488  0.6289  0.1987
 8786TIP3    H147849   2.821   5.689  16.349  0.5095 -1.9525  1.4689
 8786TIP3    H247850   2.716   5.606  16.279  1.1926 -2.0706  0.5524
 8787TIP3   OH247851   2.560   4.164  12.338 -0.3514 -0.2563  0.2354
 8787TIP3    H147852   2.465   4.177  12.326 -0.3737 -0.7704 -0.1877
 8787TIP3    H247853   2.581   4.214  12.417 -0.4214  2.4154 -1.3192
 8788TIP3   OH247854   6.421   2.426  16.311  0.3042 -0.4343  0.0261
 8788TIP3    H147855   6.446   2.462  16.226 -0.0122  0.7007  0.4063
 8788TIP3    H247856   6.470   2.344  16.317  0.1523 -0.6415 -1.3429
 8789TIP3   OH247857   1.270   3.402  12.192  0.2716 -0.0858 -0.8519
 8789TIP3    H147858   1.263   3.469  12.259  0.7679  1.9694 -2.7213
 8789TIP3    H247859   1.333   3.339  12.227  0.3989  0.8321  0.6520
 8790TIP3   OH247860   1.635   3.779  12.043  0.1208 -0.2896 -0.4291
 8790TIP3    H147861   1.634   3.699  12.096  0.7837 -0.8531 -1.2542
 8790TIP3    H247862   1.576   3.760  11.970  0.8654 -0.3154 -1.0338
 8791TIP3   OH247863   1.923   2.013   2.390 -0.0268 -0.2561 -0.0289
 8791TIP3    H147864   1.924   2.102   2.425 -1.0742 -0.8385  1.5556
 8791TIP3    H247865   1.965   1.960   2.457  0.4499 -1.0063 -0.8896
 8792TIP3   OH247866   1.585   1.135   5.821  0.1151 -0.5314 -0.3849
 8792TIP3    H147867   1.619   1.081   5.893  0.2033  0.3250  0.2366
 8792TIP3    H247868   1.662   1.178   5.785  0.0841 -1.0422 -1.0843
 8793TIP3   OH247869   4.043   1.950  17.306  0.3645 -0.6355 -0.1584
 8793TIP3    H147870   4.048   2.021  17.369  1.6608 -1.4299  0.6699
 8793TIP3    H247871   4.132   1.917  17.298  0.1011 -1.0574 -1.8406
 8794TIP3   OH247872   3.353   2.140  15.132 -0.0412 -0.6067  0.0699
 8794TIP3    H147873   3.348   2.045  15.127 -1.8575 -0.5287 -0.5227
 8794TIP3    H247874   3.304   2.162  15.212  1.4261 -0.2053  0.8952
 8795TIP3   OH247875   0.139   5.835  12.905  0.9942 -0.3631 -0.5784
 8795TIP3    H147876   0.196   5.855  12.831 -0.7923  1.6759 -1.5242
 8795TIP3    H247877   0.050   5.851  12.872 -0.1330 -2.7629  1.0194
 8796TIP3   OH247878   6.469   3.624   6.681  0.2133 -0.0810 -0.2447
 8796TIP3    H147879   6.392   3.572   6.656 -0.8667  1.0122  0.6922
 8796TIP3    H247880   6.532   3.559   6.713  0.4494 -1.2031 -2.7536
 8797TIP3   OH247881   1.657   3.441   6.258 -0.3661  0.1693 -0.0181
 8797TIP3    H147882   1.726   3.396   6.307 -1.1310 -1.3193 -0.2507
 8797TIP3    H247883   1.599   3.476   6.326  0.0417  0.5268  0.1566
 8798TIP3   OH247884   6.102   2.379   2.676  0.0691  0.0563 -0.1281
 8798TIP3    H147885   6.128   2.465   2.709 -0.7817 -0.1735  1.2226
 8798TIP3    H247886   6.159   2.317   2.723  0.9760 -0.1261 -1.4050
 8799TIP3   OH247887   0.995   0.980   6.197  0.2790  0.8060  0.6193
 8799TIP3    H147888   0.953   1.063   6.221  1.7243  1.5746  0.5838
 8799TIP3    H247889   1.012   0.987   6.103 -1.3786 -0.3798  0.1914
 8800TIP3   OH247890   2.620   4.513  14.689  0.2094  0.2802  0.6142
 8800TIP3    H147891   2.677   4.549  14.622  0.8888  0.3687  1.2284
 8800TIP3    H247892   2.558   4.583  14.709  1.6701  1.2673  1.9797
 8801TIP3   OH247893   4.931   2.585  14.403  0.2013 -0.4271  0.1150
 8801TIP3    H147894   4.837   2.598  14.416  0.4466  0.2438  1.3872
 8801TIP3    H247895   4.972   2.652  14.458  1.4306 -1.1964  0.1661
 8802TIP3   OH247896   2.026   1.818   2.587  0.2122  0.0227 -0.2260
 8802TIP3    H147897   1.945   1.861   2.618 -0.1547  2.2453 -3.6795
 8802TIP3    H247898   2.091   1.840   2.654 -0.4329  4.6084 -0.7580
 8803TIP3   OH247899   2.749   5.833  15.337  0.2264  0.1516 -0.4118
 8803TIP3    H147900   2.655   5.854  15.345  0.1378 -0.6165  0.9245
 8803TIP3    H247901   2.769   5.784  15.417  1.6628 -0.1328 -0.9223
 8804TIP3   OH247902   1.760   0.805  15.117  0.5363  0.0513  0.3175
 8804TIP3    H147903   1.711   0.842  15.044  1.0874  0.0853 -0.0366
 8804TIP3    H247904   1.759   0.873  15.184 -0.3254 -0.1363  0.5155
 8805TIP3   OH247905   6.190   2.884  17.299 -0.5614 -0.1952  0.0791
 8805TIP3    H147906   6.242   2.952  17.343 -1.1886  0.5604 -0.3419
 8805TIP3    H247907   6.116   2.868  17.358 -0.9799  0.2495 -0.3256
 8806TIP3   OH247908   3.114   6.211  15.441  0.2681 -0.6807 -0.1702
 8806TIP3    H147909   3.029   6.173  15.422  0.2215 -0.0053 -1.4680
 8806TIP3    H247910   3.177   6.149  15.403  0.2255  0.0040 -1.4466
 8807TIP3   OH247911   0.947   0.834  14.784 -0.0511  0.0951 -0.2635
 8807TIP3    H147912   0.934   0.923  14.816 -1.2537 -0.8839  2.2685
 8807TIP3    H247913   1.023   0.802  14.834 -0.3691 -0.6624 -0.2525
 8808TIP3   OH247914   2.254   4.824   3.601 -0.4492 -0.4115 -0.9282
 8808TIP3    H147915   2.291   4.882   3.535 -1.2322  0.7167 -0.4165
 8808TIP3    H247916   2.160   4.831   3.590 -0.5956 -0.2634  0.2485
 8809TIP3   OH247917   3.219   0.499   2.359 -0.1970 -0.3323 -0.2654
 8809TIP3    H147918   3.181   0.504   2.272 -0.5834 -0.3460 -0.1006
 8809TIP3    H247919   3.204   0.408   2.387 -1.3353  0.0353  0.3706
 8810TIP3   OH247920   4.857   4.841  13.286 -0.4725  0.0084  0.1462
 8810TIP3    H147921   4.840   4.772  13.350 -2.2559 -0.3028 -0.6074
 8810TIP3    H247922   4.942   4.817  13.248 -1.1725 -1.9579 -0.2889
 8811TIP3   OH247923   5.451   4.525   1.228 -0.1561  0.3069  0.1471
 8811TIP3    H147924   5.394   4.477   1.288  0.1060  0.3763  0.4553
 8811TIP3    H247925   5.459   4.612   1.267  0.3868  0.2141  0.2639
 8812TIP3   OH247926   2.520   2.094  13.694  0.4701 -0.7745 -0.6644
 8812TIP3    H147927   2.588   2.077  13.759  3.0281  0.6982 -2.7530
 8812TIP3    H247928   2.539   2.033  13.622  0.2970  0.3726 -1.7302
 8813TIP3   OH247929   5.015   4.947  12.103 -0.0202 -0.2683 -0.0847
 8813TIP3    H147930   4.950   4.995  12.155  1.3042  0.7125  0.7384
 8813TIP3    H247931   5.099   4.976  12.138  0.8747 -1.2443 -1.3518
 8814TIP3   OH247932   4.353   1.546  14.158 -0.1473 -0.4728  0.2668
 8814TIP3    H147933   4.338   1.635  14.188  1.0175 -0.0227 -0.4149
 8814TIP3    H247934   4.274   1.523  14.109  0.2550  0.8807 -1.0960
 8815TIP3   OH247935   0.011   5.053  12.060 -0.3433 -0.0259 -0.2972
 8815TIP3    H147936  -0.040   4.974  12.046  0.4597 -0.5795 -0.1823
 8815TIP3    H247937  -0.014   5.112  11.989  0.0368 -0.8993 -1.1723
 8816TIP3   OH247938   5.375   6.266   4.600  0.3397 -0.0482  0.5845
 8816TIP3    H147939   5.384   6.335   4.665  0.6246  0.3657  0.1125
 8816TIP3    H247940   5.465   6.237   4.583  0.2161 -0.6016  0.8464
 8817TIP3   OH247941   3.335   5.290  11.957  0.1765  0.0994  0.0137
 8817TIP3    H147942   3.326   5.326  12.045 -1.1157 -0.3045  0.0731
 8817TIP3    H247943   3.255   5.237  11.944  0.2851  0.2306 -1.4273
 8818TIP3   OH247944   1.610   5.164  17.270  0.1947  0.2734  0.6997
 8818TIP3    H147945   1.515   5.178  17.269 -0.2189 -2.0143  1.5021
 8818TIP3    H247946   1.642   5.217  17.342 -0.7221 -0.0699  1.3785
 8819TIP3   OH247947   5.037   5.996  12.708 -0.2497 -0.2298 -0.0352
 8819TIP3    H147948   5.041   6.061  12.638  2.0753  1.1741  1.2955
 8819TIP3    H247949   5.036   5.912  12.662 -0.9026  0.6576 -1.7569
 8820TIP3   OH247950   4.331   2.910   0.738 -0.1041 -0.2424 -0.1157
 8820TIP3    H147951   4.292   2.995   0.718 -1.0217 -0.9188 -1.4025
 8820TIP3    H247952   4.414   2.910   0.690  0.3798  0.2896  0.6970
 8821TIP3   OH247953   5.783   4.023  16.901 -0.4789 -0.3169 -0.7013
 8821TIP3    H147954   5.812   4.114  16.902 -0.0039 -0.4692 -0.3096
 8821TIP3    H247955   5.859   3.973  16.872  0.0060 -0.8353  1.3086
 8822TIP3   OH247956   6.293   4.613  15.083 -0.4547  0.5824  0.8089
 8822TIP3    H147957   6.308   4.635  14.991 -1.2680  0.2257  0.5760
 8822TIP3    H247958   6.300   4.517  15.087  1.4485  0.7204  1.4972
 8823TIP3   OH247959   4.753   2.777  15.249 -0.5413  0.0212  0.4344
 8823TIP3    H147960   4.734   2.832  15.325 -2.6683  0.3634 -0.2619
 8823TIP3    H247961   4.843   2.799  15.225 -0.5058  1.3633  1.6700
 8824TIP3   OH247962   1.763   5.738   0.020 -0.0674  0.4198 -0.4493
 8824TIP3    H147963   1.838   5.728   0.079  0.9814  0.6026 -1.6994
 8824TIP3    H247964   1.696   5.679   0.054  1.0352 -0.5436  0.0903
 8825TIP3   OH247965   2.569   3.175   4.933 -0.1759 -0.1551 -0.3254
 8825TIP3    H147966   2.547   3.226   5.011  1.0228 -1.3470  0.8369
 8825TIP3    H247967   2.532   3.088   4.950  0.0584 -0.4164 -1.1038
 8826TIP3   OH247968   4.420   3.116   1.082  0.6203 -0.1215  0.1706
 8826TIP3    H147969   4.426   3.020   1.074 -0.1073 -0.3924  2.2019
 8826TIP3    H247970   4.383   3.130   1.169  2.7702  2.0941  0.8221
 8827TIP3   OH247971   1.574   6.307  13.827  0.5312 -0.2899 -0.3470
 8827TIP3    H147972   1.545   6.216  13.817 -1.5649  0.4611 -1.9158
 8827TIP3    H247973   1.609   6.331  13.741  0.6941  0.5155 -0.0655
 8828TIP3   OH247974   6.229   4.468  16.090  0.2116 -0.9363  0.1823
 8828TIP3    H147975   6.172   4.403  16.132 -0.9724 -0.8984 -1.2775
 8828TIP3    H247976   6.238   4.537  16.155 -2.1268 -0.5568  0.2037
 8829TIP3   OH247977   1.056   1.349   4.132  0.0952 -0.1674 -0.0029
 8829TIP3    H147978   1.130   1.409   4.137 -0.1596  0.1574 -0.1019
 8829TIP3    H247979   0.979   1.406   4.136 -0.1979 -0.6144  2.2670
 8830TIP3   OH247980   4.143   6.579   4.215 -0.0671  0.3305 -0.0104
 8830TIP3    H147981   4.163   6.586   4.308  0.2547 -1.6665  0.0952
 8830TIP3    H247982   4.047   6.588   4.210 -0.0664  0.6393  0.4742
 8831TIP3   OH247983   6.029   3.152   4.302 -0.0349  0.3008 -0.5396
 8831TIP3    H147984   6.121   3.150   4.276  0.1072  1.4947 -0.1391
 8831TIP3    H247985   6.022   3.087   4.372  0.0791 -1.1880 -1.8360
 8832TIP3   OH247986   0.779   0.090  12.199 -0.0497 -0.2004  0.5227
 8832TIP3    H147987   0.703   0.095  12.140  0.5281  0.9526 -0.1532
 8832TIP3    H247988   0.853   0.076  12.141  0.3740 -0.3179  1.0905
 8833TIP3   OH247989   5.199   4.179   5.568 -0.4942  0.3795  0.2572
 8833TIP3    H147990   5.174   4.135   5.487  1.0497 -2.2831  1.0908
 8833TIP3    H247991   5.126   4.237   5.588 -1.3469  0.3840 -2.4831
 8834TIP3   OH247992   0.275   0.792   1.070 -0.1917 -0.3057 -0.1776
 8834TIP3    H147993   0.240   0.816   0.984 -2.6488 -2.4338  0.1104
 8834TIP3    H247994   0.207   0.819   1.132  0.7802 -0.3526  0.9409
 8835TIP3   OH247995   6.073   5.864   4.233 -0.4755 -0.4068 -0.3076
 8835TIP3    H147996   6.006   5.845   4.299  1.5535  0.8868  2.3125
 8835TIP3    H247997   6.143   5.802   4.251  0.5775  0.7031 -0.4664
 8836TIP3   OH247998   2.313   2.974  11.310 -0.1728 -0.0105  0.1049
 8836TIP3    H147999   2.222   2.979  11.282  0.5060 -0.4860 -2.4407
 8836TIP3    H248000   2.331   3.060  11.348 -1.0086  1.0574 -1.7601
 8837TIP3   OH248001   0.469   0.066   3.383 -0.1068  0.2441 -0.2796
 8837TIP3    H148002   0.540   0.129   3.394  0.6719 -0.5537 -0.6787
 8837TIP3    H248003   0.491   0.017   3.304 -0.6556 -0.5948  0.0693
 8838TIP3   OH248004   4.474   3.378  15.255 -0.0169 -0.0495 -0.2583
 8838TIP3    H148005   4.541   3.316  15.283  1.1087  0.6853 -1.2292
 8838TIP3    H248006   4.430   3.336  15.181 -1.0432 -0.7679  0.7258
 8839TIP3   OH248007   4.096   0.778   3.786  0.0708 -0.2639  0.2024
 8839TIP3    H148008   4.073   0.870   3.800  1.7658  0.0860  0.8769
 8839TIP3    H248009   4.122   0.774   3.694 -0.2833 -0.1396  0.0940
 8840TIP3   OH248010   5.478   2.860  14.950 -0.1286  0.4715  0.3958
 8840TIP3    H148011   5.478   2.955  14.935  0.9961  0.3292 -0.6653
 8840TIP3    H248012   5.497   2.823  14.864  0.9445 -0.6715  1.1070
 8841TIP3   OH248013   5.242   3.720   4.853 -0.1929 -0.2538  0.0922
 8841TIP3    H148014   5.300   3.790   4.883 -1.7025  0.2027  2.1070
 8841TIP3    H248015   5.289   3.640   4.875  0.4529  0.0913  0.0185
 8842TIP3   OH248016   0.784   4.765  13.765 -0.7061 -0.1585  0.2011
 8842TIP3    H148017   0.809   4.809  13.683 -2.3402  2.8083  1.1386
 8842TIP3    H248018   0.703   4.719  13.745  0.3495 -1.8462 -0.4602
 8843TIP3   OH248019   0.797   0.961   1.950  0.2961 -0.0030  0.0904
 8843TIP3    H148020   0.888   0.933   1.964 -0.1762 -1.2040  0.9278
 8843TIP3    H248021   0.780   1.023   2.021  0.6461  0.7241 -0.4469
 8844TIP3   OH248022   1.403   0.321   0.221  0.1531  0.0997 -0.2684
 8844TIP3    H148023   1.380   0.413   0.207 -0.3230 -0.0454 -0.4686
 8844TIP3    H248024   1.400   0.282   0.134  1.2637  0.0884 -0.3101
 8845TIP3   OH248025   1.254   5.163  11.556  0.5392 -1.0222  0.3321
 8845TIP3    H148026   1.159   5.156  11.546  0.6077 -0.5769 -0.8283
 8845TIP3    H248027   1.288   5.149  11.467  1.6162 -2.0874  0.8780
 8846TIP3   OH248028   3.861   6.378   5.591 -0.1186  0.3390 -0.2269
 8846TIP3    H148029   3.766   6.381   5.597 -0.0812  0.5024  0.3402
 8846TIP3    H248030   3.881   6.293   5.551 -0.4777  0.0960  0.1176
 8847TIP3   OH248031   4.350   2.434  16.123 -0.0971 -0.0195  0.5128
 8847TIP3    H148032   4.259   2.460  16.139  0.2915  1.2742  0.7396
 8847TIP3    H248033   4.363   2.451  16.029 -0.4799 -1.5379  0.1529
 8848TIP3   OH248034   4.718   0.171   0.776  0.5252  0.4423 -0.1234
 8848TIP3    H148035   4.784   0.105   0.756  1.7527  2.0439 -1.5541
 8848TIP3    H248036   4.672   0.185   0.694 -0.5684  0.5047  0.4771
 8849TIP3   OH248037   0.275   4.696   0.097  0.3702 -0.2847 -0.1008
 8849TIP3    H148038   0.238   4.647   0.171 -0.2307  0.0815 -0.1533
 8849TIP3    H248039   0.357   4.733   0.131  1.0730 -1.6851 -0.1913
 8850TIP3   OH248040   1.491   1.874   1.684 -0.5582  0.3893 -0.1520
 8850TIP3    H148041   1.543   1.952   1.664  0.3480  0.0900  0.9282
 8850TIP3    H248042   1.403   1.908   1.702 -0.5397  0.9968 -1.1593
 8851TIP3   OH248043   3.990   0.643  12.864  0.1836 -0.0847  0.5412
 8851TIP3    H148044   3.903   0.661  12.829  0.6566  0.7647 -0.2482
 8851TIP3    H248045   4.041   0.617  12.787  0.9987  0.8594  0.7547
 8852TIP3   OH248046   0.917   2.353   3.070 -0.2771  0.0053 -0.1751
 8852TIP3    H148047   0.844   2.357   3.131  0.2633 -0.8378  0.5663
 8852TIP3    H248048   0.933   2.444   3.044 -2.6986  0.0570 -1.7436
 8853TIP3   OH248049   4.543   2.197  14.251 -0.4017  0.2969  0.2655
 8853TIP3    H148050   4.573   2.282  14.284  0.1614 -0.0862  0.7450
 8853TIP3    H248051   4.599   2.133  14.294  0.9079 -0.1810 -1.9766
 8854TIP3   OH248052   4.999   1.008   3.274 -0.7295  0.4151  0.5892
 8854TIP3    H148053   5.042   0.932   3.314  0.6791  0.2686 -1.0608
 8854TIP3    H248054   4.906   0.988   3.278 -0.3507 -1.9740 -0.7886
 8855TIP3   OH248055   3.032   2.840  11.933  0.3724  0.0198  0.4551
 8855TIP3    H148056   3.045   2.828  11.839  3.4758 -0.4907  0.8680
 8855TIP3    H248057   2.972   2.915  11.939  1.5688  1.2723 -1.9217
 8856TIP3   OH248058   0.346   3.094  14.249 -0.4739 -0.7796  0.5278
 8856TIP3    H148059   0.333   3.022  14.187 -2.9863 -2.7888  3.1378
 8856TIP3    H248060   0.266   3.147  14.241 -1.5503 -1.8958  2.8937
 8857TIP3   OH248061   3.679   1.241   2.374  0.3035  0.2133 -0.0173
 8857TIP3    H148062   3.743   1.270   2.439  1.7668 -0.5008 -1.0993
 8857TIP3    H248063   3.597   1.281   2.403  0.8144 -0.3623  2.4659
 8858TIP3   OH248064   1.277   4.584  15.058  0.6120  0.3639 -0.7763
 8858TIP3    H148065   1.351   4.571  15.117  1.4326  2.0109 -1.3731
 8858TIP3    H248066   1.313   4.571  14.970 -0.6582 -2.3617 -1.0150
 8859TIP3   OH248067   2.053   4.076  14.894  0.0493 -0.1864  0.4991
 8859TIP3    H148068   2.006   4.150  14.855 -0.0230  0.5641  1.9659
 8859TIP3    H248069   1.998   4.000  14.874 -0.5244  0.3267  0.0729
 8860TIP3   OH248070   0.643   3.857   1.510  0.3291 -0.0042 -0.1998
 8860TIP3    H148071   0.691   3.815   1.582  0.0138 -1.4272 -0.7988
 8860TIP3    H248072   0.571   3.798   1.491 -0.2912  0.9497 -0.9071
 8861TIP3   OH248073   6.608   2.846   2.157 -0.1232  0.6431  0.2379
 8861TIP3    H148074   6.515   2.822   2.157 -0.3351  1.4115 -0.9774
 8861TIP3    H248075   6.618   2.904   2.082  1.1223  1.4537  0.9963
 8862TIP3   OH248076   6.194   6.345   1.644 -0.5671 -0.4131 -0.3235
 8862TIP3    H148077   6.261   6.291   1.602 -0.0357 -0.0154  0.0029
 8862TIP3    H248078   6.125   6.282   1.667 -1.1257 -0.5660 -2.2280
 8863TIP3   OH248079   0.603   0.971  13.596 -0.1689  0.4131 -0.2757
 8863TIP3    H148080   0.632   0.929  13.676 -0.1916  0.6887 -0.1206
 8863TIP3    H248081   0.546   0.906  13.554 -0.4320  0.3967  0.0985
 8864TIP3   OH248082   5.016   5.233  11.317 -0.2096  0.2862  0.5227
 8864TIP3    H148083   5.019   5.268  11.228  1.6097  0.7360  0.7153
 8864TIP3    H248084   5.108   5.225  11.343 -0.6221 -2.2707  1.4392
 8865TIP3   OH248085   6.150   4.283   2.366 -0.1393  0.2518  0.0448
 8865TIP3    H148086   6.206   4.318   2.296 -1.5296 -0.8157 -1.6826
 8865TIP3    H248087   6.143   4.190   2.346 -0.6538 -0.0595  1.5858
 8866TIP3   OH248088   0.421   0.005  13.044 -0.2574  0.6100 -0.2854
 8866TIP3    H148089   0.354  -0.044  13.091 -1.0713  1.7185 -0.2403
 8866TIP3    H248090   0.404  -0.015  12.951 -0.7134  0.9324 -0.2787
 8867TIP3   OH248091   1.902   3.827   3.578 -0.1696 -0.5383 -0.0088
 8867TIP3    H148092   1.983   3.825   3.629  0.1691  0.8644 -0.4189
 8867TIP3    H248093   1.832   3.828   3.643  0.0348 -3.2128  0.3429
 8868TIP3   OH248094   2.216   1.859   6.585 -0.2972 -0.0871 -0.1231
 8868TIP3    H148095   2.246   1.921   6.651  0.1580  0.0246 -0.4313
 8868TIP3    H248096   2.168   1.912   6.522  0.8554  0.1129 -0.8656
 8869TIP3   OH248097   2.941   2.369  15.048 -0.0046 -0.1808  0.5940
 8869TIP3    H148098   2.860   2.417  15.068 -0.1168 -0.2527  0.3232
 8869TIP3    H248099   2.940   2.361  14.952  0.5017  0.1304  0.5614
 8870TIP3   OH248100   2.165   1.914   0.985 -0.4892 -0.7945 -0.0964
 8870TIP3    H148101   2.192   1.883   0.898  0.3353 -0.4024  0.0074
 8870TIP3    H248102   2.110   1.843   1.019 -0.3179 -1.2268 -0.6930
 8871TIP3   OH248103   0.940   6.159   5.955  0.4297 -0.0469 -0.6678
 8871TIP3    H148104   0.890   6.230   5.915  0.0995 -0.5769 -1.2086
 8871TIP3    H248105   0.933   6.087   5.893 -1.0516 -1.2771  0.8345
 8872TIP3   OH248106   6.465   0.764   2.473  0.1856  0.6035 -0.3165
 8872TIP3    H148107   6.494   0.709   2.546 -1.1829  1.1546  0.6977
 8872TIP3    H248108   6.537   0.826   2.459 -0.2099  1.6826  1.8556
 8873TIP3   OH248109   5.815   6.270  12.961 -0.1914  0.2706  0.0018
 8873TIP3    H148110   5.871   6.211  13.012 -1.7705 -0.3809  1.0622
 8873TIP3    H248111   5.727   6.234  12.971 -1.1064  2.3710  0.0062
 8874TIP3   OH248112   4.530   3.356  10.737 -0.1500 -0.1221  0.3487
 8874TIP3    H148113   4.473   3.432  10.729 -0.0162  0.2709  2.4909
 8874TIP3    H248114   4.612   3.390  10.771  1.1358 -0.8091 -1.8881
 8875TIP3   OH248115   6.110   4.920  13.982 -0.7428 -0.3367 -0.6366
 8875TIP3    H148116   6.019   4.893  13.995 -0.7050 -0.2862 -0.2702
 8875TIP3    H248117   6.105   4.992  13.919 -0.9783 -0.1625 -0.4205
 8876TIP3   OH248118   2.786   4.695   2.574 -0.6163  0.7099  0.3376
 8876TIP3    H148119   2.692   4.692   2.559 -0.6779  1.0190  0.6520
 8876TIP3    H248120   2.811   4.785   2.554 -0.3144  0.5182 -0.1660
 8877TIP3   OH248121   1.573   3.115   1.951 -0.2939  0.0415 -0.4196
 8877TIP3    H148122   1.646   3.143   2.007 -1.6892 -0.5023  1.8256
 8877TIP3    H248123   1.539   3.197   1.914 -0.3391  0.6621  0.9013
 8878TIP3   OH248124   6.548   2.754   3.613  0.0377  0.2215  0.4662
 8878TIP3    H148125   6.492   2.691   3.659  1.1114 -0.8128  0.4002
 8878TIP3    H248126   6.560   2.716   3.526  0.9765  0.3380  0.5395
 8879TIP3   OH248127   2.720   2.597   6.804  0.0892 -0.0085 -0.3177
 8879TIP3    H148128   2.698   2.681   6.764 -0.8937 -0.6108 -1.0779
 8879TIP3    H248129   2.652   2.583   6.870  1.0442  0.4332  0.7941
 8880TIP3   OH248130   6.037   6.536  11.903  0.2117 -0.1796  0.0824
 8880TIP3    H148131   5.945   6.558  11.920  0.8632  2.1004  1.0714
 8880TIP3    H248132   6.045   6.537  11.808 -0.9083 -1.0696 -0.0420
 8881TIP3   OH248133   3.401   1.493  16.980  0.1801 -0.1514  0.3716
 8881TIP3    H148134   3.476   1.548  16.960 -0.2941  0.2695 -0.3163
 8881TIP3    H248135   3.399   1.427  16.910 -0.5189  0.3069 -0.0617
 8882TIP3   OH248136   1.538   3.447   5.736  0.0114  0.2620 -0.2013
 8882TIP3    H148137   1.496   3.533   5.730 -1.2582 -0.4032 -1.4479
 8882TIP3    H248138   1.616   3.463   5.790  0.4977  2.4538 -1.4038
 8883TIP3   OH248139   5.303   6.259   0.149 -0.6413  0.1888  0.7726
 8883TIP3    H148140   5.242   6.194   0.184 -0.9841  0.3513  0.4801
 8883TIP3    H248141   5.320   6.230   0.059 -1.0274  0.6680  0.5424
 8884TIP3   OH248142   4.314   5.670   4.601 -0.5836  0.1521 -0.7068
 8884TIP3    H148143   4.387   5.696   4.545  1.3341 -1.0070  1.0664
 8884TIP3    H248144   4.283   5.752   4.640  2.2905  0.4651  1.2791
 8885TIP3   OH248145   4.406   5.211   3.270  0.2619 -0.2325 -0.1041
 8885TIP3    H148146   4.369   5.166   3.346 -0.5048  0.7569  0.1299
 8885TIP3    H248147   4.498   5.187   3.271 -0.2475 -2.4236 -0.4540
 8886TIP3   OH248148   2.501   3.558   5.051 -0.1120  0.1368  0.0151
 8886TIP3    H148149   2.422   3.512   5.023 -0.7619  1.5709 -0.6035
 8886TIP3    H248150   2.548   3.577   4.971  0.4285  0.0547  0.3100
 8887TIP3   OH248151   2.456   1.827  13.021 -0.2374 -0.0600 -0.1958
 8887TIP3    H148152   2.369   1.866  13.015 -1.0408 -1.6042  0.6831
 8887TIP3    H248153   2.510   1.894  13.063 -1.1480  0.6995 -0.2150
 8888TIP3   OH248154   2.404   0.672  16.441 -0.1815  0.5531  0.4763
 8888TIP3    H148155   2.357   0.590  16.421 -1.3253  0.8147  1.9010
 8888TIP3    H248156   2.344   0.741  16.411  2.0378  1.0163 -3.6002
 8889TIP3   OH248157   4.156   3.826   3.532 -0.9397  0.0993  0.7654
 8889TIP3    H148158   4.132   3.776   3.455  0.8618  0.9101 -0.3898
 8889TIP3    H248159   4.096   3.796   3.600  0.2862 -3.8904  0.2903
 8890TIP3   OH248160   0.449   4.192   4.901  0.0064 -0.1817  0.1857
 8890TIP3    H148161   0.489   4.154   4.978 -1.1059  0.8600  1.3206
 8890TIP3    H248162   0.363   4.151   4.895  0.1350 -0.3649 -0.5939
 8891TIP3   OH248163   1.972   6.099   2.800 -0.1568 -0.3243  0.6655
 8891TIP3    H148164   1.983   6.186   2.762 -2.4301  0.1367  0.8889
 8891TIP3    H248165   2.027   6.042   2.747  1.2077  1.2021  0.3712
 8892TIP3   OH248166   3.557   5.214  12.470  0.3670  0.5076 -0.1408
 8892TIP3    H148167   3.572   5.308  12.462  0.9478  0.5002  0.7240
 8892TIP3    H248168   3.645   5.176  12.475  0.1282  0.0081  0.4321
 8893TIP3   OH248169   1.296   2.038   1.428  0.3747  0.0156 -0.3121
 8893TIP3    H148170   1.295   1.951   1.468 -1.4141  0.5913  1.0497
 8893TIP3    H248171   1.205   2.068   1.433  1.0372  2.2078 -0.2017
 8894TIP3   OH248172   5.386   1.277  15.143  0.6190 -0.1960 -0.4231
 8894TIP3    H148173   5.291   1.277  15.131  0.6555 -0.3525 -0.7362
 8894TIP3    H248174   5.413   1.365  15.115  0.3750  0.4931  1.3688
 8895TIP3   OH248175   0.235   3.913  11.354  0.1952 -0.2918  0.0416
 8895TIP3    H148176   0.228   3.839  11.415 -2.2436 -1.0626 -1.0434
 8895TIP3    H248177   0.326   3.911  11.325  0.3067 -2.6625  0.3234
 8896TIP3   OH248178   6.213   3.017  16.397 -0.3391 -0.1644 -0.1058
 8896TIP3    H148179   6.227   3.040  16.305  0.1847  1.4446  0.3343
 8896TIP3    H248180   6.265   3.081  16.446  1.0815 -2.2370  1.2842
 8897TIP3   OH248181   0.350   4.645  10.724  0.2548  0.4514 -0.1009
 8897TIP3    H148182   0.334   4.663  10.631 -1.4388  1.1824  0.2831
 8897TIP3    H248183   0.444   4.634  10.730  0.6011  1.9893 -1.6564
 8898TIP3   OH248184   3.857   4.249  17.030 -0.0772 -0.7313 -0.2508
 8898TIP3    H148185   3.766   4.223  17.045  0.3002 -1.2645  1.2375
 8898TIP3    H248186   3.862   4.338  17.065 -0.3261 -0.1749 -1.5501
 8899TIP3   OH248187   5.353   3.261   5.924  0.0320 -0.3491  0.2525
 8899TIP3    H148188   5.405   3.215   5.857 -0.6179 -0.9981  0.1762
 8899TIP3    H248189   5.350   3.200   5.998 -0.1379 -0.0725  0.4773
 8900TIP3   OH248190   3.813   4.641   3.515 -0.5899  0.0409  0.1319
 8900TIP3    H148191   3.721   4.631   3.539 -1.2764 -2.2006 -2.8197
 8900TIP3    H248192   3.850   4.554   3.525  1.1941  0.8470  0.9655
 8901TIP3   OH248193   5.635   4.799   4.223 -0.1404  0.3814 -0.0533
 8901TIP3    H148194   5.682   4.770   4.301 -0.3768 -0.2250 -0.1295
 8901TIP3    H248195   5.560   4.848   4.257  0.7874  1.7938  0.0634
 8902TIP3   OH248196   0.992   4.478  15.879 -0.1590  0.7387  0.2296
 8902TIP3    H148197   1.033   4.562  15.857 -1.3771  1.3140  0.0290
 8902TIP3    H248198   0.912   4.477  15.826  0.3398 -1.0296 -0.5572
 8903TIP3   OH248199   6.693   2.057  14.942  0.5009 -0.1543 -0.2467
 8903TIP3    H148200   6.726   2.030  14.857 -1.1322 -1.3533 -0.5512
 8903TIP3    H248201   6.602   2.027  14.943  0.5119 -0.2688  1.9566
 8904TIP3   OH248202   4.344   1.422   0.007  0.3292  0.1890 -0.1634
 8904TIP3    H148203   4.303   1.349  -0.040  1.6521  0.6867 -2.1986
 8904TIP3    H248204   4.437   1.403   0.005  0.5387  0.9352  1.1528
 8905TIP3   OH248205   4.620   0.271  14.419  0.4521  0.1442 -0.5075
 8905TIP3    H148206   4.627   0.309  14.507  1.3935  0.5028 -0.7266
 8905TIP3    H248207   4.541   0.217  14.423  2.0040 -2.2731  1.5085
 8906TIP3   OH248208   1.418   2.231   4.652  0.1028  0.3158 -1.1696
 8906TIP3    H148209   1.483   2.175   4.611 -0.8778 -2.0420  0.2845
 8906TIP3    H248210   1.349   2.240   4.587  0.4315  0.1530 -1.5407
 8907TIP3   OH248211   4.281   5.375  12.138 -0.4786  0.1022  0.1216
 8907TIP3    H148212   4.242   5.331  12.214 -1.6619  0.5709 -0.1888
 8907TIP3    H248213   4.230   5.456  12.129  1.0793  1.1334  0.1595
 8908TIP3   OH248214   5.830   0.118   3.213 -0.3658 -0.1160  0.2002
 8908TIP3    H148215   5.904   0.089   3.267  0.1617 -0.3104 -0.6233
 8908TIP3    H248216   5.776   0.039   3.204  0.4003 -0.5282 -0.9405
 8909TIP3   OH248217   3.618   3.691   2.820 -0.2046 -0.1412 -0.0610
 8909TIP3    H148218   3.678   3.725   2.753 -0.7004 -0.7203 -0.8047
 8909TIP3    H248219   3.542   3.749   2.815  0.2834  0.6235  0.9178
 8910TIP3   OH248220   3.925   2.315   4.318 -0.2500 -0.0509 -0.0934
 8910TIP3    H148221   3.902   2.399   4.357  3.8160  0.7205  1.1030
 8910TIP3    H248222   3.905   2.325   4.225 -1.3999  1.6029  0.2937
 8911TIP3   OH248223   0.262   5.654  16.658  0.4111 -0.0566  0.1011
 8911TIP3    H148224   0.290   5.666  16.567 -0.8900  2.2856 -0.0646
 8911TIP3    H248225   0.167   5.664  16.656 -0.0200 -2.8656  1.3630
 8912TIP3   OH248226   5.657   5.883  15.814 -0.1057  0.7022 -0.0898
 8912TIP3    H148227   5.586   5.921  15.763  0.1498 -0.6133 -1.5225
 8912TIP3    H248228   5.676   5.799  15.771  2.7753  1.2889 -0.1986
 8913TIP3   OH248229   5.989   3.735   4.901  0.4258  0.0999 -0.2620
 8913TIP3    H148230   5.907   3.710   4.943  0.2904  1.7866  0.5481
 8913TIP3    H248231   5.964   3.801   4.837  0.9924 -0.4097 -1.0331
 8914TIP3   OH248232   4.255   1.205   1.453 -0.2453  0.2103  0.3461
 8914TIP3    H148233   4.332   1.247   1.491 -0.0694  0.3051 -0.1146
 8914TIP3    H248234   4.211   1.166   1.528  1.6114 -2.0843  0.3736
 8915TIP3   OH248235   4.230   6.533   4.502 -0.0993 -0.0044 -0.2957
 8915TIP3    H148236   4.323   6.547   4.521 -0.3480  0.2222  0.8373
 8915TIP3    H248237   4.216   6.439   4.515  0.0624 -0.1219 -0.9329
 8916TIP3   OH248238   6.106   4.477  13.820  0.0353 -0.3734 -0.1703
 8916TIP3    H148239   6.188   4.478  13.771  0.3433  0.2651  0.3404
 8916TIP3    H248240   6.081   4.569  13.825 -0.5201 -0.5316  0.0047
 8917TIP3   OH248241   2.630   4.453  14.205  0.6265 -0.3914 -0.2856
 8917TIP3    H148242   2.548   4.491  14.238  1.1857 -0.1585  0.8613
 8917TIP3    H248243   2.659   4.515  14.138  0.4671  0.1460  0.1314
 8918TIP3   OH248244   0.440   4.385  15.031  0.0223 -0.2288 -0.0915
 8918TIP3    H148245   0.407   4.356  14.946 -0.6701  1.3067 -0.3702
 8918TIP3    H248246   0.534   4.366  15.028  0.2344  0.9182 -1.6947
 8919TIP3   OH248247   3.384   0.898  16.923  0.1363 -0.0096 -0.6168
 8919TIP3    H148248   3.441   0.822  16.936  0.9443  0.8698  1.3106
 8919TIP3    H248249   3.296   0.861  16.913  0.6035 -1.2287 -0.3236
 8920TIP3   OH248250   1.065   5.941  12.675 -0.0190 -0.7131 -0.3706
 8920TIP3    H148251   1.022   5.855  12.682 -0.5371 -0.3823  0.7636
 8920TIP3    H248252   1.092   5.947  12.583 -1.3472 -1.4364 -0.8330
 8921TIP3   OH248253   3.444   6.694  15.945  0.3750  0.1758 -0.5384
 8921TIP3    H148254   3.501   6.620  15.968 -0.8038 -0.5613  0.0965
 8921TIP3    H248255   3.387   6.705  16.020 -1.2474 -0.0089 -1.6924
 8922TIP3   OH248256   0.393   5.021   4.467  0.4321 -0.5614 -0.2025
 8922TIP3    H148257   0.381   5.115   4.465 -0.4440 -0.6862 -1.3849
 8922TIP3    H248258   0.306   4.985   4.484  1.0947 -1.1260  2.5779
 8923TIP3   OH248259   6.335   5.599  13.326 -0.0621 -0.2344 -0.1118
 8923TIP3    H148260   6.405   5.596  13.391 -1.5888 -0.2908  1.5825
 8923TIP3    H248261   6.296   5.512  13.328  0.4854 -0.5741 -1.8831
 8924TIP3   OH248262   4.694   2.883   1.928  0.0714  0.5213  0.3257
 8924TIP3    H148263   4.623   2.935   1.890  0.3722  0.4324 -0.3798
 8924TIP3    H248264   4.660   2.854   2.013 -0.6066  0.7525  0.1390
 8925TIP3   OH248265   5.643   3.904  15.582  0.1408  0.1896  0.1416
 8925TIP3    H148266   5.674   3.895  15.492  3.4767  0.6387  1.1143
 8925TIP3    H248267   5.658   3.817  15.621  0.8549  0.5935  0.8059
 8926TIP3   OH248268   2.670   2.202  13.441  0.1287 -0.5878  0.5262
 8926TIP3    H148269   2.610   2.129  13.458  0.5468 -1.3074 -0.8804
 8926TIP3    H248270   2.638   2.273  13.496 -1.5788 -1.1785  0.3513
 8927TIP3   OH248271   5.424   3.353  17.262  0.3308 -0.0622  0.2927
 8927TIP3    H148272   5.341   3.349  17.311 -0.5182 -0.2604 -1.1152
 8927TIP3    H248273   5.468   3.271  17.283 -0.9171 -1.0389 -0.7857
 8928TIP3   OH248274   0.189   2.262   0.969  0.2615 -0.4861  0.0625
 8928TIP3    H148275   0.145   2.182   0.938  0.6776 -0.7248  0.0850
 8928TIP3    H248276   0.117   2.322   0.988 -0.0601 -0.8630  0.0659
 8929TIP3   OH248277   3.815   4.060   7.160 -0.7010  1.0152 -0.5268
 8929TIP3    H148278   3.786   4.094   7.076 -0.0530  2.0123 -0.3575
 8929TIP3    H248279   3.896   4.106   7.178 -0.7771  0.7319  0.6011
 8930TIP3   OH248280   0.847   2.935  14.071  0.0350  0.1386  0.2224
 8930TIP3    H148281   0.802   2.930  13.987  1.3579 -0.4387 -0.4953
 8930TIP3    H248282   0.932   2.974  14.050 -0.5584  2.4078  1.7277
 8931TIP3   OH248283   1.403   3.226  15.402  0.2924 -0.0298  0.5323
 8931TIP3    H148284   1.408   3.157  15.468  0.4889 -0.4206  0.1128
 8931TIP3    H248285   1.418   3.181  15.319 -0.9953  0.2882  0.1053
 8932TIP3   OH248286   3.986   1.250   6.006  0.5911 -0.6003  0.5751
 8932TIP3    H148287   4.002   1.158   5.986  4.2661 -0.2675  1.1998
 8932TIP3    H248288   3.972   1.291   5.921 -1.8110 -1.7287  0.3375
 8933TIP3   OH248289   6.458   1.699   1.858  0.0382 -0.1077  0.0538
 8933TIP3    H148290   6.400   1.638   1.903 -0.4549  0.5284  0.2957
 8933TIP3    H248291   6.448   1.781   1.906 -0.7583  0.6854 -1.3880
 8934TIP3   OH248292   0.270   0.861   3.152  0.3042  0.0211 -0.4560
 8934TIP3    H148293   0.334   0.906   3.208  0.4993 -0.5554 -0.2071
 8934TIP3    H248294   0.186   0.903   3.174  0.6730  1.2220 -1.2520
 8935TIP3   OH248295   1.137   3.111  16.777 -0.4141  0.4119 -0.0608
 8935TIP3    H148296   1.147   3.206  16.780  0.3892  0.4079 -1.6227
 8935TIP3    H248297   1.115   3.086  16.867 -0.5475  2.0544  0.3906
 8936TIP3   OH248298   5.304   6.166  12.535 -0.4491  0.2773 -0.0526
 8936TIP3    H148299   5.209   6.173  12.527 -0.3076  1.7586 -0.7016
 8936TIP3    H248300   5.331   6.118  12.457 -0.5751  0.8181 -0.4360
 8937TIP3   OH248301   2.034   4.916  12.440  0.3588  0.1105  0.1360
 8937TIP3    H148302   2.107   4.937  12.382 -1.0935 -1.4164 -2.4080
 8937TIP3    H248303   2.052   4.826  12.468  0.7917  0.6666  1.7654
 8938TIP3   OH248304   0.019   2.867   0.891 -0.2410 -0.0242 -0.4696
 8938TIP3    H148305   0.105   2.897   0.864  0.3353 -1.0664  0.1292
 8938TIP3    H248306  -0.021   2.943   0.934  1.3266 -0.1738  1.3632
 8939TIP3   OH248307   1.258   1.302  11.832 -0.1733 -0.2559  0.6927
 8939TIP3    H148308   1.314   1.345  11.896 -0.1013 -0.8166  1.0169
 8939TIP3    H248309   1.251   1.211  11.863  0.6697 -0.7989 -0.6008
 8940TIP3   OH248310   4.683   1.932  14.127 -0.0396 -0.3121 -0.2258
 8940TIP3    H148311   4.599   1.912  14.169 -0.0992  1.8394  0.8265
 8940TIP3    H248312   4.739   1.857  14.148 -0.6916 -0.2376  2.0359
 8941TIP3   OH248313   5.672   2.611  17.615  0.1884 -0.1028  0.1216
 8941TIP3    H148314   5.610   2.545  17.585 -1.3310  1.4304 -0.2451
 8941TIP3    H248315   5.643   2.632  17.704  0.2693  0.5035  0.0111
 8942TIP3   OH248316   0.042   3.287  15.153 -0.2019 -0.5212 -0.0216
 8942TIP3    H148317   0.133   3.316  15.144 -0.4733  0.1792 -0.6282
 8942TIP3    H248318   0.020   3.303  15.245  0.6615 -1.8401  0.4346
 8943TIP3   OH248319   2.021   2.994  14.381  0.2345  0.0994 -0.1571
 8943TIP3    H148320   2.055   3.015  14.469 -1.2945 -0.7205  0.6702
 8943TIP3    H248321   2.015   3.079  14.337 -1.3566  0.8797  1.4391
 8944TIP3   OH248322   6.595   0.149   3.632 -0.6226  0.5628 -0.4483
 8944TIP3    H148323   6.576   0.242   3.645  0.7532  0.7192  0.5986
 8944TIP3    H248324   6.628   0.119   3.716  0.3782 -0.5060 -1.1883
 8945TIP3   OH248325   5.355   2.530  16.345  0.3478 -0.4850 -0.0838
 8945TIP3    H148326   5.295   2.513  16.273 -2.3986 -1.5540  2.2776
 8945TIP3    H248327   5.367   2.625  16.345 -0.3315 -0.3870 -1.3771
 8946TIP3   OH248328   1.759   6.133   1.954 -0.1149  0.4666 -0.3392
 8946TIP3    H148329   1.810   6.090   1.885 -0.9872  0.7787 -1.2020
 8946TIP3    H248330   1.676   6.087   1.954  0.8710 -1.6115  2.6602
 8947TIP3   OH248331   1.065   0.790   3.345 -0.0339  0.0588  0.0784
 8947TIP3    H148332   1.125   0.862   3.366 -1.0821  0.8619  0.3507
 8947TIP3    H248333   0.982   0.814   3.385 -0.6632 -0.8548 -0.6258
 8948TIP3   OH248334   1.636   6.046  11.563 -0.2381  0.0844 -0.2048
 8948TIP3    H148335   1.699   6.003  11.505 -0.5499 -1.3954  0.5048
 8948TIP3    H248336   1.616   6.129  11.520  1.3132  0.0665 -1.0157
 8949TIP3   OH248337   6.027   4.626  15.091 -0.0260 -0.3787 -0.2514
 8949TIP3    H148338   6.030   4.652  14.999  1.6872  2.0460  0.3742
 8949TIP3    H248339   6.119   4.610  15.114 -0.3193 -0.0685  1.2263
 8950TIP3   OH248340   0.265   5.615   2.535  0.3352  0.2525  0.2943
 8950TIP3    H148341   0.290   5.533   2.492 -1.1633 -0.7278  1.2425
 8950TIP3    H248342   0.299   5.607   2.624  2.0779  1.6314 -0.1788
 8951TIP3   OH248343   1.060   4.588  14.729 -0.2618  0.4077 -0.5299
 8951TIP3    H148344   1.021   4.655  14.673 -1.9231  0.2665  0.4166
 8951TIP3    H248345   1.054   4.507  14.677 -0.5850  0.5224 -0.6712
 8952TIP3   OH248346   0.449   6.721  17.381 -0.0942  0.4526 -0.3708
 8952TIP3    H148347   0.397   6.645  17.408 -0.0925  0.0819 -1.3513
 8952TIP3    H248348   0.518   6.684  17.326 -0.0537  1.1575 -0.8065
 8953TIP3   OH248349   2.841   5.811  14.983 -0.3926  0.7261  0.5807
 8953TIP3    H148350   2.761   5.847  15.021 -0.3762 -0.1161  1.4460
 8953TIP3    H248351   2.810   5.752  14.914 -0.8869 -3.0109  3.6469
 8954TIP3   OH248352   6.234   3.526  15.732  0.4694 -0.0060 -0.2476
 8954TIP3    H148353   6.288   3.605  15.722  1.8282 -0.7646  0.7702
 8954TIP3    H248354   6.151   3.559  15.769  0.6260  1.0573 -0.7985
 8955TIP3   OH248355   1.658   5.981   6.026  0.4324  0.4093 -0.5248
 8955TIP3    H148356   1.630   5.890   6.012  1.5360  0.1917 -1.4825
 8955TIP3    H248357   1.588   6.034   5.990 -0.2744 -0.0499  0.1303
 8956TIP3   OH248358   5.611   3.742   2.900  0.2990 -0.4866  0.1988
 8956TIP3    H148359   5.649   3.662   2.862  1.2569  0.0115  0.0922
 8956TIP3    H248360   5.572   3.713   2.982 -1.7589 -1.5792 -1.0719
 8957TIP3   OH248361   0.965   4.278   1.298 -0.1704 -0.1521 -0.2804
 8957TIP3    H148362   0.980   4.189   1.331  0.7713 -0.4015 -1.3251
 8957TIP3    H248363   0.982   4.272   1.204 -2.5745  0.5837 -0.8184
 8958TIP3   OH248364   3.884   0.141  11.341 -0.0354 -0.0121 -0.5923
 8958TIP3    H148365   3.962   0.102  11.380  0.0814  0.4285 -0.3750
 8958TIP3    H248366   3.886   0.113  11.250  0.5562  0.2678 -0.6700
 8959TIP3   OH248367   6.733   5.307  17.442  0.7574 -0.1409 -0.1293
 8959TIP3    H148368   6.789   5.270  17.510  0.6523 -0.4032 -0.1839
 8959TIP3    H248369   6.677   5.369  17.488 -1.0221 -2.1068  0.4796
 8960TIP3   OH248370   6.500   0.667  12.636 -0.2150  0.2016  0.1960
 8960TIP3    H148371   6.492   0.692  12.544 -1.0777  0.5993  0.3738
 8960TIP3    H248372   6.435   0.598  12.648 -0.5648  0.6171  0.6734
 8961TIP3   OH248373   1.540   0.818  16.213  0.0747 -0.6059 -0.1594
 8961TIP3    H148374   1.565   0.910  16.226  0.3683 -0.7650  0.4541
 8961TIP3    H248375   1.498   0.794  16.296 -0.5374 -0.8541 -0.5363
 8962TIP3   OH248376   1.523   1.638   4.328 -0.3250 -0.0481  0.1081
 8962TIP3    H148377   1.533   1.723   4.285 -0.3595 -0.5879 -1.0160
 8962TIP3    H248378   1.578   1.644   4.406 -0.1781  0.9367 -0.0577
 8963TIP3   OH248379   1.907   3.149   4.901  0.3517 -0.5199  0.1359
 8963TIP3    H148380   1.890   3.054   4.902  0.5301 -0.5761 -0.8209
 8963TIP3    H248381   1.821   3.188   4.888  0.5531 -0.6908 -2.1137
 8964TIP3   OH248382   4.628   5.352   3.490 -0.0130  0.1567  1.0005
 8964TIP3    H148383   4.705   5.404   3.468 -0.3757  0.3935  0.2521
 8964TIP3    H248384   4.553   5.406   3.464 -0.3823 -1.6005 -2.0622
 8965TIP3   OH248385   4.055   4.106  17.172  0.2261  0.2810  0.4703
 8965TIP3    H148386   4.018   4.136  17.089  2.3263 -1.7916 -1.3739
 8965TIP3    H248387   4.042   4.179  17.232 -1.4209  1.8615 -1.6378
 8966TIP3   OH248388   2.268   1.206   6.117  0.2157  0.4059 -0.3346
 8966TIP3    H148389   2.299   1.121   6.150 -0.2941  0.1685 -0.4712
 8966TIP3    H248390   2.340   1.266   6.137 -0.8052  0.7261  3.0939
 8967TIP3   OH248391   3.483   2.943   6.302 -0.1103 -0.0142 -0.1642
 8967TIP3    H148392   3.449   2.961   6.214  0.7406  3.3449  0.0533
 8967TIP3    H248393   3.405   2.930   6.355 -0.8032  1.1913 -0.8454
 8968TIP3   OH248394   4.207   2.152  17.158  0.9492  0.1986  0.9558
 8968TIP3    H148395   4.214   2.059  17.180  0.7772 -0.0581 -0.0535
 8968TIP3    H248396   4.119   2.176  17.187 -0.5099 -0.9163 -2.0982
 8969TIP3   OH248397   1.798   1.370  15.783 -0.5150 -0.5589  0.4413
 8969TIP3    H148398   1.866   1.317  15.742  0.9278  0.8367  0.9549
 8969TIP3    H248399   1.786   1.330  15.870  2.0814  1.1006  1.6623
 8970TIP3   OH248400   4.276   6.692   3.046 -0.1474 -0.1544 -0.4139
 8970TIP3    H148401   4.317   6.606   3.038 -0.4684 -0.4741  1.0881
 8970TIP3    H248402   4.209   6.681   3.113 -0.1495  1.2912 -0.1381
 8971TIP3   OH248403   4.826   5.302  14.792 -0.4305 -0.0792  0.0678
 8971TIP3    H148404   4.809   5.217  14.834 -2.4084  0.1893 -0.1409
 8971TIP3    H248405   4.918   5.296  14.765  0.0420 -1.4087  1.7539
 8972TIP3   OH248406   3.622   4.231  13.533  0.0261  0.0394 -0.1213
 8972TIP3    H148407   3.648   4.307  13.481 -1.1965  0.5276 -0.0476
 8972TIP3    H248408   3.545   4.260  13.581 -0.1821 -1.1080  0.2625
 8973TIP3   OH248409   1.984   6.464   4.601  0.2039 -0.3007  0.0198
 8973TIP3    H148410   1.900   6.508   4.596  1.3841  2.3804  1.3862
 8973TIP3    H248411   2.039   6.509   4.536  0.4662 -2.4555 -1.3419
 8974TIP3   OH248412   2.539   0.531   3.029  0.7567 -0.4621  0.9122
 8974TIP3    H148413   2.467   0.478   3.065 -0.5498  0.7802  0.2262
 8974TIP3    H248414   2.559   0.593   3.099  1.8584 -1.4187  1.4743
 8975TIP3   OH248415   6.737   0.493  12.688 -0.2070 -0.3211  0.8969
 8975TIP3    H148416   6.757   0.518  12.778 -0.5789  0.3394  0.8059
 8975TIP3    H248417   6.671   0.557  12.659  0.0253 -0.4194  0.1089
 8976TIP3   OH248418   0.708   5.289  16.230  0.2982  0.0098 -0.2351
 8976TIP3    H148419   0.763   5.310  16.154  0.7369  4.4722  1.0541
 8976TIP3    H248420   0.769   5.249  16.292  0.5513 -1.0946 -1.1559
 8977TIP3   OH248421   2.394   5.415  14.054  0.5874 -0.7297  0.2919
 8977TIP3    H148422   2.369   5.354  14.124 -1.0211 -0.6248 -0.1388
 8977TIP3    H248423   2.436   5.360  13.988 -0.4254 -1.3309  0.1150
 8978TIP3   OH248424   5.020   1.836   2.301  0.0366 -0.0952  0.2080
 8978TIP3    H148425   5.099   1.875   2.338  2.3515 -2.4801 -1.8601
 8978TIP3    H248426   4.998   1.892   2.227  1.1267 -0.5826 -0.5076
 8979TIP3   OH248427   1.564   1.672   1.157 -0.7583  0.4020 -0.5451
 8979TIP3    H148428   1.573   1.577   1.168 -0.7453  0.1490 -2.4101
 8979TIP3    H248429   1.652   1.703   1.138 -1.0901  0.4263 -2.1662
 8980TIP3   OH248430   3.554   4.617   5.338  0.3011  0.2441 -0.4042
 8980TIP3    H148431   3.640   4.606   5.297  1.0011  3.3089 -0.0024
 8980TIP3    H248432   3.568   4.587   5.428  0.8783  0.4357 -0.4222
 8981TIP3   OH248433   5.653   4.821  11.692  0.1940  0.6398  0.6906
 8981TIP3    H148434   5.707   4.832  11.771 -1.8320  2.6532  1.9313
 8981TIP3    H248435   5.582   4.884  11.703 -1.8619 -1.1393 -1.3273
 8982TIP3   OH248436   4.015   1.414   5.786 -0.6237 -0.2664 -0.2208
 8982TIP3    H148437   4.105   1.448   5.785 -0.8188  0.2948  0.3103
 8982TIP3    H248438   3.987   1.417   5.695 -0.0677 -0.5453 -0.4054
 8983TIP3   OH248439   1.791   4.995   5.392 -0.6336  0.0205  0.4233
 8983TIP3    H148440   1.726   5.062   5.414 -1.3978 -1.0097  1.4075
 8983TIP3    H248441   1.799   4.943   5.471  1.3328  0.0359  0.2862
 8984TIP3   OH248442   3.352   0.872  12.418  0.0306 -0.1725 -0.3467
 8984TIP3    H148443   3.267   0.842  12.388 -0.2628 -0.2326  0.5010
 8984TIP3    H248444   3.371   0.951  12.366 -0.4728 -0.2455 -0.6368
 8985TIP3   OH248445   3.013   4.386   3.635 -0.1694 -0.4386 -0.3784
 8985TIP3    H148446   2.992   4.304   3.681  1.3124 -0.9888 -0.6379
 8985TIP3    H248447   3.069   4.359   3.563  1.5892  0.9432  0.3985
 8986TIP3   OH248448   1.273   3.066   4.937 -0.1885  0.0487  0.5717
 8986TIP3    H148449   1.272   2.988   4.992 -0.4021 -1.3192 -1.2838
 8986TIP3    H248450   1.270   3.139   4.999 -1.7446 -1.4079  2.3271
 8987TIP3   OH248451   0.622   2.667  13.604 -0.1190 -0.5250  0.1596
 8987TIP3    H148452   0.564   2.703  13.536 -1.5577 -1.9386  0.5488
 8987TIP3    H248453   0.606   2.720  13.681 -0.3365 -0.4334  0.0512
 8988TIP3   OH248454   4.231   6.271   5.657 -0.4091  0.1917 -0.0541
 8988TIP3    H148455   4.205   6.357   5.623 -1.1562 -0.2008 -0.5002
 8988TIP3    H248456   4.297   6.240   5.596 -0.2595  0.3762  0.0128
 8989TIP3   OH248457   1.564   0.893  12.740  0.2831  0.2866  0.1078
 8989TIP3    H148458   1.605   0.826  12.686  1.8629  1.4933 -0.2746
 8989TIP3    H248459   1.473   0.866  12.747  0.5278 -1.0505 -1.3523
 8990TIP3   OH248460   2.122   5.893   1.136 -0.1982  0.5907  0.0892
 8990TIP3    H148461   2.180   5.831   1.092  0.3150  0.6169  0.7169
 8990TIP3    H248462   2.085   5.946   1.066  0.1239  0.2173 -0.3622
 8991TIP3   OH248463   3.505   1.780   0.343  0.0498 -0.4775 -0.1987
 8991TIP3    H148464   3.491   1.722   0.418  1.0643  0.7883  1.0428
 8991TIP3    H248465   3.449   1.856   0.361  0.9885  0.2454 -0.2233
 8992TIP3   OH248466   6.319   0.048  15.352  0.4465 -0.6376  0.2188
 8992TIP3    H148467   6.402   0.014  15.319  0.0950 -1.1061 -0.1954
 8992TIP3    H248468   6.336   0.066  15.445  1.6768  1.4717 -0.3520
 8993TIP3   OH248469   1.827   3.342   4.221  0.5782  0.4354  0.3790
 8993TIP3    H148470   1.855   3.399   4.149  0.2080  0.5417  0.3199
 8993TIP3    H248471   1.899   3.279   4.230 -0.2870 -0.9477 -1.5385
 8994TIP3   OH248472   3.959   0.842  13.301  0.1608  0.0718 -0.8110
 8994TIP3    H148473   3.952   0.748  13.280 -1.0223 -0.1106  0.2886
 8994TIP3    H248474   3.990   0.882  13.220 -4.5180 -0.5087 -3.2527
 8995TIP3   OH248475   5.689   6.666   5.915 -0.6379  0.2622 -0.7043
 8995TIP3    H148476   5.714   6.692   5.826  0.1734  0.2880 -0.4733
 8995TIP3    H248477   5.594   6.676   5.917 -0.7127 -0.1314 -1.6996
 8996TIP3   OH248478   4.074   1.302  11.451 -0.3502  0.4238  0.0430
 8996TIP3    H148479   4.046   1.234  11.512 -3.3265  1.1229 -0.4352
 8996TIP3    H248480   4.107   1.253  11.375  2.5803 -0.4334  1.7223
 8997TIP3   OH248481   1.290   5.443  12.907  0.2553  0.0963  0.1417
 8997TIP3    H148482   1.334   5.372  12.860  1.2544  1.0139 -0.3466
 8997TIP3    H248483   1.358   5.480  12.963 -0.0691  1.1117 -0.1232
 8998TIP3   OH248484   0.381   0.185   5.939 -0.4424  0.3692  0.1795
 8998TIP3    H148485   0.361   0.243   6.013  0.3586 -0.0676  0.7486
 8998TIP3    H248486   0.375   0.096   5.976  1.1936  0.1802  0.0463
 8999TIP3   OH248487   5.984   1.981   4.362  0.2350 -0.1616  0.5723
 8999TIP3    H148488   5.929   1.926   4.307  2.3408 -1.5413 -0.2663
 8999TIP3    H248489   5.998   1.930   4.442 -1.5103  1.1668  1.8085
 9000TIP3   OH248490   0.743   6.326   2.687 -0.2523  0.5547  0.4030
 9000TIP3    H148491   0.820   6.364   2.644  0.4457 -0.5322  0.6536
 9000TIP3    H248492   0.775   6.296   2.772 -0.9601  0.1422  0.5326
 9001TIP3   OH248493   0.302   1.788  15.284 -0.0283  0.6586  0.0513
 9001TIP3    H148494   0.213   1.823  15.271  0.1456  1.3228  0.5989
 9001TIP3    H248495   0.288   1.696  15.303 -0.6675  0.9086  0.8823
 9002TIP3   OH248496   5.107   2.912  15.530 -0.5502  0.1198 -0.2149
 9002TIP3    H148497   5.200   2.893  15.547 -0.8797 -1.3364  0.1095
 9002TIP3    H248498   5.108   2.983  15.467  0.8071 -0.3589 -0.7667
 9003TIP3   OH248499   0.165   4.727   2.338  0.2299 -0.0785 -0.0965
 9003TIP3    H148500   0.227   4.661   2.308  2.2617  0.8087  1.9041
 9003TIP3    H248501   0.160   4.715   2.432 -0.8311  1.3913  0.0722
 9004TIP3   OH248502   0.228   2.475   0.795  0.0164  0.3594  0.0079
 9004TIP3    H148503   0.236   2.402   0.856 -1.1096  0.8340  0.7677
 9004TIP3    H248504   0.248   2.438   0.709  0.1294 -0.6784  0.4751
 9005TIP3   OH248505   3.726   5.909   4.121  0.6676  0.1969 -0.2005
 9005TIP3    H148506   3.665   5.983   4.109  1.3047  0.7487 -0.0928
 9005TIP3    H248507   3.797   5.945   4.174 -0.2420 -1.1852  2.0591
 9006TIP3   OH248508   1.474   1.484   3.659 -0.3727  0.4655 -0.0421
 9006TIP3    H148509   1.498   1.445   3.575 -0.4855  0.5341 -0.1047
 9006TIP3    H248510   1.404   1.545   3.639  0.4689  1.4418 -0.0946
 9007TIP3   OH248511   2.831   1.798   4.486  0.3119  0.1723  0.4775
 9007TIP3    H148512   2.858   1.775   4.397 -0.2913  1.0893  0.0342
 9007TIP3    H248513   2.839   1.894   4.489 -2.3095  0.4813  0.4692
 9008TIP3   OH248514   0.030   2.962  16.649  0.4304  0.4547  0.0494
 9008TIP3    H148515  -0.044   2.972  16.589  1.5657 -0.9843 -1.6812
 9008TIP3    H248516   0.098   3.019  16.612  0.6999  0.6187  0.7792
 9009TIP3   OH248517   1.970   1.013  15.089 -0.3600  0.0636  0.1811
 9009TIP3    H148518   1.935   1.088  15.041 -0.7657 -0.0729  0.2591
 9009TIP3    H248519   1.985   0.946  15.022  0.3113  0.3266  0.0660
 9010TIP3   OH248520   5.683   2.974  16.632  0.0016  0.0173  0.3283
 9010TIP3    H148521   5.595   2.992  16.599  0.8693  0.3381 -2.0470
 9010TIP3    H248522   5.736   3.047  16.600  0.9692  0.4658  2.7208
 9011TIP3   OH248523   3.189   1.174   3.094  0.5871 -0.1325  0.2692
 9011TIP3    H148524   3.277   1.140   3.077  1.5836  1.6653  1.5583
 9011TIP3    H248525   3.187   1.190   3.188 -1.5142 -1.1002  0.4460
 9012TIP3   OH248526   2.196   5.293   0.954 -0.1132 -0.7648  0.0128
 9012TIP3    H148527   2.191   5.235   0.878 -1.9824  0.9386 -1.2362
 9012TIP3    H248528   2.105   5.313   0.976  0.3897 -0.6417  2.3191
 9013TIP3   OH248529   3.536   2.079   6.222 -0.6232 -0.2045 -0.1347
 9013TIP3    H148530   3.526   2.174   6.223  0.4695 -0.0741 -0.4250
 9013TIP3    H248531   3.628   2.064   6.245 -0.4958 -1.1458 -1.1741
 9014TIP3   OH248532   2.914   0.721  14.277  0.4566 -0.0407  0.5510
 9014TIP3    H148533   2.878   0.634  14.298 -0.9900  0.2156 -0.6840
 9014TIP3    H248534   2.882   0.777  14.348  0.0733 -0.2124  0.5197
 9015TIP3   OH248535   2.673   6.617  14.932  0.0814 -0.9780  0.2842
 9015TIP3    H148536   2.710   6.612  15.020  0.4806  0.2825  0.1991
 9015TIP3    H248537   2.588   6.659  14.944 -1.0503 -3.1173  0.3696
 9016TIP3   OH248538   2.388   4.734   2.172  0.1238 -0.1063  0.0566
 9016TIP3    H148539   2.329   4.660   2.186 -0.6530  0.5075  0.0934
 9016TIP3    H248540   2.373   4.761   2.082  1.1154 -0.5898 -0.2684
 9017TIP3   OH248541   1.558   6.350  11.589  0.3798  0.7439  0.0137
 9017TIP3    H148542   1.508   6.428  11.567  0.1269  0.1644 -1.6558
 9017TIP3    H248543   1.646   6.368  11.557  0.8841  1.1593  1.5640
 9018TIP3   OH248544   2.250   2.812   2.251 -0.3125  0.6012 -0.1971
 9018TIP3    H148545   2.241   2.761   2.331 -0.6148 -0.0433 -0.6343
 9018TIP3    H248546   2.277   2.748   2.185 -0.8117  0.9827 -0.7802
 9019TIP3   OH248547   0.385   2.565  16.958 -0.2308 -0.0614  0.0291
 9019TIP3    H148548   0.325   2.587  16.887  0.5581 -1.6528 -1.2024
 9019TIP3    H248549   0.470   2.552  16.916  0.4296 -0.3388  1.3714
 9020TIP3   OH248550   4.243   5.110   3.482 -0.2528  0.3605  0.1552
 9020TIP3    H148551   4.279   5.176   3.542 -2.4846  0.1102  1.8845
 9020TIP3    H248552   4.150   5.131   3.476 -0.2675 -0.1507 -2.6395
 9021TIP3   OH248553   1.945   0.895  12.528 -0.0028  0.2378  0.3062
 9021TIP3    H148554   1.905   0.977  12.557 -0.5875 -0.1980  0.7892
 9021TIP3    H248555   1.982   0.857  12.608 -0.3188 -0.2792  0.2131
 9022TIP3   OH248556   1.429   4.573  17.369 -0.3323  0.1301 -0.3950
 9022TIP3    H148557   1.457   4.538  17.285 -0.6659  0.2286 -0.5488
 9022TIP3    H248558   1.482   4.526  17.434  0.3344  0.4607 -0.6886
 9023TIP3   OH248559   1.432   3.739  17.264 -0.0547 -0.3094  0.2493
 9023TIP3    H148560   1.414   3.646  17.253  0.0542 -0.2815 -0.1947
 9023TIP3    H248561   1.418   3.756  17.357  0.6695 -0.9233  0.4724
 9024TIP3   OH248562   1.631   0.309  15.030 -0.1775  0.4875 -0.1470
 9024TIP3    H148563   1.714   0.267  15.049  0.6151  0.3475 -3.3201
 9024TIP3    H248564   1.640   0.398  15.063  0.4312 -0.0859  1.2857
 9025TIP3   OH248565   2.339   5.186  13.424  0.0655  0.4695  0.6398
 9025TIP3    H148566   2.321   5.159  13.514 -0.1934 -0.8246  0.2249
 9025TIP3    H248567   2.343   5.104  13.374 -0.7351  1.1961 -0.6973
 9026TIP3   OH248568   6.047   2.060   5.839  0.3580  0.3297 -0.3744
 9026TIP3    H148569   6.137   2.046   5.869 -0.1009 -1.0140  0.4704
 9026TIP3    H248570   6.052   2.053   5.744  1.3111  1.3672 -0.4222
 9027TIP3   OH248571   3.080   3.079   3.436 -0.2325  0.0024 -0.5357
 9027TIP3    H148572   3.102   2.991   3.465 -1.1088 -0.1351 -0.2637
 9027TIP3    H248573   3.163   3.127   3.438  0.0421 -0.5107  0.3980
 9028TIP3   OH248574   3.896   0.421   3.672 -0.0907  0.0318 -0.4959
 9028TIP3    H148575   3.867   0.354   3.610  2.7324 -1.5652 -0.2391
 9028TIP3    H248576   3.827   0.424   3.738 -2.3773  0.6022 -2.7614
 9029TIP3   OH248577   3.538   3.989  16.670 -0.0675 -0.1969 -0.1340
 9029TIP3    H148578   3.458   3.946  16.699  0.1822  0.1070  1.0401
 9029TIP3    H248579   3.566   3.938  16.594 -0.6267 -1.1372  0.2705
 9030TIP3   OH248580   0.405   6.098  15.594  0.5464 -0.5523 -0.7967
 9030TIP3    H148581   0.471   6.151  15.547  0.1448 -1.3239 -2.3056
 9030TIP3    H248582   0.457   6.043  15.652  1.0973  0.2085 -0.5476
 9031TIP3   OH248583   0.735   3.667   6.572 -0.1787  0.5185  0.5763
 9031TIP3    H148584   0.715   3.581   6.535 -0.7544  0.4835  0.9603
 9031TIP3    H248585   0.830   3.674   6.567 -0.2882  1.2896 -2.6409
 9032TIP3   OH248586   0.837   6.027  16.293 -0.3108  0.2020 -0.2059
 9032TIP3    H148587   0.831   6.019  16.388  0.3982 -0.0594 -0.1798
 9032TIP3    H248588   0.850   6.121  16.278 -1.8609  0.4509 -0.1367
 9033TIP3   OH248589   2.902   1.037  11.877 -0.3800  0.3629 -0.4009
 9033TIP3    H148590   2.859   0.978  11.815  1.9536 -0.3255 -1.4953
 9033TIP3    H248591   2.993   1.042  11.846  0.7507  0.4988  2.6029
 9034TIP3   OH248592   0.034   2.356   6.466 -0.3288  0.3078  0.2986
 9034TIP3    H148593   0.037   2.427   6.529 -0.5376  0.8926 -0.3467
 9034TIP3    H248594   0.015   2.398   6.382 -0.2534 -0.4791 -0.1251
 9035TIP3   OH248595   4.038   2.338   0.013  0.0327  0.2916 -0.1522
 9035TIP3    H148596   4.049   2.291  -0.071 -2.5588 -0.2129 -0.3128
 9035TIP3    H248597   4.029   2.430  -0.012 -0.1331  0.2182 -0.3647
 9036TIP3   OH248598   4.812   0.517  16.825 -0.5044  0.3221 -0.8001
 9036TIP3    H148599   4.754   0.485  16.894 -0.5794  0.4879 -0.7878
 9036TIP3    H248600   4.768   0.593  16.789 -0.5703  0.1051 -1.1818
 9037TIP3   OH248601   5.753   2.256  12.071 -0.9515  0.0429 -0.1618
 9037TIP3    H148602   5.707   2.173  12.068  0.5762 -0.9465  1.5267
 9037TIP3    H248603   5.829   2.244  12.014  0.3299 -0.4803  1.5773
 9038TIP3   OH248604   6.201   0.415  16.780  0.0571  0.1758  0.7179
 9038TIP3    H148605   6.197   0.507  16.807  1.6847  0.5769 -0.2513
 9038TIP3    H248606   6.135   0.372  16.833 -2.0785  2.2158 -0.0945
 9039TIP3   OH248607   0.241   6.296  17.406 -0.2268  0.1188 -0.3936
 9039TIP3    H148608   0.310   6.279  17.342  0.1196  0.9885 -0.2773
 9039TIP3    H248609   0.209   6.210  17.432 -0.1659 -0.2604 -1.5084
 9040TIP3   OH248610   2.344   5.843  12.786 -0.0248 -0.0224  0.2129
 9040TIP3    H148611   2.384   5.913  12.837  2.4310 -0.9188 -0.3480
 9040TIP3    H248612   2.264   5.881  12.751 -0.0998  1.6384  2.0263
 9041TIP3   OH248613   6.237   3.235  12.012  0.3324  0.2906 -0.1806
 9041TIP3    H148614   6.190   3.154  12.031  0.5350  0.3131  0.4456
 9041TIP3    H248615   6.190   3.302  12.063  1.9063  0.0739  1.6767
 9042TIP3   OH248616   6.598   2.949   2.591  0.5283  0.1028  0.4936
 9042TIP3    H148617   6.521   2.992   2.554 -1.0077 -2.1439  0.8990
 9042TIP3    H248618   6.604   2.866   2.544  0.6668 -1.2336  2.7021
 9043TIP3   OH248619   6.718   0.999  11.922  0.3352  0.0817 -0.0780
 9043TIP3    H148620   6.785   1.006  11.854  0.2255  0.6450 -0.1280
 9043TIP3    H248621   6.696   1.089  11.944  0.0464 -0.0994  0.3881
 9044TIP3   OH248622   0.458   0.581   3.969  0.2147  0.4422  0.1606
 9044TIP3    H148623   0.375   0.626   3.959  1.2241  2.2211 -0.7177
 9044TIP3    H248624   0.488   0.566   3.879 -0.5064 -2.9479  0.3593
 9045TIP3   OH248625   5.172   1.040   3.060 -0.3036 -0.7162  0.2673
 9045TIP3    H148626   5.245   1.091   3.096 -1.5093  0.8496  0.6089
 9045TIP3    H248627   5.105   1.042   3.128 -1.3585 -0.5575 -0.7421
 9046TIP3   OH248628   5.213   1.342   2.967 -0.4116  0.7036  0.0226
 9046TIP3    H148629   5.149   1.360   3.036  0.0534  3.5325 -0.1822
 9046TIP3    H248630   5.292   1.316   3.014 -1.0690 -0.8548  0.3483
 9047TIP3   OH248631   0.699   2.391   3.207 -0.0685  0.1013  0.3115
 9047TIP3    H148632   0.625   2.330   3.210  0.0035  0.0449  0.9877
 9047TIP3    H248633   0.662   2.475   3.235  0.2898 -0.1027  1.4295
 9048TIP3   OH248634   2.908   1.424   0.397  0.1059  0.6463 -0.7986
 9048TIP3    H148635   2.866   1.338   0.397  1.0036  0.1808  0.6042
 9048TIP3    H248636   2.932   1.439   0.488  0.2655  2.2535 -1.0763
 9049TIP3   OH248637   3.862   5.632  12.214  0.4814 -0.0734 -0.1733
 9049TIP3    H148638   3.852   5.541  12.242  0.0313 -0.7531 -2.3620
 9049TIP3    H248639   3.772   5.667  12.216  0.6584  0.3659  0.7043
 9050TIP3   OH248640   3.489   1.195   6.362  0.3204 -0.2900 -0.0192
 9050TIP3    H148641   3.565   1.191   6.420  0.6975  1.2027 -0.3757
 9050TIP3    H248642   3.444   1.111   6.376  0.7700 -0.2569  1.9050
 9051TIP3   OH248643   5.855   4.413   5.530 -0.7444 -0.2634 -0.7414
 9051TIP3    H148644   5.928   4.466   5.560  0.5406 -0.9721 -2.4640
 9051TIP3    H248645   5.849   4.341   5.593 -1.5552  1.0525  0.7602
 9052TIP3   OH248646   1.421   5.283   0.757  0.0685 -0.1138 -0.0393
 9052TIP3    H148647   1.433   5.198   0.715  0.1084 -0.3054  0.3591
 9052TIP3    H248648   1.485   5.284   0.828 -0.5039 -0.0824  0.4759
 9053TIP3   OH248649   1.738   4.461   5.729  0.0219 -0.1219  0.0378
 9053TIP3    H148650   1.813   4.404   5.708 -0.0260 -0.3172  0.3944
 9053TIP3    H248651   1.766   4.510   5.807 -0.1421 -0.0424  0.0473
 9054TIP3   OH248652   0.819   6.110   2.085 -0.1831 -0.3312 -0.2441
 9054TIP3    H148653   0.876   6.081   2.157 -2.6300  1.0462  2.4541
 9054TIP3    H248654   0.836   6.204   2.078 -3.3190  0.5594  2.0412
 9055TIP3   OH248655   3.116   6.533   4.042 -0.2195  0.1462 -0.1646
 9055TIP3    H148656   3.051   6.472   4.077 -0.1196 -0.3764 -0.8796
 9055TIP3    H248657   3.129   6.506   3.952 -0.5838  1.5785 -0.6722
 9056TIP3   OH248658   3.479   1.965   4.295  0.1971  0.0063 -0.3195
 9056TIP3    H148659   3.508   2.019   4.221  2.3510 -0.3256  0.2223
 9056TIP3    H248660   3.432   1.892   4.254  1.0309  0.0282 -1.3574
 9057TIP3   OH248661   3.142   0.148   5.816 -0.7077 -0.1429 -0.4134
 9057TIP3    H148662   3.192   0.202   5.755  0.0500  0.8381  1.0275
 9057TIP3    H248663   3.058   0.193   5.823 -0.3211  0.4776  0.2668
 9058TIP3   OH248664   1.118   0.041  14.134 -0.0008  0.6771  0.3492
 9058TIP3    H148665   1.172  -0.021  14.085 -0.6246  0.6025 -0.2594
 9058TIP3    H248666   1.180   0.104  14.170  0.5244  0.3631  0.0027
 9059TIP3   OH248667   1.557   1.824   2.071  0.1699 -0.2758 -0.8204
 9059TIP3    H148668   1.544   1.771   1.992 -1.7749 -0.3654 -0.4907
 9059TIP3    H248669   1.514   1.907   2.051  1.1067  0.3111 -0.4394
 9060TIP3   OH248670   2.810   3.094   1.949  0.5808  0.5751  0.5315
 9060TIP3    H148671   2.794   3.020   1.890  0.4275  1.2396 -0.2835
 9060TIP3    H248672   2.787   3.061   2.036 -0.7344  0.0490  0.0106
 9061TIP3   OH248673   3.635   5.139   1.960 -0.0319  0.7016  0.5169
 9061TIP3    H148674   3.637   5.122   1.866  0.7065  0.1048  0.6314
 9061TIP3    H248675   3.727   5.151   1.984 -0.0449 -0.8337  1.4577
 9062TIP3   OH248676   4.847   0.636  13.804 -0.3573  0.8937 -0.1452
 9062TIP3    H148677   4.926   0.684  13.827  0.1808 -0.3728  0.7826
 9062TIP3    H248678   4.775   0.696  13.825  0.3227  1.7410 -0.1859
 9063TIP3   OH248679   6.627   0.739  13.136 -0.1568  0.0490  0.5642
 9063TIP3    H148680   6.547   0.780  13.103  0.4595 -0.4497 -1.7298
 9063TIP3    H248681   6.681   0.812  13.167 -0.6512  0.5820  0.1891
 9064TIP3   OH248682   2.010   3.832   2.580 -0.2209 -0.3366 -0.1456
 9064TIP3    H148683   2.052   3.780   2.511  1.3372 -1.6075  1.6461
 9064TIP3    H248684   1.942   3.774   2.615  0.8919 -0.8869  1.2252
 9065TIP3   OH248685   4.136   2.209   4.045 -0.0957 -0.1934  0.5199
 9065TIP3    H148686   4.196   2.279   4.071 -0.6767 -0.3004  2.2673
 9065TIP3    H248687   4.053   2.254   4.028  0.3185 -0.1000 -1.4705
 9066TIP3   OH248688   0.831   2.880  12.297 -0.1318 -0.5147 -0.4130
 9066TIP3    H148689   0.744   2.850  12.268 -0.6811  2.1125 -1.7762
 9066TIP3    H248690   0.892   2.818  12.257 -1.2783 -1.1186 -1.2961
 9067TIP3   OH248691   4.448   6.309  15.341 -0.0671  0.0310 -0.1692
 9067TIP3    H148692   4.394   6.359  15.280 -3.5729  1.3821  3.5964
 9067TIP3    H248693   4.500   6.375  15.387 -0.9105 -0.2983  1.3344
 9068TIP3   OH248694   6.488   6.483   2.858  1.1247 -0.2416 -0.2864
 9068TIP3    H148695   6.408   6.433   2.877  0.4730  1.2374  1.1298
 9068TIP3    H248696   6.545   6.465   2.934  1.2322  0.4693 -0.1973
 9069TIP3   OH248697   4.311   5.233   0.034  0.1430  0.1189 -0.0525
 9069TIP3    H148698   4.243   5.293   0.003 -0.2688 -0.0349  0.5241
 9069TIP3    H248699   4.355   5.203  -0.046 -0.8217 -0.1884 -0.4848
 9070TIP3   OH248700   2.695   2.845   1.849 -0.2378 -0.2392  0.4058
 9070TIP3    H148701   2.711   2.755   1.877 -0.5026  0.7610  4.2778
 9070TIP3    H248702   2.606   2.864   1.879 -0.9654  0.7897 -2.1106
 9071TIP3   OH248703   2.827   0.953   4.907  0.0148  0.0869  0.0431
 9071TIP3    H148704   2.738   0.957   4.943  0.6290  1.0412  1.5157
 9071TIP3    H248705   2.867   1.036   4.932  2.2601 -1.4447  1.9276
 9072TIP3   OH248706   6.250   2.017   0.611  0.4586 -0.3598 -0.0565
 9072TIP3    H148707   6.335   2.028   0.654  0.5143 -0.7694 -0.0631
 9072TIP3    H248708   6.259   2.067   0.530  0.0388  1.1924  0.8138
 9073TIP3   OH248709   2.159   5.125  13.142 -0.4130  0.2483 -0.3041
 9073TIP3    H148710   2.134   5.112  13.051 -1.0819  0.8311 -0.2092
 9073TIP3    H248711   2.155   5.220  13.155  0.5325  0.2481  0.0949
 9074TIP3   OH248712   0.371   2.058  14.879  0.0465  0.3053  0.2315
 9074TIP3    H148713   0.458   2.047  14.917  1.0663 -0.0362 -2.0329
 9074TIP3    H248714   0.339   1.969  14.863  0.2875  0.4248 -1.0219
 9075TIP3   OH248715   3.636   3.161   3.028  0.9618  0.0073 -0.4125
 9075TIP3    H148716   3.731   3.160   3.041  1.1819 -0.0386 -1.8099
 9075TIP3    H248717   3.611   3.068   3.028  0.7484  0.0494  0.9234
 9076TIP3   OH248718   2.604   3.770   1.478 -0.2861 -0.0469  0.8961
 9076TIP3    H148719   2.654   3.798   1.555  1.7800  1.0599 -0.7184
 9076TIP3    H248720   2.669   3.725   1.423 -1.5946 -0.4673 -0.3508
 9077TIP3   OH248721   1.244   4.038   5.094 -0.1256  0.4425  0.3492
 9077TIP3    H148722   1.318   4.012   5.039 -0.2355  1.0962 -0.1176
 9077TIP3    H248723   1.205   3.955   5.123  1.1759  0.0723  1.1452
 9078TIP3   OH248724   2.669   4.235  11.864 -0.6684 -0.2251 -0.1304
 9078TIP3    H148725   2.598   4.200  11.918 -0.7893  0.5088  0.1961
 9078TIP3    H248726   2.745   4.236  11.921 -1.0700  1.6510  0.4125
 9079TIP3   OH248727   4.868   4.728   4.777  0.2382  0.3052 -0.8489
 9079TIP3    H148728   4.778   4.695   4.778  0.5665 -0.6225 -0.1564
 9079TIP3    H248729   4.865   4.804   4.835  0.0725 -0.2450 -0.1142
 9080TIP3   OH248730   4.705   5.869   0.222 -0.7024 -0.0219 -0.7806
 9080TIP3    H148731   4.681   5.788   0.268  1.0794 -0.4853 -0.5947
 9080TIP3    H248732   4.667   5.860   0.135 -1.3773 -0.5918 -0.4346
 9081TIP3   OH248733   0.120   0.881   1.264  0.0715 -0.2845  0.1736
 9081TIP3    H148734   0.076   0.803   1.297 -1.2996 -0.2891 -1.5092
 9081TIP3    H248735   0.058   0.952   1.280  0.9668  0.3412  0.9543
 9082TIP3   OH248736   6.487   4.992   0.701 -0.4898  0.2823 -0.3349
 9082TIP3    H148737   6.520   4.978   0.790 -2.1112 -0.3470  0.2024
 9082TIP3    H248738   6.556   5.041   0.658  0.6186  0.0434  1.0765
 9083TIP3   OH248739   2.920   1.508   6.109  0.4436 -0.1435  0.1161
 9083TIP3    H148740   2.931   1.548   6.023 -1.6856  1.9187  0.7001
 9083TIP3    H248741   3.004   1.523   6.153  0.8594  0.6351 -0.8932
 9084TIP3   OH248742   5.215   4.646   4.693  0.2529 -0.0192 -0.8204
 9084TIP3    H148743   5.182   4.728   4.729  0.0363 -0.3932 -0.1578
 9084TIP3    H248744   5.142   4.610   4.644  0.6860  0.7141 -2.0676
 9085TIP3   OH248745   1.341   2.661  17.562  0.4302 -0.6900  0.4396
 9085TIP3    H148746   1.348   2.706  17.477 -0.5203  0.9828  1.1936
 9085TIP3    H248747   1.374   2.573  17.545  1.1434 -0.1156 -1.4411
 9086TIP3   OH248748   4.203   2.581   2.440  0.0205  0.2169 -0.2157
 9086TIP3    H148749   4.220   2.673   2.419 -0.4757  0.1152 -1.1131
 9086TIP3    H248750   4.152   2.584   2.521  0.1841  0.7216 -0.1295
 9087TIP3   OH248751   6.023   5.323  11.554 -0.1368  0.3513  0.1209
 9087TIP3    H148752   5.938   5.366  11.566 -0.5876 -0.2964 -0.6527
 9087TIP3    H248753   6.072   5.382  11.497 -0.6873 -0.0675 -0.7950
 9088TIP3   OH248754   4.928   0.598  12.350  0.5104 -0.3819  0.4046
 9088TIP3    H148755   4.863   0.587  12.281  1.7001  1.7794 -1.1718
 9088TIP3    H248756   4.997   0.536  12.329 -0.2630 -1.5453  1.1742
 9089TIP3   OH248757   2.071   1.258  13.902 -0.4804  0.4812  0.2506
 9089TIP3    H148758   2.029   1.281  13.985 -1.0067 -0.7029  0.3229
 9089TIP3    H248759   2.096   1.343  13.864 -1.9130  1.1507  0.7292
 9090TIP3   OH248760   5.417   5.998   1.708  0.3813 -0.1382  0.2625
 9090TIP3    H148761   5.459   6.084   1.714  1.6513 -0.7123 -0.1042
 9090TIP3    H248762   5.323   6.018   1.702  0.6864  1.2401 -0.4430
 9091TIP3   OH248763   3.858   2.224  14.443 -0.2838 -0.0036  0.1095
 9091TIP3    H148764   3.768   2.196  14.427 -0.0895 -0.9379  0.5587
 9091TIP3    H248765   3.908   2.142  14.447  0.4284  0.4489  0.7582
 9092TIP3   OH248766   5.014   0.715   6.635 -0.1760 -0.5703 -0.2508
 9092TIP3    H148767   4.947   0.722   6.566  2.1590 -2.0364 -2.8715
 9092TIP3    H248768   5.009   0.623   6.663  0.9388 -0.8113 -0.7751
 9093TIP3   OH248769   1.118   2.766  15.986 -0.0350  0.2252  0.2021
 9093TIP3    H148770   1.192   2.759  16.046  0.0119  2.7216  0.5179
 9093TIP3    H248771   1.045   2.725  16.032  0.7122 -0.6686  0.6227
 9094TIP3   OH248772   6.282   4.742   6.746  0.3759 -0.6013  0.2261
 9094TIP3    H148773   6.227   4.764   6.820 -0.6658 -0.0324 -0.6935
 9094TIP3    H248774   6.251   4.797   6.675  1.8806 -0.5459 -0.4360
 9095TIP3   OH248775   3.215   3.401   4.919 -0.2697  0.1292 -0.3265
 9095TIP3    H148776   3.195   3.394   5.012  0.9396  1.0952  0.0384
 9095TIP3    H248777   3.233   3.311   4.891  0.8413 -0.0189  0.7568
 9096TIP3   OH248778   4.427   6.019  12.050  0.4843 -0.2375 -0.1895
 9096TIP3    H148779   4.392   6.106  12.031  2.3494  1.0293  1.7840
 9096TIP3    H248780   4.522   6.028  12.037  0.6092 -2.2889 -0.9607
 9097TIP3   OH248781   3.175   5.119   3.862 -0.8934 -0.2952 -0.1007
 9097TIP3    H148782   3.149   5.099   3.772 -1.0270 -0.5683 -0.0029
 9097TIP3    H248783   3.151   5.041   3.912 -0.8762 -0.1204  0.1839
 9098TIP3   OH248784   5.167   2.942  14.215  0.5639  0.0460  0.1714
 9098TIP3    H148785   5.170   3.038  14.219 -0.2561  0.1768 -1.5813
 9098TIP3    H248786   5.095   2.918  14.273 -0.8528  0.6947 -1.2491
 9099TIP3   OH248787   4.798   5.553  13.090  0.5340 -0.1223  0.2103
 9099TIP3    H148788   4.747   5.579  13.013  1.5039 -0.3720 -0.5291
 9099TIP3    H248789   4.861   5.490  13.057  0.8089 -0.4249  1.2660
 9100TIP3   OH248790   5.002   0.616  15.695  0.2089  0.3654  0.1463
 9100TIP3    H148791   4.921   0.664  15.713  0.2886  0.1657  1.1075
 9100TIP3    H248792   5.012   0.621  15.600 -0.7049  0.7530  0.0551
 9101TIP3   OH248793   1.862   2.722  17.133  0.1149  0.4434 -0.0628
 9101TIP3    H148794   1.929   2.668  17.091  2.7026  2.7955  0.6910
 9101TIP3    H248795   1.854   2.799  17.076 -0.1946  1.2671  1.0597
 9102TIP3   OH248796   5.327   3.210  11.435  0.4744  0.3026 -0.0772
 9102TIP3    H148797   5.257   3.268  11.465  1.4769  0.6727  1.6521
 9102TIP3    H248798   5.286   3.124  11.431 -0.3933  0.7135 -0.2726
 9103TIP3   OH248799   2.010   4.779   4.472  0.0815  0.0512  0.2702
 9103TIP3    H148800   2.065   4.832   4.414 -0.8153  1.5652  0.7720
 9103TIP3    H248801   2.065   4.703   4.493  2.2171  1.7345  1.1583
 9104TIP3   OH248802   0.219   2.119  13.662  0.5241  0.2463 -0.1586
 9104TIP3    H148803   0.234   2.213  13.655  1.2827  0.1025 -0.5971
 9104TIP3    H248804   0.187   2.105  13.751  0.6780  0.8802 -0.0064
 9105TIP3   OH248805   1.613   6.374  15.687  0.0920  0.0640 -0.0990
 9105TIP3    H148806   1.577   6.328  15.762  0.6086  0.4993  0.4283
 9105TIP3    H248807   1.704   6.344  15.681 -0.5432 -1.7276 -1.9758
 9106TIP3   OH248808   3.400   6.420   5.105  0.2759  0.0335  0.3431
 9106TIP3    H148809   3.398   6.472   5.185 -4.3992 -0.5062  0.9019
 9106TIP3    H248810   3.394   6.484   5.034 -0.5952  0.4242  0.7527
 9107TIP3   OH248811   2.460   0.678  11.235 -0.1285  0.3976 -0.0104
 9107TIP3    H148812   2.487   0.753  11.183  0.0620 -0.2060 -0.7961
 9107TIP3    H248813   2.470   0.603  11.177 -1.8035 -0.0679  0.2421
 9108TIP3   OH248814   3.984   2.807  15.169 -0.3013 -0.1819  0.3576
 9108TIP3    H148815   4.076   2.781  15.161 -0.3916 -0.5916  0.5981
 9108TIP3    H248816   3.987   2.897  15.200  0.0216 -0.0515 -0.0560
 9109TIP3   OH248817   1.214   6.245  11.866 -0.0400 -0.3218 -0.5305
 9109TIP3    H148818   1.266   6.261  11.944  0.2917  1.1092 -1.0071
 9109TIP3    H248819   1.244   6.160  11.833  1.2137 -0.0199 -0.1977
 9110TIP3   OH248820   1.541   1.152   2.699 -0.4970 -0.2308 -0.2587
 9110TIP3    H148821   1.489   1.229   2.677  0.3818  1.1880  2.2079
 9110TIP3    H248822   1.477   1.086   2.726 -1.1870  1.0335  1.4448
 9111TIP3   OH248823   5.231   5.056   0.355  1.0161  0.2933  0.4631
 9111TIP3    H148824   5.233   5.144   0.318  1.7468  0.4508  0.8572
 9111TIP3    H248825   5.212   4.999   0.280 -1.3248  0.9185  0.5097
 9112TIP3   OH248826   0.887   3.351  16.289 -0.1527  0.1057 -0.4627
 9112TIP3    H148827   0.982   3.340  16.290  0.0110  1.4505 -0.4745
 9112TIP3    H248828   0.857   3.291  16.220  0.3258 -2.7053  1.5692
 9113TIP3   OH248829   5.815   4.996   1.188 -0.4431 -0.1891 -0.1861
 9113TIP3    H148830   5.744   4.933   1.176  0.0935 -0.9898  0.7371
 9113TIP3    H248831   5.891   4.955   1.147 -0.2981  0.2498 -0.3572
 9114TIP3   OH248832   3.037   2.134   5.931  0.4126 -0.8519 -0.2287
 9114TIP3    H148833   3.112   2.140   5.872  0.4092 -1.7616 -0.3457
 9114TIP3    H248834   2.962   2.158   5.877  0.6774  0.7111  0.0615
 9115TIP3   OH248835   0.898   5.172  14.139  0.5692 -0.3079  0.0854
 9115TIP3    H148836   0.911   5.077  14.139  3.1339 -0.0607  1.3430
 9115TIP3    H248837   0.950   5.203  14.065 -0.5058  0.1037 -0.5039
 9116TIP3   OH248838   4.228   2.343  13.746  0.5900 -0.2122 -0.1754
 9116TIP3    H148839   4.277   2.424  13.737 -1.4724  1.2268  0.6885
 9116TIP3    H248840   4.148   2.359  13.695 -0.8689 -0.7810  1.8358
 9117TIP3   OH248841   4.760   5.842   2.177  0.4956  0.3109 -0.3239
 9117TIP3    H148842   4.809   5.822   2.098 -1.8732 -2.7500 -1.1984
 9117TIP3    H248843   4.783   5.773   2.238 -0.7489  0.2849  0.1503
 9118TIP3   OH248844   5.571   0.836  11.321  0.5630 -0.2490  0.4435
 9118TIP3    H148845   5.501   0.800  11.266 -0.1577  0.6406  0.7507
 9118TIP3    H248846   5.554   0.930  11.322  1.3231 -0.1139  1.1554
 9119TIP3   OH248847   4.015   0.390  16.660 -0.2483  0.1493 -0.6684
 9119TIP3    H148848   4.078   0.412  16.728 -0.8674  0.8973 -0.3146
 9119TIP3    H248849   4.054   0.317  16.613  1.2494  1.1343 -0.9941
 9120TIP3   OH248850   1.218   2.863   5.117  0.0653 -0.0170  0.6403
 9120TIP3    H148851   1.300   2.890   5.159  1.6014  0.7557 -2.6008
 9120TIP3    H248852   1.150   2.889   5.180  2.1022  2.0471  2.1585
 9121TIP3   OH248853   0.709   1.972  13.054 -0.3230 -0.1270  0.2295
 9121TIP3    H148854   0.750   1.973  13.141 -2.9094  0.6964  1.5319
 9121TIP3    H248855   0.615   1.975  13.072 -0.9186  1.4893 -2.6476
 9122TIP3   OH248856   6.558   3.820   1.230 -0.4416 -0.2448  0.2721
 9122TIP3    H148857   6.545   3.786   1.318  0.8673 -1.0261  0.1914
 9122TIP3    H248858   6.541   3.745   1.172 -0.3362 -0.0083 -0.0693
 9123TIP3   OH248859   5.706   0.335  12.049 -0.3495  0.5542  0.1049
 9123TIP3    H148860   5.775   0.345  11.984 -0.3767 -2.3159 -0.5118
 9123TIP3    H248861   5.625   0.331  11.997 -0.5218 -0.3310  0.4294
 9124TIP3   OH248862   1.736   6.513  13.115 -0.4382 -0.2830  0.4879
 9124TIP3    H148863   1.665   6.563  13.156 -0.6198 -0.6469  0.6271
 9124TIP3    H248864   1.788   6.578  13.068 -0.2715  0.1349  1.2337
 9125TIP3   OH248865   2.729   0.356  14.637  0.2719  0.1758  0.1506
 9125TIP3    H148866   2.765   0.414  14.704 -0.9575  1.7317 -0.4666
 9125TIP3    H248867   2.658   0.309  14.681  0.7103 -0.2231  0.4318
 9126TIP3   OH248868   6.316   1.406  14.790 -0.3513  0.3755  0.6364
 9126TIP3    H148869   6.288   1.322  14.754 -0.3846  1.1239 -1.1669
 9126TIP3    H248870   6.345   1.385  14.879 -0.3386 -1.5393  0.2248
 9127TIP3   OH248871   1.053   1.048  12.447  0.0965  0.2616 -0.0668
 9127TIP3    H148872   1.117   1.110  12.412  0.2700 -0.5317 -1.2197
 9127TIP3    H248873   1.089   1.022  12.531  0.9781  0.3029 -0.4169
 9128TIP3   OH248874   2.254   3.590   3.522  0.2728 -0.0259  0.4988
 9128TIP3    H148875   2.335   3.570   3.476  0.6860 -1.0432  1.6333
 9128TIP3    H248876   2.278   3.593   3.614 -0.7876  0.6789  0.7782
 9129TIP3   OH248877   6.030   3.531   4.379  0.0175 -0.7902 -0.4223
 9129TIP3    H148878   6.019   3.481   4.460  1.4349  0.0210  0.3124
 9129TIP3    H248879   6.124   3.529   4.363  0.0408  1.1686 -0.6799
 9130TIP3   OH248880   5.591   2.203  14.189  0.0372 -0.1302  0.4188
 9130TIP3    H148881   5.536   2.124  14.192 -2.2448  1.3444  0.1164
 9130TIP3    H248882   5.590   2.230  14.097 -1.1113  1.4419  0.8497
 9131TIP3   OH248883   6.456   1.517   3.601 -0.4749  0.3766 -0.1121
 9131TIP3    H148884   6.371   1.531   3.643 -1.7533 -0.5885 -2.2172
 9131TIP3    H248885   6.475   1.424   3.616  1.2002  0.9514  1.9201
 9132TIP3   OH248886   1.729   1.937  15.147 -0.1807  0.1451  0.0687
 9132TIP3    H148887   1.761   1.955  15.059  0.5362  0.1799  0.3349
 9132TIP3    H248888   1.788   1.984  15.205 -1.1497  0.8157  0.5373
 9133TIP3   OH248889   4.351   4.207  14.488 -0.0420  0.5112 -0.3207
 9133TIP3    H148890   4.342   4.236  14.579  1.4420  0.8127 -0.2506
 9133TIP3    H248891   4.260   4.200  14.456 -0.6571 -1.0364  1.6068
 9134TIP3   OH248892   5.696   6.532  12.715 -0.4490  0.0858 -0.1555
 9134TIP3    H148893   5.695   6.440  12.689 -2.2433 -0.1554  0.5997
 9134TIP3    H248894   5.760   6.573  12.657  1.6297 -1.9151  0.5714
 9135TIP3   OH248895   3.315   2.039   3.521  0.1929 -0.0873  0.3099
 9135TIP3    H148896   3.401   2.081   3.520 -0.6563  1.8208  1.7549
 9135TIP3    H248897   3.328   1.960   3.573  1.1407 -0.0363  0.1768
 9136TIP3   OH248898   5.981   4.431  17.054 -0.2484 -0.3009  0.5005
 9136TIP3    H148899   5.948   4.394  17.136 -2.2308  0.8065  0.2707
 9136TIP3    H248900   5.938   4.380  16.985  0.0740 -0.1195  0.1602
 9137TIP3   OH248901   1.760   4.669   4.449  0.2606 -0.3924 -0.0529
 9137TIP3    H148902   1.713   4.664   4.532  1.1737  1.6648  0.6475
 9137TIP3    H248903   1.847   4.701   4.473  0.4708  0.4460 -1.8190
 9138TIP3   OH248904   4.533   1.389   5.934  0.2785 -0.7099  0.4642
 9138TIP3    H148905   4.596   1.414   5.866  0.1336 -0.5345  0.3931
 9138TIP3    H248906   4.522   1.294   5.923  0.5749 -0.7497  0.5155
 9139TIP3   OH248907   4.574   6.546  11.910 -0.2609  0.3870 -0.2398
 9139TIP3    H148908   4.576   6.451  11.925  0.6503  0.4103 -0.1405
 9139TIP3    H248909   4.616   6.583  11.988 -2.5143  1.0338  0.7562
 9140TIP3   OH248910   0.560   4.561  11.472  0.1691 -0.0280  0.2577
 9140TIP3    H148911   0.568   4.576  11.567 -1.1150 -1.2546  0.5986
 9140TIP3    H248912   0.503   4.484  11.465  0.4206 -0.0895 -1.5217
 9141TIP3   OH248913   4.624   1.928   5.115  0.2094  0.6483 -1.2153
 9141TIP3    H148914   4.573   1.896   5.189 -0.9711 -0.3407 -2.4062
 9141TIP3    H248915   4.649   2.017   5.140  1.3873 -0.2699  1.0953
 9142TIP3   OH248916   2.157   5.399   6.058  0.0256  0.3435 -0.1322
 9142TIP3    H148917   2.095   5.432   5.993 -0.6974  0.6860  0.7055
 9142TIP3    H248918   2.181   5.477   6.109 -0.4064 -0.1254  0.8141
 9143TIP3   OH248919   4.596   3.589  14.808 -0.3753  0.1439  0.1001
 9143TIP3    H148920   4.601   3.572  14.714  2.1574 -1.4362  0.4257
 9143TIP3    H248921   4.648   3.668  14.821 -0.1446 -0.0290  0.2401
 9144TIP3   OH248922   0.976   3.540  14.994 -0.0792  0.3600 -0.0779
 9144TIP3    H148923   0.996   3.584  14.911  0.2564 -0.8752 -0.6846
 9144TIP3    H248924   0.895   3.582  15.025 -0.3191  0.7109 -1.1443
 9145TIP3   OH248925   2.231   3.645   4.352  0.0445 -0.0683  0.3744
 9145TIP3    H148926   2.150   3.684   4.383  1.0730  0.2269  2.8907
 9145TIP3    H248927   2.219   3.551   4.364 -0.9530 -0.3383 -2.0446
 9146TIP3   OH248928   5.140   5.654   0.030  0.5942 -0.7759 -0.0115
 9146TIP3    H148929   5.153   5.632   0.122 -0.1382 -1.3998 -0.0443
 9146TIP3    H248930   5.045   5.649   0.018  0.7536 -1.6609 -1.0318
 9147TIP3   OH248931   1.480   0.024   6.090  0.1580  0.0797 -0.7379
 9147TIP3    H148932   1.504  -0.042   6.155 -1.4632  0.7490  0.6190
 9147TIP3    H248933   1.539   0.007   6.016 -0.6570 -3.3750 -0.7983
 9148TIP3   OH248934   0.381   2.743  11.412 -0.4577  0.0404  0.1754
 9148TIP3    H148935   0.431   2.666  11.388 -0.6758  0.2961 -1.1874
 9148TIP3    H248936   0.416   2.813  11.356 -0.1127  0.9985  1.5346
 9149TIP3   OH248937   2.350   6.703   2.292 -0.3600 -0.1041  0.1614
 9149TIP3    H148938   2.408   6.744   2.228 -1.3477  1.0490 -0.0188
 9149TIP3    H248939   2.341   6.612   2.261  2.0062 -0.5933  0.6722
 9150TIP3   OH248940   1.127   5.888   5.833 -0.1061 -0.2472  0.0439
 9150TIP3    H148941   1.035   5.914   5.827  0.2627  1.4408  0.9763
 9150TIP3    H248942   1.140   5.831   5.758 -1.9255 -0.5989 -0.0704
 9151TIP3   OH248943   3.896   4.554  12.138  0.8665  0.7653 -0.0067
 9151TIP3    H148944   3.833   4.485  12.115  2.2159 -0.8358  0.8798
 9151TIP3    H248945   3.882   4.622  12.073 -1.8700  0.5432  0.2431
 9152TIP3   OH248946   4.329   2.626  12.689 -0.0302  0.6906 -0.3415
 9152TIP3    H148947   4.300   2.717  12.688 -1.5568  0.2255 -0.7698
 9152TIP3    H248948   4.301   2.592  12.774 -0.5635  0.2850 -0.6780
 9153TIP3   OH248949   5.783   4.054  15.957  0.2048  0.1202 -0.3965
 9153TIP3    H148950   5.784   4.059  16.053  0.4967 -2.2768 -0.2221
 9153TIP3    H248951   5.750   3.967  15.937  1.4413  0.0465 -2.4586
 9154TIP3   OH248952   2.534   0.999   6.319  0.3853 -0.0308  0.0825
 9154TIP3    H148953   2.440   1.015   6.328  0.5230  1.3093 -0.5906
 9154TIP3    H248954   2.545   0.906   6.338 -1.0437 -0.1492  0.3993
 9155TIP3   OH248955   3.860   0.328  13.413 -0.1738 -0.7890  0.0377
 9155TIP3    H148956   3.893   0.295  13.496  0.5929 -1.4553 -0.5148
 9155TIP3    H248957   3.863   0.252  13.354  0.2111 -0.0930 -0.8621
 9156TIP3   OH248958   1.369   5.738  15.318 -0.8890  0.3351  0.4389
 9156TIP3    H148959   1.356   5.828  15.347 -1.1912  0.2337  0.6274
 9156TIP3    H248960   1.310   5.728  15.243 -2.0211 -0.1498  1.3444
 9157TIP3   OH248961   0.227   4.568  13.371  0.8621  0.4216  0.2962
 9157TIP3    H148962   0.200   4.523  13.452 -0.6801  2.7307  1.1545
 9157TIP3    H248963   0.266   4.499  13.318 -1.9279 -2.1017  1.2481
 9158TIP3   OH248964   3.950   1.756  11.565  0.6536 -0.4269 -0.1955
 9158TIP3    H148965   3.908   1.690  11.510  1.0320 -0.3811 -0.5456
 9158TIP3    H248966   3.909   1.746  11.651  2.6423 -3.0457  0.5874
 9159TIP3   OH248967   5.300   5.116  14.430  0.6091 -0.0384  0.0292
 9159TIP3    H148968   5.333   5.091  14.344  0.8345  0.1523  0.0597
 9159TIP3    H248969   5.269   5.206  14.418  3.5125  1.2139  0.8762
 9160TIP3   OH248970   6.676   5.510  11.855  0.2196 -0.3902  0.8542
 9160TIP3    H148971   6.669   5.419  11.826  1.8978 -0.2922  0.0018
 9160TIP3    H248972   6.698   5.504  11.948 -0.3941 -0.8322  0.9752
 9161TIP3   OH248973   6.599   5.000   2.834 -0.0753  0.0959  0.0303
 9161TIP3    H148974   6.572   5.091   2.823  0.5457  0.2694 -0.1372
 9161TIP3    H248975   6.671   5.004   2.897  1.4711  0.0221 -1.6296
 9162TIP3   OH248976   2.549   3.928   3.608 -0.7370  0.4948 -0.3099
 9162TIP3    H148977   2.467   3.933   3.558 -1.0209 -1.7488 -0.1505
 9162TIP3    H248978   2.617   3.914   3.542 -0.1584  3.7840 -0.6033
 9163TIP3   OH248979   5.018   5.360  13.063  0.1875  0.0345 -0.5240
 9163TIP3    H148980   5.109   5.379  13.087 -0.4742  2.9000  0.0091
 9163TIP3    H248981   4.979   5.323  13.142  0.2283  1.3287  0.1187
 9164TIP3   OH248982   3.498   5.737  15.787 -0.1577 -0.0964  0.2039
 9164TIP3    H148983   3.583   5.731  15.830 -0.1707 -2.5544  0.0715
 9164TIP3    H248984   3.434   5.724  15.857 -0.5678  2.7981  0.4910
 9165TIP3   OH248985   5.275   3.286   0.539  0.4504  0.1510 -0.3935
 9165TIP3    H148986   5.192   3.267   0.494  0.5407  1.1774 -1.0233
 9165TIP3    H248987   5.332   3.320   0.471  0.8908  0.9056  0.3342
 9166TIP3   OH248988   1.151   1.678   5.608  0.0662 -0.2079 -0.6207
 9166TIP3    H148989   1.097   1.611   5.566  2.0605 -2.2296 -0.1242
 9166TIP3    H248990   1.089   1.749   5.627 -1.8310 -1.1733 -2.6135
 9167TIP3   OH248991   2.739   4.521   4.766  0.3170 -0.0512 -0.4522
 9167TIP3    H148992   2.693   4.557   4.690  0.5467  0.7566 -0.2205
 9167TIP3    H248993   2.751   4.428   4.745 -0.6200 -0.0825 -0.9036
 9168TIP3   OH248994   1.409   3.116   4.074 -0.0881 -0.5459  0.0335
 9168TIP3    H148995   1.427   3.210   4.061 -3.2088  0.1186 -0.4012
 9168TIP3    H248996   1.402   3.105   4.168  0.5696 -0.4037  0.0995
 9169TIP3   OH248997   6.705   0.188  17.060  0.2013  0.2386 -0.0323
 9169TIP3    H148998   6.736   0.152  16.977 -1.2670 -0.6585 -0.2233
 9169TIP3    H248999   6.610   0.178  17.057 -0.0167  1.6240  1.1039
 9170TIP3   OH249000   6.661   3.462   5.110  0.2818  0.1225 -0.3641
 9170TIP3    H149001   6.746   3.479   5.069 -0.3451 -0.9068 -2.2003
 9170TIP3    H249002   6.598   3.504   5.051 -0.7269 -2.1508 -1.0062
 9171TIP3   OH249003   1.239   2.911   5.470  0.4823 -0.5729 -0.2109
 9171TIP3    H149004   1.221   2.851   5.542 -1.5136 -0.6099 -0.6849
 9171TIP3    H249005   1.222   2.998   5.506  2.8952 -0.2595  0.3312
 9172TIP3   OH249006   3.726   0.299  14.096  0.0376 -0.1577  0.1825
 9172TIP3    H149007   3.770   0.226  14.139  1.3525  1.4925  1.8086
 9172TIP3    H249008   3.737   0.282  14.002  3.6044 -0.2279  0.4940
 9173TIP3   OH249009   0.306   3.503   5.831  0.2103  0.4111 -0.2717
 9173TIP3    H149010   0.288   3.436   5.765  1.4191  1.0295 -1.2510
 9173TIP3    H249011   0.367   3.461   5.891 -0.6534 -0.0456  0.3197
 9174TIP3   OH249012   4.028   6.245   5.089  0.3749 -0.6381  0.6782
 9174TIP3    H149013   4.090   6.181   5.054  2.6773  2.6783 -1.9860
 9174TIP3    H249014   3.946   6.227   5.043  1.5782 -0.4484 -1.6807
 9175TIP3   OH249015   2.229   4.296   6.353  0.5925  0.7896  0.3013
 9175TIP3    H149016   2.272   4.284   6.269 -0.0655  3.4972 -0.5167
 9175TIP3    H249017   2.298   4.330   6.411  0.6506  0.5784  0.3556
 9176TIP3   OH249018   2.222   5.128  16.194  0.5011 -0.6070 -0.2542
 9176TIP3    H149019   2.259   5.051  16.236  0.5991 -1.2766 -1.5227
 9176TIP3    H249020   2.154   5.093  16.136 -1.7863  0.5189  1.5688
 9177TIP3   OH249021   3.311   3.915  11.725 -0.1208 -0.6388  0.1459
 9177TIP3    H149022   3.288   3.992  11.672 -0.8373 -0.0600  1.2582
 9177TIP3    H249023   3.353   3.952  11.802  1.7632 -1.5253 -0.4016
 9178TIP3   OH249024   6.115   0.698   2.659  0.0005 -0.8010  0.0458
 9178TIP3    H149025   6.156   0.777   2.625 -2.5646  0.2969 -0.6994
 9178TIP3    H249026   6.088   0.721   2.748 -1.3374 -0.5498 -0.3975
 9179TIP3   OH249027   4.097   3.464  14.090 -0.2264  0.2288 -0.7802
 9179TIP3    H149028   4.058   3.403  14.027  0.4978  0.3925 -1.4051
 9179TIP3    H249029   4.070   3.551  14.060 -1.7295  0.2152  0.4381
 9180TIP3   OH249030   5.360   1.370   0.969 -0.3779 -0.4015 -0.0177
 9180TIP3    H149031   5.392   1.362   0.879  0.2451  0.9520  0.0517
 9180TIP3    H249032   5.355   1.465   0.984  0.5925 -0.5909  1.7409
 9181TIP3   OH249033   1.852   0.242   4.291 -0.1767  0.6195 -0.0642
 9181TIP3    H149034   1.923   0.294   4.328  0.3238 -0.0737 -0.0382
 9181TIP3    H249035   1.891   0.197   4.216 -0.0366 -1.2503  1.0651
 9182TIP3   OH249036   1.757   4.748   0.215  0.3740 -0.0963 -0.3038
 9182TIP3    H149037   1.831   4.725   0.270  0.2877  1.6716  0.6350
 9182TIP3    H249038   1.783   4.829   0.171 -0.3596 -0.3698 -1.3005
 9183TIP3   OH249039   6.143   0.916   4.477 -0.1332 -0.9004 -0.1478
 9183TIP3    H149040   6.128   0.821   4.483 -0.5759 -0.7473  1.7810
 9183TIP3    H249041   6.079   0.954   4.537  1.7182  0.4395  1.0697
 9184TIP3   OH249042   3.703   2.249  17.145  0.3164 -0.2978 -0.1152
 9184TIP3    H149043   3.668   2.245  17.056  1.1105  0.0812 -0.4531
 9184TIP3    H249044   3.676   2.166  17.185  1.7450 -1.4161 -1.3841
 9185TIP3   OH249045   3.199   3.943  12.886 -0.7403  0.0764  0.3876
 9185TIP3    H149046   3.164   4.014  12.940  0.8799  0.3986  1.0727
 9185TIP3    H249047   3.220   3.874  12.948 -0.0512 -0.0539  0.0227
 9186TIP3   OH249048   0.604   4.010  11.962  0.1340  0.0252  0.1806
 9186TIP3    H149049   0.594   4.014  11.867  0.5312  0.0682  0.1396
 9186TIP3    H249050   0.537   3.949  11.991  1.1511 -1.3555 -0.3001
 9187TIP3   OH249051   5.402   4.172  16.373  0.4848  0.1711  0.7460
 9187TIP3    H149052   5.387   4.168  16.468 -1.1242 -1.2952  0.4760
 9187TIP3    H249053   5.364   4.256  16.347 -2.5739 -1.0290  0.9333
 9188TIP3   OH249054   6.730   1.888  17.683 -0.9102  0.2101 -0.1944
 9188TIP3    H149055   6.726   1.840  17.765 -1.2484 -0.3270 -0.5166
 9188TIP3    H249056   6.810   1.939  17.689 -0.3875 -0.6183  0.0419
 9189TIP3   OH249057   4.566   1.166  16.636  0.0151 -0.3762  0.1993
 9189TIP3    H149058   4.499   1.119  16.686  1.7611 -1.4573  1.6776
 9189TIP3    H249059   4.573   1.118  16.554 -0.8676 -0.3724  0.1127
 9190TIP3   OH249060   3.783   5.109   4.767  0.0674 -0.1856 -0.0531
 9190TIP3    H149061   3.711   5.103   4.830  0.2740 -2.3849  0.0517
 9190TIP3    H249062   3.836   5.183   4.798 -1.0715  0.2284  0.9985
 9191TIP3   OH249063   6.211   5.498  16.435  0.0629 -0.2393 -0.2279
 9191TIP3    H149064   6.218   5.421  16.492  0.9647 -0.3952 -0.5248
 9191TIP3    H249065   6.284   5.554  16.462 -0.0599  0.1119 -0.6106
 9192TIP3   OH249066   5.733   3.254   4.474  0.0753  0.1791  0.9452
 9192TIP3    H149067   5.732   3.349   4.463 -2.3487  0.0248 -0.9236
 9192TIP3    H249068   5.687   3.238   4.557 -1.8266  0.5897  0.0112
 9193TIP3   OH249069   2.352   2.635   1.158  0.3003  0.1485 -0.1783
 9193TIP3    H149070   2.285   2.587   1.108  1.2175 -1.6846  0.2565
 9193TIP3    H249071   2.302   2.685   1.223 -0.6877 -0.6726 -0.2767
 9194TIP3   OH249072   3.374   1.271  14.152  0.1864  0.5572 -0.4408
 9194TIP3    H149073   3.370   1.357  14.111  0.9049 -0.0051 -1.7722
 9194TIP3    H249074   3.448   1.276  14.212 -0.4019  1.1579  0.2536
 9195TIP3   OH249075   0.268   5.386   6.728  0.1736 -0.1902  0.0330
 9195TIP3    H149076   0.233   5.357   6.812  0.9081 -0.7545  0.1547
 9195TIP3    H249077   0.338   5.324   6.708  0.8400  0.6679 -0.3876
 9196TIP3   OH249078   5.333   5.192  16.162 -0.6521 -0.3307  0.2885
 9196TIP3    H149079   5.384   5.271  16.143 -1.2059  0.0573  0.3843
 9196TIP3    H249080   5.349   5.135  16.087 -2.1472  0.8463 -1.0030
 9197TIP3   OH249081   3.448   2.910  15.287  0.6794 -0.1507  0.7869
 9197TIP3    H149082   3.388   2.854  15.336  0.0974  0.4190  0.7397
 9197TIP3    H249083   3.397   2.989  15.268  0.9854 -0.2281 -0.4618
 9198TIP3   OH249084   1.090   5.634  14.660 -0.2367  0.1336  0.0164
 9198TIP3    H149085   1.065   5.707  14.716 -1.1174  1.5086 -2.0738
 9198TIP3    H249086   1.091   5.670  14.572  1.3811 -1.8826 -0.8698
 9199TIP3   OH249087   3.262   5.011   5.074  0.0781  0.2302  0.7257
 9199TIP3    H149088   3.337   4.987   5.128  0.4091 -1.1896 -0.3072
 9199TIP3    H249089   3.209   4.931   5.068  0.4933  0.0374 -1.6972
 9200TIP3   OH249090   5.377   2.008  12.205  0.0939 -0.0404  0.7793
 9200TIP3    H149091   5.336   1.930  12.168  1.2419 -0.9778  1.3912
 9200TIP3    H249092   5.304   2.066  12.227 -0.6875  0.1012 -1.8511
 9201TIP3   OH249093   3.177   4.409   2.665  0.0252 -0.7301 -0.3543
 9201TIP3    H149094   3.085   4.429   2.649 -0.4235  0.2689  2.7707
 9201TIP3    H249095   3.224   4.487   2.635 -0.3739 -0.3636 -0.0313
 9202TIP3   OH249096   5.469   6.581   4.187 -0.2641 -0.3471 -0.1239
 9202TIP3    H149097   5.514   6.545   4.111 -0.7034  1.0134 -1.0587
 9202TIP3    H249098   5.539   6.611   4.244  0.0723  1.2567 -1.3206
 9203TIP3   OH249099   0.250   3.320   2.203  0.2175  0.0502  0.3205
 9203TIP3    H149100   0.324   3.313   2.263  0.9151  0.9811 -0.3836
 9203TIP3    H249101   0.189   3.252   2.231  1.5850 -1.1140  0.5891
 9204TIP3   OH249102   0.681   1.107  16.955  0.2994 -0.4268 -0.9115
 9204TIP3    H149103   0.656   1.182  17.008  0.2653 -0.9875 -0.1233
 9204TIP3    H249104   0.620   1.108  16.881 -0.6643 -0.5220 -0.1407
 9205TIP3   OH249105   4.574   1.354   2.541 -0.0029 -0.1988 -0.0276
 9205TIP3    H149106   4.654   1.378   2.587 -0.1528 -1.6644  1.0827
 9205TIP3    H249107   4.524   1.435   2.535  1.0239  0.4826  0.3461
 9206TIP3   OH249108   0.971   5.579  16.778  0.2367  0.3027  0.3504
 9206TIP3    H149109   1.046   5.527  16.807  0.4755  0.4873  0.0706
 9206TIP3    H249110   0.952   5.638  16.851 -0.2540 -0.4077  0.8046
 9207TIP3   OH249111   0.137   0.214  10.732 -0.0817  0.5599 -0.2655
 9207TIP3    H149112   0.119   0.308  10.743  0.8342  0.6516  0.6143
 9207TIP3    H249113   0.058   0.179  10.691 -0.1036  1.8624 -1.3992
 9208TIP3   OH249114   2.580   2.335   6.605  0.6397 -0.2282 -0.3871
 9208TIP3    H149115   2.488   2.334   6.634  0.8868  1.7750  0.6529
 9208TIP3    H249116   2.579   2.288   6.522 -1.4015  0.0412 -0.5758
 9209TIP3   OH249117   6.148   0.385  14.664  0.1223  0.3023  0.1278
 9209TIP3    H149118   6.061   0.366  14.701 -0.0556 -0.9004 -0.8460
 9209TIP3    H249119   6.160   0.318  14.597  1.8968  0.3388  0.3705
 9210TIP3   OH249120   5.167   5.572  12.288  0.5429  0.2720  0.5178
 9210TIP3    H149121   5.241   5.514  12.305 -1.1931 -2.5596 -0.9067
 9210TIP3    H249122   5.207   5.656  12.268  3.2703 -0.6819  1.4716
 9211TIP3   OH249123   6.594   4.863   6.568 -0.1241 -0.0488  0.3279
 9211TIP3    H149124   6.558   4.908   6.645  0.6673  0.6447  0.2995
 9211TIP3    H249125   6.681   4.836   6.595 -0.4562 -1.2895  0.2257
 9212TIP3   OH249126   0.930   1.520  16.166 -0.0997  0.0903 -0.1029
 9212TIP3    H149127   0.981   1.550  16.091 -2.2929 -0.0117 -1.7585
 9212TIP3    H249128   0.898   1.600  16.207 -1.2057  0.1644 -1.0414
 9213TIP3   OH249129   3.682   5.216  15.761 -0.2807  0.6317  0.1385
 9213TIP3    H149130   3.695   5.276  15.835 -0.2531  1.0510 -0.1999
 9213TIP3    H249131   3.643   5.138  15.800 -0.0008  0.7356  0.6393
 9214TIP3   OH249132   3.659   4.667  13.780  0.2293 -0.3005  0.1135
 9214TIP3    H149133   3.621   4.729  13.842  1.6134 -0.9778  1.7463
 9214TIP3    H249134   3.627   4.581  13.810  3.6804 -1.0293  2.2647
 9215TIP3   OH249135   5.695   2.548   2.408 -0.0973  0.3680 -0.4089
 9215TIP3    H149136   5.758   2.506   2.349 -0.7672  0.6803 -1.3717
 9215TIP3    H249137   5.742   2.557   2.491  1.1569  0.6635 -1.1268
 9216TIP3   OH249138   2.442   3.765   1.840  0.4283  0.0152 -0.4470
 9216TIP3    H149139   2.459   3.671   1.836 -0.8710 -0.4030  2.0050
 9216TIP3    H249140   2.370   3.779   1.779  2.5540  0.0594 -3.1578
 9217TIP3   OH249141   4.767   2.630   2.277 -0.2107  0.2755  0.2145
 9217TIP3    H149142   4.832   2.598   2.340 -0.8121 -1.7680 -0.1181
 9217TIP3    H249143   4.802   2.605   2.192 -1.9214 -2.0271  0.0909
 9218TIP3   OH249144   5.900   1.399  14.019 -0.4798 -0.2661  0.6000
 9218TIP3    H149145   5.815   1.428  14.052 -0.2764  2.4884 -0.9300
 9218TIP3    H249146   5.884   1.377  13.927  0.0428 -2.0799  0.9127
 9219TIP3   OH249147   4.493   4.931   5.948 -0.0524  0.4686 -0.2525
 9219TIP3    H149148   4.431   4.870   5.908  1.5709 -0.3767 -1.6083
 9219TIP3    H249149   4.525   4.886   6.026 -1.7497  1.2920  0.9857
 9220TIP3   OH249150   5.082   6.334  15.968  0.3676  0.3502  0.3277
 9220TIP3    H149151   5.115   6.319  16.057  0.6601 -0.4491  0.0947
 9220TIP3    H249152   5.077   6.246  15.929  0.0130  0.6693 -0.3657
 9221TIP3   OH249153   3.492   2.632   0.448  0.4633 -0.4241 -0.3058
 9221TIP3    H149154   3.549   2.691   0.498 -0.2552 -0.0874  0.1266
 9221TIP3    H249155   3.505   2.656   0.357 -1.1437  1.6478 -0.0582
 9222TIP3   OH249156   4.228   2.192   0.415 -0.2410  0.0936  0.0051
 9222TIP3    H149157   4.247   2.150   0.331 -1.8411 -1.8554  0.5397
 9222TIP3    H249158   4.256   2.129   0.481 -0.2141  1.0390  0.9337
 9223TIP3   OH249159   1.306   3.431  15.918 -0.1255  0.0003  0.4306
 9223TIP3    H149160   1.256   3.498  15.965 -0.7066  0.0541 -0.2469
 9223TIP3    H249161   1.324   3.471  15.833 -0.0231 -0.5116  0.2101
 9224TIP3   OH249162   0.486   5.405   4.854  0.2090 -0.2466  0.4534
 9224TIP3    H149163   0.454   5.334   4.910  1.1057  0.5052  1.9959
 9224TIP3    H249164   0.577   5.417   4.881  0.6721  0.1500 -1.2073
 9225TIP3   OH249165   6.537   5.721  11.719  0.1015 -0.6121  1.0548
 9225TIP3    H149166   6.462   5.757  11.766 -0.3815 -0.0379 -0.1113
 9225TIP3    H249167   6.574   5.655  11.778  1.1827  1.9172  3.4193
 9226TIP3   OH249168   2.106   5.296   3.244  0.1495 -0.1746 -0.0065
 9226TIP3    H149169   2.130   5.207   3.218 -0.3388 -0.8929  1.8474
 9226TIP3    H249170   2.170   5.319   3.311 -0.4815  0.3977  0.4044
 9227TIP3   OH249171   0.281   4.222   5.708  0.5649  0.0675 -0.1508
 9227TIP3    H149172   0.274   4.241   5.802  0.3777  0.0847 -0.1694
 9227TIP3    H249173   0.200   4.257   5.670  1.3652  1.5762 -0.5624
 9228TIP3   OH249174   0.825   4.039   1.547  0.4798 -0.0066  0.3942
 9228TIP3    H149175   0.739   3.997   1.539 -0.0235  0.7240  1.5852
 9228TIP3    H249176   0.805   4.129   1.575  1.4975  1.1773 -2.3662
 9229TIP3   OH249177   6.090   3.767  11.588 -0.0561  0.3965 -0.2704
 9229TIP3    H149178   6.163   3.818  11.554 -1.1030  1.5800 -0.8212
 9229TIP3    H249179   6.082   3.794  11.679 -1.0321  1.7646 -0.7388
 9230TIP3   OH249180   2.788   6.404  12.337 -0.2351  0.1199 -0.6681
 9230TIP3    H149181   2.842   6.458  12.393 -0.7381 -0.2480  0.1873
 9230TIP3    H249182   2.712   6.381  12.391 -0.7699 -0.1752 -1.5189
 9231TIP3   OH249183   4.277   6.131   5.413  0.3256 -0.2108 -0.7970
 9231TIP3    H149184   4.330   6.052   5.410  0.9267  0.2193 -2.0942
 9231TIP3    H249185   4.312   6.187   5.344 -0.7308  0.7838 -0.5720
 9232TIP3   OH249186   4.253   0.108   0.918 -0.6623 -0.3375  0.4676
 9232TIP3    H149187   4.295   0.155   0.846  0.3212 -0.6994  0.7862
 9232TIP3    H249188   4.159   0.111   0.898 -0.4114 -0.3622 -0.7847
 9233TIP3   OH249189   4.623   5.617  17.572  0.6723 -0.5089 -0.3215
 9233TIP3    H149190   4.569   5.573  17.637 -0.8036  1.3701 -0.2021
 9233TIP3    H249191   4.627   5.556  17.498 -0.8631 -1.0499  0.0214
 9234TIP3   OH249192   1.964   1.900  16.456 -0.2433  0.0876  0.2790
 9234TIP3    H149193   1.984   1.993  16.457  0.4651 -0.0553  1.4420
 9234TIP3    H249194   1.927   1.882  16.542 -0.4502 -0.6951  0.0385
 9235TIP3   OH249195   0.137   1.400  10.514 -0.7144  0.4361  0.5072
 9235TIP3    H149196   0.095   1.333  10.460  0.6336  1.2647 -1.7307
 9235TIP3    H249197   0.130   1.368  10.604 -1.4216 -1.9365 -0.3399
 9236TIP3   OH249198   1.241   5.373  13.690 -0.7738 -0.6179 -0.3480
 9236TIP3    H149199   1.299   5.413  13.625  2.1838  0.0055  2.3984
 9236TIP3    H249200   1.274   5.284  13.699 -1.7458 -0.9795 -0.3351
 9237TIP3   OH249201   2.138   1.584  16.765  0.5102 -0.6773  0.9357
 9237TIP3    H149202   2.122   1.676  16.746 -1.3588 -0.7834  1.8356
 9237TIP3    H249203   2.164   1.582  16.857  0.0150 -1.0908  1.0718
 9238TIP3   OH249204   4.826   1.562  13.605 -0.4448  0.0146  0.2049
 9238TIP3    H149205   4.836   1.611  13.687  0.4417 -1.2580  0.9080
 9238TIP3    H249206   4.733   1.544  13.599 -0.3081 -1.7022  2.1003
 9239TIP3   OH249207   2.062   5.210   0.099 -0.5978  0.3234  0.8199
 9239TIP3    H149208   2.092   5.294   0.134 -0.8730  0.8969 -0.2889
 9239TIP3    H249209   2.137   5.152   0.109 -0.1560  0.9048  0.9168
 9240TIP3   OH249210   1.851   5.981  13.779 -0.9867  0.6939 -0.1865
 9240TIP3    H149211   1.784   5.953  13.717  0.7384  0.9089 -2.2715
 9240TIP3    H249212   1.880   6.066  13.746  0.3213  0.5829  0.6239
 9241TIP3   OH249213   5.362   5.825  12.175  0.3030  0.2553  0.2240
 9241TIP3    H149214   5.362   5.901  12.233  1.0467  0.7433 -0.3894
 9241TIP3    H249215   5.433   5.770  12.208  1.9794  1.4010 -1.2648
 9242TIP3   OH249216   5.714   2.887  15.460 -0.1558 -0.3934  0.1282
 9242TIP3    H149217   5.654   2.834  15.408 -0.2453  0.4950 -0.6823
 9242TIP3    H249218   5.698   2.977  15.433 -0.9581  0.2353  2.4336
 9243TIP3   OH249219   4.006   6.256   0.709  0.0299 -0.2060  0.3099
 9243TIP3    H149220   4.097   6.239   0.684  0.0391 -0.4458  0.5051
 9243TIP3    H249221   3.960   6.175   0.686 -0.2272  0.0892 -0.2420
 9244TIP3   OH249222   1.968   2.592  15.454 -0.9416 -0.5263  0.0871
 9244TIP3    H149223   2.010   2.669  15.416  0.4954 -1.3642 -0.0785
 9244TIP3    H249224   1.958   2.614  15.546 -0.3572 -0.2283  0.0835
 9245TIP3   OH249225   5.836   0.439   6.176 -0.4513  0.1306 -0.4746
 9245TIP3    H149226   5.745   0.471   6.172 -0.5649 -0.3015 -2.3705
 9245TIP3    H249227   5.882   0.506   6.227 -1.8103  0.3680  0.5223
 9246TIP3   OH249228   0.754   1.976   3.286  0.3481 -0.0619 -0.3056
 9246TIP3    H149229   0.807   1.964   3.365  0.1035  0.7704  0.0059
 9246TIP3    H249230   0.665   1.993   3.320  0.3625  0.9347 -0.7177
 9247TIP3   OH249231   2.843   1.365   4.069 -0.5624  0.3369  0.2735
 9247TIP3    H149232   2.881   1.431   4.011 -0.2563  0.2627  0.3911
 9247TIP3    H249233   2.841   1.406   4.155 -0.4682  0.2272  0.3270
 9248TIP3   OH249234   1.238   1.656   5.077  0.5369  0.2666 -0.4243
 9248TIP3    H149235   1.178   1.725   5.049  1.0213 -0.1141 -2.5169
 9248TIP3    H249236   1.185   1.576   5.077  0.3118  0.3976  0.7071
 9249TIP3   OH249237   4.719   0.527   0.798  0.0934 -0.1014  0.3088
 9249TIP3    H149238   4.654   0.594   0.776  1.3593  2.0629  2.6312
 9249TIP3    H249239   4.676   0.471   0.862  0.0302  0.4958  0.8038
 9250TIP3   OH249240   0.847   3.442  14.154  0.1178  0.0033  0.1467
 9250TIP3    H149241   0.873   3.497  14.080  0.7525  1.2887  1.2898
 9250TIP3    H249242   0.923   3.387  14.170  0.2510  0.2340  0.3060
 9251TIP3   OH249243   5.765   5.935  13.031 -0.2155 -0.1167 -0.0391
 9251TIP3    H149244   5.840   5.983  13.065  0.7999 -1.6147 -0.0892
 9251TIP3    H249245   5.762   5.855  13.083 -1.8330 -0.0699 -0.0011
 9252TIP3   OH249246   3.143   3.204  16.163  0.3212 -0.4712 -0.0232
 9252TIP3    H149247   3.106   3.243  16.242  1.1512  2.1807 -0.8433
 9252TIP3    H249248   3.067   3.166  16.118 -0.6323  0.5435  0.6635
 9253TIP3   OH249249   5.644   5.503  11.223 -0.0670  0.0474  0.0026
 9253TIP3    H149250   5.729   5.530  11.188  0.0521 -0.0520  0.2170
 9253TIP3    H249251   5.620   5.428  11.169  2.5163 -3.5258  3.3108
 9254TIP3   OH249252   0.270   3.678   0.843  0.0945 -0.0057 -0.0220
 9254TIP3    H149253   0.215   3.721   0.909  0.7427  0.2804  0.3391
 9254TIP3    H249254   0.273   3.587   0.870 -2.8175 -0.7555 -1.8101
 9255TIP3   OH249255   4.637   6.169  15.138 -0.0176 -0.2583  0.0155
 9255TIP3    H149256   4.606   6.081  15.119  0.0758 -0.1494 -0.6786
 9255TIP3    H249257   4.590   6.195  15.217 -1.1686 -0.3622 -0.6185
 9256TIP3   OH249258   5.391   2.066  14.421  0.1674  0.1758 -0.0288
 9256TIP3    H149259   5.343   1.991  14.386 -0.1107 -0.7149  2.1223
 9256TIP3    H249260   5.385   2.133  14.352  0.8637 -1.8904 -2.2432
 9257TIP3   OH249261   2.573   3.755  15.258 -0.9443  0.0329 -0.1513
 9257TIP3    H149262   2.631   3.707  15.199 -2.3684 -2.0021 -0.0249
 9257TIP3    H249263   2.542   3.830  15.207  1.3113  0.8685 -0.3896
 9258TIP3   OH249264   0.124   2.300   0.345  0.2880 -0.2473 -0.4405
 9258TIP3    H149265   0.199   2.267   0.393  0.5906  2.2357  0.9578
 9258TIP3    H249266   0.160   2.363   0.283 -0.6490  2.7614  1.8309
 9259TIP3   OH249267   0.967   4.372   3.425  0.0774 -0.0489  0.0791
 9259TIP3    H149268   0.986   4.392   3.517  1.2432  2.4299 -0.6083
 9259TIP3    H249269   0.924   4.450   3.392  1.7453  0.0725 -2.0151
 9260TIP3   OH249270   0.629   6.190  11.352  0.4114  0.0444 -0.1987
 9260TIP3    H149271   0.657   6.122  11.290  0.2459 -1.1638  1.0125
 9260TIP3    H249272   0.665   6.272  11.316  1.8494 -0.8669 -0.9352
 9261TIP3   OH249273   4.187   4.407  14.775  0.0207  0.4045  0.4133
 9261TIP3    H149274   4.177   4.481  14.716  0.5006  1.4804  1.6407
 9261TIP3    H249275   4.097   4.378  14.793 -0.1495  0.4001 -0.3972
 9262TIP3   OH249276   2.326   2.073   2.472  0.4369 -0.1595  0.2654
 9262TIP3    H149277   2.415   2.099   2.447  1.6384 -0.8934  3.2504
 9262TIP3    H249278   2.336   1.983   2.503 -1.6991 -0.8017 -0.7940
 9263TIP3   OH249279   4.096   4.753   0.562  0.1945  0.1119  0.1127
 9263TIP3    H149280   4.050   4.738   0.479  1.6425  0.9443 -0.8881
 9263TIP3    H249281   4.186   4.772   0.536  1.0543 -1.1108  1.9737
 9264TIP3   OH249282   6.402   5.769  17.534  0.4924  0.1975 -0.6334
 9264TIP3    H149283   6.497   5.781  17.543  0.4807  0.0064 -0.2610
 9264TIP3    H249284   6.368   5.775  17.623  0.1786  0.0570 -0.7430
 9265TIP3   OH249285   2.649   2.577  13.056 -0.0484 -0.5359 -0.1851
 9265TIP3    H149286   2.657   2.627  13.137  1.2153  1.3904 -1.4311
 9265TIP3    H249287   2.561   2.599  13.023  0.7658  1.6705 -1.1245
 9266TIP3   OH249288   2.670   1.064  11.479  0.5257  0.4857  0.3240
 9266TIP3    H149289   2.608   1.002  11.517  0.5017  0.9522  1.0729
 9266TIP3    H249290   2.642   1.074  11.388  0.0393  0.0236  0.4191
 9267TIP3   OH249291   1.432   6.043   2.767 -0.5655 -0.5802 -0.6075
 9267TIP3    H149292   1.458   6.127   2.804 -0.4277 -0.5072 -0.8640
 9267TIP3    H249293   1.506   5.986   2.783 -2.0303 -1.7511  2.9189
 9268TIP3   OH249294   2.240   6.297  16.811 -0.2299  0.2946  0.1000
 9268TIP3    H149295   2.214   6.384  16.843 -0.1732  0.0029  0.9648
 9268TIP3    H249296   2.328   6.285  16.845 -0.5844 -0.4819  0.7740
 9269TIP3   OH249297   3.507   3.543  13.748 -0.1772  0.3818  0.4691
 9269TIP3    H149298   3.592   3.585  13.750  0.5918 -0.9574 -1.3957
 9269TIP3    H249299   3.520   3.460  13.794 -0.1240 -0.3282 -0.7683
 9270TIP3   OH249300   2.769   6.238   3.097  0.0836 -0.7852  0.5601
 9270TIP3    H149301   2.762   6.155   3.144 -0.2390 -0.4985  1.0195
 9270TIP3    H249302   2.852   6.231   3.049  0.2022 -1.2511  0.8298
 9271TIP3   OH249303   4.758   0.230  16.155  0.4603  0.3376  0.4069
 9271TIP3    H149304   4.677   0.240  16.204 -0.1403 -0.7700 -0.3087
 9271TIP3    H249305   4.800   0.153  16.193 -0.1833 -0.7523 -0.9773
 9272TIP3   OH249306   2.594   4.219   5.484  0.0766  0.0536  0.2616
 9272TIP3    H149307   2.508   4.260   5.488  0.1747  0.2726  0.0892
 9272TIP3    H249308   2.644   4.272   5.423 -0.0026 -0.7044 -0.4816
 9273TIP3   OH249309   3.174   0.571  11.565  0.2330 -0.6700 -0.5782
 9273TIP3    H149310   3.240   0.616  11.618  0.0333 -0.7671 -0.2481
 9273TIP3    H249311   3.223   0.504  11.517  0.3914 -0.6635 -0.4250
 9274TIP3   OH249312   4.838   0.511  14.506 -0.3725  0.1021  0.2900
 9274TIP3    H149313   4.846   0.580  14.439  0.7233 -1.2968 -1.1134
 9274TIP3    H249314   4.915   0.524  14.562  0.1595 -0.3223 -0.3305
 9275TIP3   OH249315   2.443   5.819   5.432 -0.4272 -0.1633  0.1573
 9275TIP3    H149316   2.503   5.808   5.505 -0.5086 -1.4892  0.0511
 9275TIP3    H249317   2.452   5.738   5.380 -1.5767  0.0210 -0.3811
 9276TIP3   OH249318   0.859   2.245  11.432 -0.3184  0.5163 -0.0693
 9276TIP3    H149319   0.801   2.238  11.356  0.1367 -0.1647 -0.3734
 9276TIP3    H249320   0.943   2.212  11.400 -0.6141 -1.7204  1.2564
 9277TIP3   OH249321   4.956   2.184   1.928 -0.7327 -0.5181  0.1863
 9277TIP3    H149322   4.885   2.163   1.988 -0.6601 -0.3765  0.3239
 9277TIP3    H249323   4.987   2.270   1.958  0.7003 -1.3655  1.2873
 9278TIP3   OH249324   1.845   2.917  11.595 -0.4431 -0.1816 -0.0414
 9278TIP3    H149325   1.834   2.893  11.687 -0.7635 -0.4717 -0.1520
 9278TIP3    H249326   1.779   2.866  11.548 -0.3392  0.0256 -0.4252
 9279TIP3   OH249327   3.720   5.468  16.253  0.3777 -0.0397 -0.2960
 9279TIP3    H149328   3.787   5.533  16.235 -2.2297  3.2615  0.8313
 9279TIP3    H249329   3.754   5.419  16.329  1.9277  0.7958 -0.4136
 9280TIP3   OH249330   6.058   1.798  12.266 -0.2250  0.4677  0.6657
 9280TIP3    H149331   6.146   1.799  12.303  0.2972 -1.9279 -0.3006
 9280TIP3    H249332   6.057   1.870  12.203  1.9394 -0.8826 -1.0674
 9281TIP3   OH249333   3.017   1.774   2.374 -0.2309 -0.2547 -0.2228
 9281TIP3    H149334   2.974   1.842   2.425  0.8579  0.0100  0.3803
 9281TIP3    H249335   3.022   1.811   2.285 -1.9591 -0.6416 -0.4994
 9282TIP3   OH249336   2.313   1.501  12.051 -0.2680 -0.5047 -0.1598
 9282TIP3    H149337   2.391   1.548  12.023 -1.0642  1.3700  0.5791
 9282TIP3    H249338   2.242   1.565  12.042 -1.5347 -1.8093  0.1991
 9283TIP3   OH249339   4.051   5.173  14.937  0.1624 -0.0211  0.0733
 9283TIP3    H149340   4.004   5.110  14.882 -0.0194  0.8781 -0.8412
 9283TIP3    H249341   3.998   5.252  14.932  1.3780  0.7968 -0.3902
 9284TIP3   OH249342   1.755   1.347   3.972 -0.2456  0.2673 -0.3700
 9284TIP3    H149343   1.709   1.291   4.035  1.3041  1.0649  1.5691
 9284TIP3    H249344   1.827   1.294   3.940  1.3323  1.0923  1.6051
 9285TIP3   OH249345   3.154   5.040  15.200  0.0178 -0.2835  0.1043
 9285TIP3    H149346   3.166   5.035  15.295  2.1379 -1.5673 -0.1634
 9285TIP3    H249347   3.138   5.132  15.183 -0.0355  0.0348  1.6744
 9286TIP3   OH249348   4.658   6.687   1.372 -0.0008 -0.0302 -0.4938
 9286TIP3    H149349   4.595   6.736   1.424  1.3416  1.2951 -0.0607
 9286TIP3    H249350   4.655   6.598   1.409  1.9304  1.1433  2.9389
 9287TIP3   OH249351   6.052   0.551  13.888  0.6270 -0.3863 -0.6733
 9287TIP3    H149352   5.962   0.580  13.904  0.5302  0.3668 -2.3893
 9287TIP3    H249353   6.043   0.472  13.835  0.9781 -0.3140 -0.8425
 9288TIP3   OH249354   5.687   6.204  10.770 -0.1216 -0.6548  0.3087
 9288TIP3    H149355   5.613   6.143  10.778 -1.1681  0.5778  0.2265
 9288TIP3    H249356   5.741   6.166  10.701 -1.4274 -0.8468 -0.6444
 9289TIP3   OH249357   1.833   4.398  11.396  0.1793 -0.6988  0.4634
 9289TIP3    H149358   1.786   4.393  11.313 -0.1760 -0.3032  0.6371
 9289TIP3    H249359   1.771   4.365  11.461 -1.1016  2.6876  1.1820
 9290TIP3   OH249360   2.335   5.637   2.228  0.4609  0.6060 -0.0152
 9290TIP3    H149361   2.396   5.572   2.261  0.3218  0.7930  0.6276
 9290TIP3    H249362   2.251   5.591   2.221  0.3588  0.7185  0.4557
 9291TIP3   OH249363   6.326   5.262   2.160  0.0270  0.3656  0.7755
 9291TIP3    H149364   6.307   5.278   2.067 -0.3149  1.5059  1.0233
 9291TIP3    H249365   6.332   5.349   2.198  1.1115 -0.0704  1.6523
 9292TIP3   OH249366   3.378   4.356   3.644  0.0037  0.2339  0.3422
 9292TIP3    H149367   3.333   4.320   3.567  0.1516  0.7658  0.0066
 9292TIP3    H249368   3.405   4.278   3.693 -3.4916 -0.2005  1.9096
 9293TIP3   OH249369   2.134   2.836  13.867  0.3912  0.1934 -0.2836
 9293TIP3    H149370   2.183   2.780  13.927 -0.0185  1.0038  0.8513
 9293TIP3    H249371   2.091   2.776  13.807  1.7813 -0.5876 -0.5384
 9294TIP3   OH249372   3.668   3.054   4.556 -0.8518 -0.0215 -0.2460
 9294TIP3    H149373   3.621   2.976   4.587 -2.1307  0.3927 -1.0746
 9294TIP3    H249374   3.751   3.019   4.523 -1.9731 -1.2679 -1.9284
 9295TIP3   OH249375   3.490   5.007  15.096 -0.2833 -0.1416 -0.8663
 9295TIP3    H149376   3.465   4.915  15.097  0.2790 -0.3017  0.3162
 9295TIP3    H249377   3.576   5.010  15.139 -1.0994  1.1339  0.8120
 9296TIP3   OH249378   0.228   1.712   5.608 -0.0905 -0.8945 -0.5359
 9296TIP3    H149379   0.164   1.656   5.564  1.8084 -4.8945  1.2489
 9296TIP3    H249380   0.307   1.704   5.554 -0.2058  1.6665 -1.1908
 9297TIP3   OH249381   5.164   2.181  12.211 -0.1126 -0.0769  0.0986
 9297TIP3    H149382   5.169   2.138  12.126  1.5085 -0.5747  0.4117
 9297TIP3    H249383   5.082   2.150  12.249  0.6421 -2.3437  0.0043
 9298TIP3   OH249384   6.065   2.318  13.498  0.2858 -0.4231 -0.1573
 9298TIP3    H149385   6.059   2.313  13.593  1.7979  0.1193 -0.0133
 9298TIP3    H249386   6.029   2.404  13.476  0.0635 -0.4908 -0.0570
 9299TIP3   OH249387   5.101   0.178   0.761 -0.3481  0.1286 -0.4300
 9299TIP3    H149388   5.130   0.174   0.852 -2.1022  2.9622  0.3928
 9299TIP3    H249389   5.128   0.265   0.731  0.9064 -1.0266 -2.9470
 9300TIP3   OH249390   1.402   4.336   6.332  0.2391  0.1577 -0.1044
 9300TIP3    H149391   1.446   4.271   6.386 -2.1365 -1.4275  0.0898
 9300TIP3    H249392   1.429   4.421   6.368  2.6765 -0.6913  0.2372
 9301TIP3   OH249393   1.451   6.675   1.468 -0.0692 -0.6014 -0.1171
 9301TIP3    H149394   1.467   6.768   1.450  0.2014 -0.4814  0.6703
 9301TIP3    H249395   1.386   6.676   1.539  2.0347 -0.9071  1.9456
 9302TIP3   OH249396   1.323   3.446  12.836 -0.4539  0.2038 -0.1016
 9302TIP3    H149397   1.403   3.495  12.858  0.1459 -1.0235  0.5825
 9302TIP3    H249398   1.280   3.498  12.768  1.1305  0.6925 -0.7674
 9303TIP3   OH249399   2.515   0.220   2.815 -0.2124 -0.0968  0.7712
 9303TIP3    H149400   2.435   0.244   2.863 -0.6472 -0.7071  0.3694
 9303TIP3    H249401   2.539   0.134   2.850 -0.0470 -0.1587  0.5076
 9304TIP3   OH249402   3.983   2.896  13.255  0.1609  0.4477 -0.1551
 9304TIP3    H149403   3.921   2.967  13.239 -0.9753  0.5510  3.7011
 9304TIP3    H249404   4.047   2.934  13.315 -0.2661 -1.5818  1.7012
 9305TIP3   OH249405   2.421   5.505  12.845 -0.2526 -0.1322 -0.3709
 9305TIP3    H149406   2.442   5.553  12.764 -0.5001 -1.8064 -1.4694
 9305TIP3    H249407   2.391   5.573  12.906  0.0630  1.1895 -1.6277
 9306TIP3   OH249408   2.614   2.187   4.609  0.7139 -0.0252 -0.3509
 9306TIP3    H149409   2.619   2.094   4.634 -0.8416 -0.2976 -0.9301
 9306TIP3    H249410   2.542   2.222   4.662  0.6887  0.6174 -0.8011
 9307TIP3   OH249411   5.787   3.177  12.397 -0.1035  0.0346 -0.1815
 9307TIP3    H149412   5.857   3.225  12.442 -0.4224  1.0761 -0.7683
 9307TIP3    H249413   5.709   3.231  12.407 -0.6870 -0.7875 -0.1164
 9308TIP3   OH249414   4.646   3.345  16.427  0.0915  0.2668  0.4238
 9308TIP3    H149415   4.600   3.330  16.344  0.4659  0.7218  0.1338
 9308TIP3    H249416   4.598   3.417  16.467  0.2558  0.4199  0.3443
 9309TIP3   OH249417   1.420   2.768  15.242 -0.7843 -0.3838 -0.0582
 9309TIP3    H149418   1.353   2.749  15.308  0.6692 -1.8838  1.0512
 9309TIP3    H249419   1.472   2.689  15.237 -0.5628 -0.1395 -2.7342
 9310TIP3   OH249420   5.562   0.161   3.908 -0.2657 -0.2244 -0.5449
 9310TIP3    H149421   5.633   0.104   3.937 -1.3855  0.0419  3.2372
 9310TIP3    H249422   5.486   0.102   3.902 -0.9835  0.4337  1.4204
 9311TIP3   OH249423   3.611   2.822  16.502 -0.3793 -0.7384 -0.0307
 9311TIP3    H149424   3.621   2.822  16.407 -0.7043  0.4856 -0.0769
 9311TIP3    H249425   3.605   2.914  16.526  0.5895 -0.9896  1.2820
 9312TIP3   OH249426   3.183   0.783  15.163 -0.3446  0.2415 -0.2795
 9312TIP3    H149427   3.133   0.838  15.224  0.0564 -0.5263  0.7829
 9312TIP3    H249428   3.264   0.831  15.148  0.3364 -0.3616  1.2467
 9313TIP3   OH249429   3.948   2.083   1.677 -0.2575 -0.7430  0.1385
 9313TIP3    H149430   4.035   2.060   1.709 -0.4126 -0.3947  0.8235
 9313TIP3    H249431   3.908   1.999   1.655 -0.0674 -0.9716  0.6542
 9314TIP3   OH249432   2.529   1.017  13.638  0.2033 -1.0398  0.0709
 9314TIP3    H149433   2.577   1.099  13.624  1.9544 -2.0578 -0.1356
 9314TIP3    H249434   2.595   0.957  13.672 -0.6705 -2.8135 -1.2355
 9315TIP3   OH249435   0.187   3.466  11.427  0.1289  0.3185  0.2000
 9315TIP3    H149436   0.280   3.451  11.444 -0.1614 -0.2414  1.3907
 9315TIP3    H249437   0.156   3.386  11.386  0.4624  1.0442 -1.5457
 9316TIP3   OH249438   0.281   0.564  16.067  0.0347 -0.1648 -0.2989
 9316TIP3    H149439   0.284   0.501  16.139  2.1410  0.1168 -0.0560
 9316TIP3    H249440   0.194   0.603  16.073  0.2225  0.0881  2.3314
 9317TIP3   OH249441   4.322   1.287  14.347  0.6007 -0.5269  0.1161
 9317TIP3    H149442   4.321   1.377  14.378  1.0882  0.0566 -1.4848
 9317TIP3    H249443   4.350   1.236  14.423  0.5421  0.6843  0.9786
 9318TIP3   OH249444   0.660   4.621  16.330  0.5268  0.2128 -0.5107
 9318TIP3    H149445   0.602   4.604  16.256  0.1582  0.2861 -0.2415
 9318TIP3    H249446   0.640   4.711  16.356  0.8494  0.2813 -0.4941
 9319TIP3   OH249447   0.527   4.252   5.921 -0.2501  0.4214 -0.4384
 9319TIP3    H149448   0.471   4.314   5.967  1.0915  1.4272 -0.1124
 9319TIP3    H249449   0.608   4.250   5.971 -0.2037 -1.5115 -0.5278
 9320TIP3   OH249450   3.128   3.677   4.855 -0.1020  0.0218 -0.3739
 9320TIP3    H149451   3.101   3.607   4.914  1.6886  0.5769  1.2436
 9320TIP3    H249452   3.047   3.720   4.829 -1.0416 -0.9327  0.8533
 9321TIP3   OH249453   6.509   5.583   4.570  0.1997  0.1426 -0.8130
 9321TIP3    H149454   6.529   5.672   4.541  1.0465 -0.5744 -2.5994
 9321TIP3    H249455   6.443   5.551   4.509  1.0527 -0.9747 -1.1920
 9322TIP3   OH249456   4.709   1.794   6.042  0.0095  0.1534  0.3050
 9322TIP3    H149457   4.761   1.866   6.008  0.4781 -1.0303 -1.6596
 9322TIP3    H249458   4.621   1.808   6.007  0.1190 -0.2331 -0.1433
 9323TIP3   OH249459   3.084   3.466   1.535  0.3749  0.4407 -0.6547
 9323TIP3    H149460   3.087   3.562   1.541 -0.1288  0.3703  1.3515
 9323TIP3    H249461   3.098   3.436   1.624 -0.3540 -1.3457 -1.1046
 9324TIP3   OH249462   1.618   6.497  11.852 -0.0272 -0.2946 -0.0417
 9324TIP3    H149463   1.621   6.537  11.765 -0.5153  0.1601  0.1488
 9324TIP3    H249464   1.612   6.403  11.835  0.4832 -0.2523 -0.4953
 9325TIP3   OH249465   1.671   2.318  15.421  0.1865  0.3262 -0.5081
 9325TIP3    H149466   1.686   2.246  15.360  0.3731 -1.0929  1.1390
 9325TIP3    H249467   1.757   2.335  15.460  0.0146  1.0291 -0.4106
 9326TIP3   OH249468   5.009   5.518   1.809  0.0181 -0.1365  0.0996
 9326TIP3    H149469   5.023   5.428   1.839 -1.2709 -0.4319 -0.1408
 9326TIP3    H249470   4.998   5.569   1.888  1.3002 -0.0650  0.2631
 9327TIP3   OH249471   1.050   1.100   4.897  0.0466 -0.6820  0.1812
 9327TIP3    H149472   0.963   1.129   4.870  0.9569  0.3967 -1.8122
 9327TIP3    H249473   1.066   1.147   4.980 -0.2341  1.2691 -0.8026
 9328TIP3   OH249474   3.741   6.202  17.652  0.2473 -0.7929  0.5819
 9328TIP3    H149475   3.827   6.238  17.672 -0.0268  0.1101  0.2311
 9328TIP3    H249476   3.758   6.132  17.589  0.7329 -0.6751  0.5766
 9329TIP3   OH249477   4.069   5.811  16.140 -0.1316 -1.0287  0.5365
 9329TIP3    H149478   3.981   5.802  16.175 -0.1213 -2.5177  0.2388
 9329TIP3    H249479   4.065   5.771  16.053  1.1869 -2.6277  1.1514
 9330TIP3   OH249480   4.508   4.092  17.234  0.4227  0.0911 -0.5187
 9330TIP3    H149481   4.469   4.112  17.149 -0.4930 -1.8753 -0.6156
 9330TIP3    H249482   4.523   3.998  17.232  1.3349  0.1664  1.1335
 9331TIP3   OH249483   4.727   2.850   4.003  0.1675 -0.3872  1.0629
 9331TIP3    H149484   4.692   2.767   4.036 -0.4558  0.1295  1.7115
 9331TIP3    H249485   4.762   2.828   3.917  0.7146 -1.4957  1.5446
 9332TIP3   OH249486   5.008   4.636  14.009 -0.3497  0.0357 -0.7469
 9332TIP3    H149487   4.959   4.554  14.021  0.7746 -0.3212  2.3836
 9332TIP3    H249488   4.961   4.700  14.063  1.2360  0.2725  0.4174
 9333TIP3   OH249489   2.660   4.502   6.052 -0.2357  0.4897  0.1049
 9333TIP3    H149490   2.570   4.514   6.021 -0.4593 -0.6409  0.2694
 9333TIP3    H249491   2.652   4.442   6.126  0.5297  1.4418  0.9920
 9334TIP3   OH249492   3.565   4.186  14.825  0.0297  0.4446 -0.0714
 9334TIP3    H149493   3.642   4.130  14.837 -0.0826  0.5315  1.2072
 9334TIP3    H249494   3.493   4.137  14.865 -0.4952  0.5862 -0.8114
 9335TIP3   OH249495   3.040   3.263  17.211  0.1610 -0.4989 -0.2131
 9335TIP3    H149496   2.969   3.312  17.252  0.3464  2.1218 -2.6539
 9335TIP3    H249497   3.119   3.292  17.257 -0.0100 -0.5856  0.1328
 9336TIP3   OH249498   2.116   0.829  13.600  0.1131 -0.4825  0.1715
 9336TIP3    H149499   2.191   0.882  13.630 -1.0758  1.3233  0.0884
 9336TIP3    H249500   2.044   0.855  13.658 -1.1814 -0.0197 -1.5643
 9337TIP3   OH249501   3.708   4.383  12.014  0.1564  0.3333 -0.1674
 9337TIP3    H149502   3.683   4.410  11.926 -0.4567 -2.6733 -1.0338
 9337TIP3    H249503   3.628   4.393  12.066 -0.3800 -0.7830 -0.7446
 9338TIP3   OH249504   3.641   6.464   0.047 -0.1155  0.2485  0.1945
 9338TIP3    H149505   3.581   6.424   0.110  0.9043 -1.8971 -0.0910
 9338TIP3    H249506   3.680   6.390   0.002  0.6446  1.6737 -1.6141
 9339TIP3   OH249507   1.545   2.245   1.086 -0.3565  0.0255  0.1134
 9339TIP3    H149508   1.619   2.193   1.117  1.6237  1.1736 -2.3336
 9339TIP3    H249509   1.552   2.327   1.134  0.6077  0.5013 -0.8043
 9340TIP3   OH249510   0.944   6.019   2.855  0.2717  0.0502 -0.2294
 9340TIP3    H149511   1.025   6.008   2.905  0.6388  1.9115 -0.3114
 9340TIP3    H249512   0.969   6.075   2.781 -0.6045 -1.3063 -1.6040
 9341TIP3   OH249513   2.097   4.301  16.535  0.6867  0.2655 -0.7278
 9341TIP3    H149514   2.017   4.323  16.583  1.4524 -0.8405  1.1727
 9341TIP3    H249515   2.068   4.241  16.467 -0.1028 -0.2286  0.0241
 9342TIP3   OH249516   1.850   2.647   7.023  0.0781 -0.1314 -0.2886
 9342TIP3    H149517   1.931   2.612   7.059  0.7141 -1.6170 -2.8746
 9342TIP3    H249518   1.816   2.576   6.968 -2.9657  0.4665  0.6019
 9343TIP3   OH249519   0.944   4.874  14.147 -0.0804  0.0202  0.2319
 9343TIP3    H149520   0.956   4.834  14.060  1.1111 -1.1591  0.9057
 9343TIP3    H249521   0.856   4.846  14.173 -0.7594  1.0165 -0.8898
 9344TIP3   OH249522   2.771   3.646   3.675 -0.5104 -0.2501  0.3181
 9344TIP3    H149523   2.717   3.678   3.603 -1.0068  2.2784  1.6659
 9344TIP3    H249524   2.835   3.589   3.634 -1.4632  0.2104 -1.9514
 9345TIP3   OH249525   2.654   1.651  15.598  0.1907 -0.1356 -0.0037
 9345TIP3    H149526   2.671   1.559  15.581  0.5510 -0.3535  1.4072
 9345TIP3    H249527   2.615   1.653  15.685 -1.9660  0.8641 -0.9162
 9346TIP3   OH249528   2.010   3.352   4.632 -0.0038 -0.1202  0.1902
 9346TIP3    H149529   1.998   3.420   4.566 -3.9868 -2.0690 -1.5038
 9346TIP3    H249530   1.989   3.394   4.715 -0.7872  1.1275 -0.6074
 9347TIP3   OH249531   2.609   5.004  11.758  0.3568 -0.2345 -0.1171
 9347TIP3    H149532   2.534   4.961  11.801 -0.8612  3.0524  1.3808
 9347TIP3    H249533   2.617   5.088  11.803  2.0433  1.4981 -3.3371
 9348TIP3   OH249534   2.431   3.536   0.539  0.5591 -0.6307 -0.7167
 9348TIP3    H149535   2.421   3.561   0.447 -0.5996  0.9669 -0.1987
 9348TIP3    H249536   2.412   3.616   0.588  1.8098 -1.2794  0.9155
 9349TIP3   OH249537   1.198   6.043   4.945 -0.1743  0.4187 -0.0578
 9349TIP3    H149538   1.140   6.118   4.930  0.2412  0.5762 -0.9505
 9349TIP3    H249539   1.142   5.976   4.982 -0.4775  1.3117  1.1645
 9350TIP3   OH249540   5.009   0.661   1.654  0.0642 -0.5809  0.2696
 9350TIP3    H149541   5.090   0.612   1.668  0.6135 -0.2633 -1.5633
 9350TIP3    H249542   5.026   0.748   1.691  0.6680 -0.4195 -0.3838
 9351TIP3   OH249543   5.873   5.204  14.664 -0.0532  0.2710 -0.1179
 9351TIP3    H149544   5.832   5.218  14.750 -1.0317 -0.7726 -0.3950
 9351TIP3    H249545   5.799   5.194  14.604  0.6241 -0.2030 -0.8914
 9352TIP3   OH249546   2.894   1.246  13.121  1.0005  0.1756 -0.5307
 9352TIP3    H149547   2.962   1.256  13.187  0.1824  1.5923  0.1470
 9352TIP3    H249548   2.813   1.236  13.171  0.4855  0.3135 -1.3113
 9353TIP3   OH249549   6.398   4.835  13.996 -0.3347 -0.1134  0.0934
 9353TIP3    H149550   6.411   4.794  13.911  1.4766 -0.0893  0.2989
 9353TIP3    H249551   6.319   4.888  13.986 -0.1196 -0.0565 -1.5915
 9354TIP3   OH249552   1.263   5.022   1.949 -0.2667 -0.5777 -0.1123
 9354TIP3    H149553   1.260   4.935   1.990  0.8176  0.0532  1.3923
 9354TIP3    H249554   1.348   5.025   1.905  0.5889  0.3922  1.5140
 9355TIP3   OH249555   4.521   2.752   6.175 -0.1446  0.0801 -0.3850
 9355TIP3    H149556   4.481   2.721   6.256 -2.4263  0.6952 -1.1890
 9355TIP3    H249557   4.468   2.828   6.151  2.7076  2.1328 -0.6085
 9356TIP3   OH249558   0.050   3.901   1.512 -0.2782 -0.5770  0.1613
 9356TIP3    H149559   0.064   3.876   1.421  0.9312 -1.0149  0.4593
 9356TIP3    H249560   0.038   3.818   1.558 -1.5532 -0.3299  0.3189
 9357TIP3   OH249561   1.254   6.623  13.318  0.0278  0.4022  0.1766
 9357TIP3    H149562   1.303   6.699  13.286  1.3659 -0.3806  0.3079
 9357TIP3    H249563   1.320   6.555  13.331 -1.0697 -0.6237  0.5839
 9358TIP3   OH249564   2.261   0.487  15.709  0.3436  0.0320 -0.3176
 9358TIP3    H149565   2.219   0.572  15.723 -0.0861 -0.4255  1.5002
 9358TIP3    H249566   2.353   0.508  15.694  0.7055  0.7919  2.3766
 9359TIP3   OH249567   0.309   2.396   2.359  0.2393 -0.1434 -0.2588
 9359TIP3    H149568   0.402   2.374   2.356  0.8548  1.6867  2.0718
 9359TIP3    H249569   0.297   2.461   2.289  0.7818 -0.2039 -0.4130
 9360TIP3   OH249570   1.717   3.195   4.595 -0.5910 -0.1469 -0.0935
 9360TIP3    H149571   1.804   3.213   4.559 -0.7183  0.2832 -0.1995
 9360TIP3    H249572   1.714   3.246   4.677 -0.6596 -0.3370  0.0225
 9361TIP3   OH249573   5.549   4.650  12.574  0.3688 -0.4718 -0.5539
 9361TIP3    H149574   5.486   4.717  12.602  0.5269 -0.1415 -0.9810
 9361TIP3    H249575   5.531   4.575  12.630 -1.1280 -0.7632 -1.3983
 9362TIP3   OH249576   4.943   2.760   1.304 -0.1870 -0.5129  0.2356
 9362TIP3    H149577   4.973   2.808   1.382 -0.9651 -0.9599  0.8196
 9362TIP3    H249578   4.848   2.769   1.305 -0.3553 -2.0403  0.3549
 9363TIP3   OH249579   4.056   3.094  13.859  0.0791  0.1979 -0.0523
 9363TIP3    H149580   3.965   3.082  13.832  0.0501 -0.8312  0.4482
 9363TIP3    H249581   4.083   3.007  13.889  0.9156  0.7292  0.7649
 9364TIP3   OH249582   4.591   6.436   2.141 -0.5828 -0.0674  0.4563
 9364TIP3    H149583   4.555   6.405   2.058  0.1322  1.6614 -0.5605
 9364TIP3    H249584   4.613   6.528   2.125 -0.9348  0.4756  2.7443
 9365TIP3   OH249585   5.247   2.149  17.153  0.2454 -0.1671  0.4001
 9365TIP3    H149586   5.310   2.077  17.150  0.1226 -0.3885  2.0399
 9365TIP3    H249587   5.184   2.128  17.083 -0.4162 -2.2942  1.5228
 9366TIP3   OH249588   3.175   6.411  14.668 -0.3108  0.1937  0.1594
 9366TIP3    H149589   3.250   6.395  14.726 -0.0066  1.7603  0.2466
 9366TIP3    H249590   3.131   6.487  14.707  0.4071  1.8723 -2.0980
 9367TIP3   OH249591   1.533   4.527   2.495  0.0142  0.3749 -0.3690
 9367TIP3    H149592   1.538   4.522   2.400  0.7895 -0.1760 -0.3115
 9367TIP3    H249593   1.495   4.443   2.521 -2.7344  1.5535 -0.3272
 9368TIP3   OH249594   4.992   0.626   2.779 -0.1735 -0.1406 -0.1106
 9368TIP3    H149595   5.017   0.557   2.718  1.6755  0.4800 -0.1130
 9368TIP3    H249596   4.965   0.579   2.858 -0.9335 -0.8993 -0.8052
 9369TIP3   OH249597   5.675   2.051  15.659  0.0548  0.5493 -0.1415
 9369TIP3    H149598   5.708   1.991  15.726 -0.6385  0.6950  0.3387
 9369TIP3    H249599   5.754   2.089  15.620  0.4825 -0.1825 -0.0091
 9370TIP3   OH249600   3.068   2.862  13.830 -0.3638 -0.0780 -0.7572
 9370TIP3    H149601   3.044   2.793  13.769  1.2132  0.0380 -1.5716
 9370TIP3    H249602   3.077   2.818  13.914 -0.7519 -0.5981 -0.9859
 9371TIP3   OH249603   1.151   2.425  12.011  0.1942 -0.2643  0.5805
 9371TIP3    H149604   1.058   2.420  11.992  0.5859 -1.3073 -1.2861
 9371TIP3    H249605   1.165   2.362  12.081 -0.6120  0.4770  1.4285
 9372TIP3   OH249606   0.170   3.019   4.087  0.2611 -0.0271 -0.1443
 9372TIP3    H149607   0.123   3.101   4.070  0.2675 -0.0755 -0.4100
 9372TIP3    H249608   0.134   2.957   4.023 -0.5601 -0.5500  0.7952
 9373TIP3   OH249609   3.326   6.177   5.179  0.3597 -0.3703  0.6960
 9373TIP3    H149610   3.364   6.255   5.140 -0.3499 -0.1407  0.4581
 9373TIP3    H249611   3.357   6.105   5.124  0.6926 -0.2191  0.6842
 9374TIP3   OH249612   3.824   6.036   4.447 -0.7984  1.0096  0.4460
 9374TIP3    H149613   3.736   6.015   4.478 -0.0764 -0.9481  1.3460
 9374TIP3    H249614   3.843   6.122   4.485 -2.1814  1.2993  0.5268
 9375TIP3   OH249615   1.631   1.795   5.071 -0.6855  1.1482 -0.4247
 9375TIP3    H149616   1.712   1.800   5.121 -0.2473  3.8114 -1.2465
 9375TIP3    H249617   1.563   1.825   5.131 -1.1062 -0.9081  0.2057
 9376TIP3   OH249618   6.427   3.027   5.773  0.4768 -0.0746  0.1978
 9376TIP3    H149619   6.496   3.005   5.837 -0.3259 -1.3717  0.6671
 9376TIP3    H249620   6.475   3.053   5.694  1.5242 -0.9458  0.5206
 9377TIP3   OH249621   1.417   5.376  12.528  0.4307 -0.1719  0.3620
 9377TIP3    H149622   1.349   5.324  12.486 -0.3933  1.3076 -0.2162
 9377TIP3    H249623   1.414   5.460  12.483 -0.9107  1.7494  3.6963
 9378TIP3   OH249624   6.086   1.550  14.988 -0.5156 -0.4769 -0.3511
 9378TIP3    H149625   6.162   1.505  15.024 -2.0179 -2.4917  0.5088
 9378TIP3    H249626   6.114   1.580  14.901  1.7411  0.4024  0.6103
 9379TIP3   OH249627   0.933   1.514   5.771  0.5421  0.0452 -0.2284
 9379TIP3    H149628   1.028   1.500   5.777  0.3575 -1.4012 -0.5153
 9379TIP3    H249629   0.906   1.530   5.862  1.5017  4.0097 -0.4254
 9380TIP3   OH249630   0.983   2.093  13.478  0.4196  0.0078  0.3509
 9380TIP3    H149631   1.055   2.138  13.522 -0.4152  1.3801  0.3773
 9380TIP3    H249632   0.906   2.114  13.531 -0.4137  0.6914 -1.0709
 9381TIP3   OH249633   4.203   4.581  15.485 -0.0374 -0.2779  0.4536
 9381TIP3    H149634   4.205   4.660  15.539  2.5416  0.5031 -0.6340
 9381TIP3    H249635   4.156   4.608  15.406  1.6460  0.5381 -0.3222
 9382TIP3   OH249636   6.062   2.718   4.656 -0.1222 -0.1645  0.3198
 9382TIP3    H149637   6.156   2.700   4.659  0.6060  2.8656 -0.8139
 9382TIP3    H249638   6.046   2.773   4.733 -0.6738  0.5384 -0.2904
 9383TIP3   OH249639   1.129   5.529   0.005 -0.2060  0.2474 -0.1235
 9383TIP3    H149640   1.073   5.579   0.064  0.9068 -0.0457  1.2342
 9383TIP3    H249641   1.100   5.439   0.015 -0.7954  0.3270 -0.9575
 9384TIP3   OH249642   5.981   2.005   2.138  0.0459  0.1531  0.3609
 9384TIP3    H149643   6.066   2.048   2.143 -0.2315  0.6473  1.1395
 9384TIP3    H249644   5.941   2.039   2.058 -0.6460  2.3106  1.5504
 9385TIP3   OH249645   3.629   4.222  14.569  0.0887 -0.8681 -0.2397
 9385TIP3    H149646   3.724   4.229  14.558 -0.0032 -1.4030 -1.6468
 9385TIP3    H249647   3.616   4.205  14.662  1.4135 -1.2756 -0.1139
 9386TIP3   OH249648   2.930   6.005  11.918  0.1602  0.2267 -0.8020
 9386TIP3    H149649   2.928   6.089  11.874  2.9018  0.7806 -0.0673
 9386TIP3    H249650   3.017   6.001  11.960  0.6396 -3.4209 -1.7580
 9387TIP3   OH249651   3.097   3.511   0.533  0.9521 -0.7220  0.0988
 9387TIP3    H149652   3.026   3.457   0.567 -0.9628  0.4132 -1.8177
 9387TIP3    H249653   3.108   3.580   0.599 -0.0592 -0.6638  0.2230
 9388TIP3   OH249654   2.316   3.730   1.081 -0.0976  0.1577 -0.3349
 9388TIP3    H149655   2.283   3.700   1.166 -2.3863  0.7071 -0.9663
 9388TIP3    H249656   2.409   3.706   1.082 -0.4475 -1.4285  1.6104
 9389TIP3   OH249657   6.639   6.251   1.348  0.5792 -0.1160  0.5653
 9389TIP3    H149658   6.663   6.161   1.326 -0.1586 -0.1579 -0.1405
 9389TIP3    H249659   6.717   6.302   1.330 -0.2796  0.0710 -3.6939
 9390TIP3   OH249660   2.038   3.611   2.960  0.3959 -0.0289 -0.0563
 9390TIP3    H149661   1.967   3.608   3.024  0.8436 -2.2180  0.4372
 9390TIP3    H249662   1.996   3.638   2.879 -0.9058 -0.6584  0.3737
 9391TIP3   OH249663   5.486   4.682   3.729 -0.5180  0.0932  0.4034
 9391TIP3    H149664   5.565   4.634   3.706 -0.7318  0.5293 -1.3838
 9391TIP3    H249665   5.490   4.691   3.824  0.7079 -1.3725  0.5236
 9392TIP3   OH249666   1.679   2.754  12.474  0.6522  0.1183  0.3642
 9392TIP3    H149667   1.667   2.849  12.479 -0.4050  0.1013 -1.1737
 9392TIP3    H249668   1.715   2.739  12.386 -0.0759 -0.9676  0.2356
 9393TIP3   OH249669   1.513   3.753   6.754 -0.2493 -0.9706  0.6390
 9393TIP3    H149670   1.514   3.664   6.718 -0.3515 -0.4011 -0.8422
 9393TIP3    H249671   1.436   3.794   6.715  0.7344  0.2905 -0.0699
 9394TIP3   OH249672   5.257   5.724   1.500 -0.4099 -0.4005  0.2811
 9394TIP3    H149673   5.286   5.633   1.499 -0.7464 -0.5574  1.9239
 9394TIP3    H249674   5.161   5.719   1.500 -0.5314  0.0634 -2.6541
 9395TIP3   OH249675   0.876   2.450  15.231 -0.3218  0.1185  0.2996
 9395TIP3    H149676   0.782   2.436  15.247 -1.0998  0.8415 -2.9259
 9395TIP3    H249677   0.886   2.545  15.226  0.3361  0.0260 -0.4318
 9396TIP3   OH249678   6.624   6.056  15.854  1.0004  0.2940  0.4043
 9396TIP3    H149679   6.661   6.142  15.834  0.9122  0.2068 -0.1789
 9396TIP3    H249680   6.548   6.049  15.795 -1.6903  1.6196  3.4425
 9397TIP3   OH249681   1.214   5.781   0.516  0.0864 -0.4670  0.6029
 9397TIP3    H149682   1.217   5.872   0.546  0.6562 -0.7313  1.3995
 9397TIP3    H249683   1.136   5.745   0.558  1.3781 -1.0864  2.6119
 9398TIP3   OH249684   0.336   5.667  13.820  0.2042  0.2005  0.0709
 9398TIP3    H149685   0.326   5.748  13.769 -0.3321  0.4408  0.5517
 9398TIP3    H249686   0.315   5.598  13.757  0.4570  0.4436 -0.2892
 9399TIP3   OH249687   2.983   0.937   2.689  0.0061 -0.2495  0.4266
 9399TIP3    H149688   3.064   0.887   2.682  0.3864  0.3897  0.1794
 9399TIP3    H249689   2.993   0.988   2.770 -0.5678 -0.8897  0.9150
 9400TIP3   OH249690   5.645   4.254  15.746  0.1778  0.2750 -0.0831
 9400TIP3    H149691   5.579   4.262  15.677  0.0075  0.1407  0.0644
 9400TIP3    H249692   5.683   4.167  15.733  0.0926  0.2203  0.0409
 9401TIP3   OH249693   2.685   3.267   0.095 -0.3920  0.4438  0.8720
 9401TIP3    H149694   2.754   3.328   0.120 -0.0048  0.7382 -0.8271
 9401TIP3    H249695   2.652   3.300   0.011 -0.5453 -1.3688  0.1716
 9402TIP3   OH249696   2.126   5.222  15.078  0.3970 -0.0978 -0.7284
 9402TIP3    H149697   2.100   5.162  15.148 -0.9265 -0.8099 -1.7821
 9402TIP3    H249698   2.172   5.293  15.123 -1.8705  0.3413  1.1052
 9403TIP3   OH249699   2.600   2.863  12.853  0.9276 -0.5124 -0.3976
 9403TIP3    H149700   2.662   2.874  12.926 -0.3597 -1.8711  0.9769
 9403TIP3    H249701   2.559   2.950  12.844  0.8547 -0.3955  0.7831
 9404TIP3   OH249702   1.622   4.273  17.031  0.2412 -0.2265  0.1561
 9404TIP3    H149703   1.674   4.271  17.112  1.8494 -0.0709 -0.8212
 9404TIP3    H249704   1.642   4.191  16.987  2.8809  1.3827 -2.0645
 9405TIP3   OH249705   5.937   4.095  14.353  0.0693  0.2487  0.0514
 9405TIP3    H149706   6.012   4.123  14.300  0.4214  0.1820  0.5035
 9405TIP3    H249707   5.971   4.093  14.442  0.1610 -1.8682  0.0424
 9406TIP3   OH249708   3.880   5.594  14.671  0.0565  0.2909  0.2541
 9406TIP3    H149709   3.941   5.663  14.645  0.9064 -0.3053  0.6329
 9406TIP3    H249710   3.795   5.638  14.674  0.6577  1.4532  1.0157
 9407TIP3   OH249711   3.921   3.460  15.214 -0.1195 -0.1459 -0.2238
 9407TIP3    H149712   3.860   3.533  15.207 -0.0592 -0.1725 -1.0367
 9407TIP3    H249713   3.917   3.416  15.129  0.6347 -0.4677 -0.1015
 9408TIP3   OH249714   3.249   5.631  11.293  0.9502  0.0849  0.3777
 9408TIP3    H149715   3.295   5.654  11.212 -0.6967  2.1678 -0.0387
 9408TIP3    H249716   3.156   5.636  11.270  0.3773  2.6520  2.8124
 9409TIP3   OH249717   5.413   5.616   1.068 -0.4762  0.3151  0.1385
 9409TIP3    H149718   5.445   5.671   0.997  0.9446  0.7593  1.0771
 9409TIP3    H249719   5.489   5.565   1.096 -1.0002  0.1313  1.3078
 9410TIP3   OH249720   5.051   3.186   1.165  0.3701 -0.5939  0.0959
 9410TIP3    H149721   5.028   3.144   1.081  1.6460 -1.0229 -0.0595
 9410TIP3    H249722   5.054   3.280   1.144 -1.4660 -0.4703  0.2004
 9411TIP3   OH249723   0.851   1.327   1.875 -0.1868 -0.0359 -0.3084
 9411TIP3    H149724   0.783   1.291   1.819 -1.3305  1.4599  0.0370
 9411TIP3    H249725   0.857   1.265   1.948  0.7115 -1.5438 -1.6047
 9412TIP3   OH249726   2.707   5.007   3.363  0.2979  0.7571  0.2751
 9412TIP3    H149727   2.730   4.918   3.387  2.5957  0.7518 -1.6510
 9412TIP3    H249728   2.737   5.061   3.437 -1.7089 -0.0002  1.7615
 9413TIP3   OH249729   0.015   0.851  10.828 -0.2888 -0.1141  0.1668
 9413TIP3    H149730   0.013   0.945  10.812  1.5190 -0.3630 -2.1341
 9413TIP3    H249731   0.108   0.829  10.836 -0.6362 -1.7645  0.1262
 9414TIP3   OH249732   0.286   6.602  13.816  0.5137 -0.0734  0.1687
 9414TIP3    H149733   0.289   6.692  13.785 -0.2594 -0.3972 -0.9146
 9414TIP3    H249734   0.303   6.607  13.910  2.1770  1.0319 -0.1589
 9415TIP3   OH249735   5.970   2.194  12.739  0.0267  0.5158  0.0015
 9415TIP3    H149736   5.981   2.110  12.695  1.0758  0.8872 -0.4869
 9415TIP3    H249737   5.968   2.172  12.833 -0.9796 -0.1613 -0.1706
 9416TIP3   OH249738   0.952   4.162   4.837  0.0768  0.9180  0.6562
 9416TIP3    H149739   0.989   4.207   4.762 -0.3398 -1.7422 -1.2607
 9416TIP3    H249740   0.858   4.180   4.832 -0.2740 -1.0870 -0.8764
 9417TIP3   OH249741   1.042   6.593  16.258 -0.0743 -0.0354 -0.0072
 9417TIP3    H149742   1.096   6.542  16.197 -0.2742  0.8905 -0.9853
 9417TIP3    H249743   1.089   6.588  16.341  0.8920 -0.2395 -0.5519
 9418TIP3   OH249744   0.878   2.555  14.164 -0.3296  0.4170  0.0043
 9418TIP3    H149745   0.848   2.586  14.079  0.2727 -0.1877 -0.4357
 9418TIP3    H249746   0.838   2.469  14.174 -0.3931  0.4820  0.3354
 9419TIP3   OH249747   4.184   3.780  14.461  0.4038  0.8034  0.3429
 9419TIP3    H149748   4.104   3.727  14.458  1.8896 -1.5753 -1.6283
 9419TIP3    H249749   4.167   3.852  14.400 -0.2169  0.3070 -0.0845
 9420TIP3   OH249750   6.561   3.506   4.497 -0.1513  0.3867  0.0443
 9420TIP3    H149751   6.616   3.536   4.425 -0.4971  1.5245  0.2350
 9420TIP3    H249752   6.547   3.413   4.480  1.8981  0.0234  0.0300
 9421TIP3   OH249753   4.643   2.474  14.950 -0.2654 -0.3445  0.2088
 9421TIP3    H149754   4.704   2.528  14.900 -0.6094 -0.2072 -0.0665
 9421TIP3    H249755   4.690   2.392  14.965  0.9526  0.6194  2.1536
 9422TIP3   OH249756   4.654   4.533  15.250 -0.0437  0.0549 -0.8013
 9422TIP3    H149757   4.706   4.462  15.288 -0.7514 -0.6166 -1.0773
 9422TIP3    H249758   4.681   4.536  15.158  0.8258  0.9237 -0.5441
 9423TIP3   OH249759   2.731   5.669  12.407  0.2738 -0.6651 -0.1105
 9423TIP3    H149760   2.702   5.760  12.403  2.4050  0.0794 -0.3571
 9423TIP3    H249761   2.798   5.662  12.339 -0.4202 -2.6641 -0.6545
 9424TIP3   OH249762   0.843   5.945   5.760  0.1770 -0.2476  0.5739
 9424TIP3    H149763   0.749   5.954   5.772  0.2474  2.7073 -0.2710
 9424TIP3    H249764   0.855   5.943   5.665  0.9831 -0.1166  0.6654
 9425TIP3   OH249765   4.967   5.366   1.463 -0.2465  0.0318 -1.1140
 9425TIP3    H149766   5.048   5.408   1.435  0.0979 -0.9118 -1.5666
 9425TIP3    H249767   4.952   5.296   1.399 -1.5572  0.3483 -1.1923
 9426TIP3   OH249768   3.249   0.582   1.944  0.5737  0.7624 -0.2484
 9426TIP3    H149769   3.337   0.546   1.952  0.0426 -0.8989 -1.4394
 9426TIP3    H249770   3.195   0.527   2.001 -0.0333  0.3928 -1.1455
 9427TIP3   OH249771   2.235   1.074   1.987 -0.2407  0.0695  0.3240
 9427TIP3    H149772   2.204   1.006   2.046 -0.5030  1.5542  1.9618
 9427TIP3    H249773   2.326   1.091   2.013 -0.8539  1.8785  1.4926
 9428TIP3   OH249774   1.513   0.752  14.459  0.4966 -0.8043  0.3048
 9428TIP3    H149775   1.584   0.712  14.509  2.8163  0.8908 -1.3985
 9428TIP3    H249776   1.455   0.789  14.525  1.7338 -1.3825  1.7769
 9429TIP3   OH249777   1.433   3.937  14.842 -0.5080 -1.0517 -0.2522
 9429TIP3    H149778   1.450   3.896  14.757 -0.4748 -1.8965  0.1567
 9429TIP3    H249779   1.401   3.866  14.897 -1.1807 -0.3678  0.2530
 9430TIP3   OH249780   0.222   3.843   5.440 -0.1058  0.0791 -0.5795
 9430TIP3    H149781   0.192   3.838   5.531  0.7115 -0.4851 -0.3349
 9430TIP3    H249782   0.264   3.929   5.434 -1.7403  0.8971 -0.9348
 9431TIP3   OH249783   2.752   5.215   1.009  0.3505  0.3592  0.1514
 9431TIP3    H149784   2.668   5.261   1.001  1.1878  1.7312 -1.2869
 9431TIP3    H249785   2.752   5.182   1.099 -2.3222 -0.9365 -0.2088
 9432TIP3   OH249786   1.579   1.834   6.178  0.6297 -0.1421 -0.2656
 9432TIP3    H149787   1.618   1.899   6.120  0.1227  0.9518  0.5753
 9432TIP3    H249788   1.641   1.826   6.250  0.2509  0.1272  0.0971
 9433TIP3   OH249789   0.381   5.162   3.708  0.1510  0.2645  0.1982
 9433TIP3    H149790   0.348   5.079   3.741  0.6296  0.1771  0.4630
 9433TIP3    H249791   0.441   5.138   3.637 -1.5694  0.4774 -1.3985
 9434TIP3   OH249792   5.222   1.478  12.511  0.0531  0.2271 -0.5126
 9434TIP3    H149793   5.159   1.422  12.555 -0.7614  0.8990 -0.7977
 9434TIP3    H249794   5.219   1.451  12.419  1.5591 -0.9954 -0.2480
 9435TIP3   OH249795   5.522   4.387   1.700  0.4703 -0.3264 -0.3376
 9435TIP3    H149796   5.461   4.412   1.770  1.4944  0.2535  0.3734
 9435TIP3    H249797   5.564   4.307   1.732  1.7474  0.5492  0.2409
 9436TIP3   OH249798   2.200   5.001   1.147 -0.2753  0.3126  0.3761
 9436TIP3    H149799   2.112   4.967   1.128  0.1705 -0.1618 -0.8709
 9436TIP3    H249800   2.213   5.071   1.084  1.1004 -1.0805 -0.9747
 9437TIP3   OH249801   0.468   3.743   1.078 -0.0563  0.5511  0.0485
 9437TIP3    H149802   0.498   3.688   1.006  0.5587 -0.1923  0.8575
 9437TIP3    H249803   0.546   3.758   1.131 -0.8350 -0.3360  1.4899
 9438TIP3   OH249804   0.647   5.455   4.473 -0.3723 -0.0992 -0.4685
 9438TIP3    H149805   0.619   5.531   4.524  2.1317  0.5673  0.0671
 9438TIP3    H249806   0.673   5.390   4.539  1.6662  0.2830 -0.8358
 9439TIP3   OH249807   6.531   1.986  13.313 -0.3004  0.0233 -0.3827
 9439TIP3    H149808   6.468   1.932  13.361  0.9614 -0.9637  0.2123
 9439TIP3    H249809   6.517   1.963  13.221  0.0226 -1.1274 -0.1602
 9440TIP3   OH249810   2.112   4.518   4.492  0.0332  0.3595  0.4600
 9440TIP3    H149811   2.073   4.479   4.571 -0.3694 -0.7384 -0.2594
 9440TIP3    H249812   2.203   4.533   4.516  0.2959 -1.3645  0.6791
 9441TIP3   OH249813   3.777   3.025  14.201 -0.4756 -0.2145  0.5851
 9441TIP3    H149814   3.860   3.012  14.246 -0.5222  0.8532  1.0155
 9441TIP3    H249815   3.765   2.946  14.149  0.7340 -0.4480  0.6364
 9442TIP3   OH249816   4.043   5.484  16.780 -0.1427  0.4314 -0.2499
 9442TIP3    H149817   4.084   5.545  16.841  1.1862  0.1973 -0.8835
 9442TIP3    H249818   3.986   5.430  16.834  0.8281  0.3824  0.7357
 9443TIP3   OH249819   0.601   5.070  15.881 -0.0732 -0.1678  0.0400
 9443TIP3    H149820   0.691   5.080  15.911  0.2836 -1.2830 -0.6032
 9443TIP3    H249821   0.565   5.000  15.936 -0.6997  0.5852  0.6047
 9444TIP3   OH249822   4.017   0.006   4.536 -0.1258  0.2953 -0.2506
 9444TIP3    H149823   3.936  -0.023   4.578  0.1070 -1.5177 -1.0018
 9444TIP3    H249824   4.083  -0.057   4.565  0.7981  1.1253 -0.5072
 9445TIP3   OH249825   4.157   5.913  17.195 -0.0669  0.3074  0.2675
 9445TIP3    H149826   4.109   5.880  17.272  0.6746  2.6638  1.8536
 9445TIP3    H249827   4.248   5.888  17.212 -0.0106  0.1582 -0.2525
 9446TIP3   OH249828   1.183   3.692   2.131  0.8217  0.5813  0.0862
 9446TIP3    H149829   1.131   3.770   2.152 -0.2459  0.6058 -2.2299
 9446TIP3    H249830   1.184   3.640   2.211  0.2000  2.2409  1.2087
 9447TIP3   OH249831   0.965   1.154   3.204  0.5132 -0.1256 -0.0928
 9447TIP3    H149832   1.018   1.097   3.149  1.1005 -0.9598  1.2871
 9447TIP3    H249833   0.970   1.240   3.163 -0.2263 -0.9923 -2.1132
 9448TIP3   OH249834   3.424   0.672   0.057 -0.6193  0.3522  0.4643
 9448TIP3    H149835   3.335   0.671   0.091 -0.9745  1.0540 -0.4076
 9448TIP3    H249836   3.424   0.739  -0.011  0.2800 -0.3995 -0.3257
 9449TIP3   OH249837   2.647   5.013   4.450  0.8415  0.4062  0.1780
 9449TIP3    H149838   2.620   5.021   4.541  2.2769  1.7481  0.5331
 9449TIP3    H249839   2.658   5.104   4.421 -1.1496  0.0867 -1.8456
 9450TIP3   OH249840   0.369   0.164   4.920  0.1221 -0.0563 -0.4083
 9450TIP3    H149841   0.368   0.232   4.986  0.7333 -2.0616  1.8168
 9450TIP3    H249842   0.448   0.180   4.869  0.5756  0.5538  0.4722
 9451TIP3   OH249843   4.892   3.692   6.854  0.0145  0.0939  0.4224
 9451TIP3    H149844   4.866   3.600   6.847  0.4640 -0.1433  1.6673
 9451TIP3    H249845   4.980   3.694   6.817  0.3527 -0.1593  1.1900
 9452TIP3   OH249846   2.083   4.967  12.134  0.1633  0.0259 -0.2528
 9452TIP3    H149847   2.082   4.876  12.105 -0.0924 -0.3866  0.9653
 9452TIP3    H249848   2.060   5.018  12.057 -1.8033 -1.0925 -0.4620
 9453TIP3   OH249849   6.422   4.294  17.471  0.2458 -0.0572  0.1875
 9453TIP3    H149850   6.469   4.357  17.525 -2.0977  0.7132  1.4775
 9453TIP3    H249851   6.405   4.220  17.528 -2.0661  0.6731  0.5560
 9454TIP3   OH249852   3.123   5.015   1.480  0.2679 -0.2814  0.2569
 9454TIP3    H149853   3.138   4.968   1.397 -1.2581 -0.1852 -0.0970
 9454TIP3    H249854   3.189   4.979   1.540  0.7994 -1.0113 -0.7325
 9455TIP3   OH249855   3.231   0.945  13.845 -0.0408 -0.4377  0.4624
 9455TIP3    H149856   3.247   0.991  13.763  0.4117  0.8443  1.2421
 9455TIP3    H249857   3.308   0.889  13.858 -0.1163 -0.6452  0.0275
 9456TIP3   OH249858   2.127   4.053  13.571 -0.8414 -1.3281  0.1644
 9456TIP3    H149859   2.198   4.044  13.634 -1.1014 -2.4904  0.3184
 9456TIP3    H249860   2.052   4.083  13.623 -0.2848  0.7875 -0.1438
 9457TIP3   OH249861   2.001   2.515   5.492 -0.3305 -0.0008 -0.5156
 9457TIP3    H149862   1.994   2.601   5.451 -0.3538  0.6509  0.8014
 9457TIP3    H249863   1.917   2.503   5.537  0.7548  0.7251  1.9139
 9458TIP3   OH249864   6.246   3.502   5.770 -0.3775 -0.0431 -0.1844
 9458TIP3    H149865   6.208   3.569   5.713 -1.0142 -0.9594 -0.8477
 9458TIP3    H249866   6.338   3.499   5.745  0.0199  1.5973  0.8639
 9459TIP3   OH249867   6.530   3.447  17.131 -0.6075  0.1516  0.0576
 9459TIP3    H149868   6.487   3.520  17.087 -0.3405 -0.2049 -0.8047
 9459TIP3    H249869   6.620   3.477  17.144  0.0701 -0.7543 -2.1295
 9460TIP3   OH249870   1.797   3.679  15.663  0.2132 -0.4682  0.1428
 9460TIP3    H149871   1.801   3.641  15.575 -0.8320 -1.9303  0.6831
 9460TIP3    H249872   1.726   3.632  15.706 -0.0043  0.9801  1.4352
 9461TIP3   OH249873   5.492   3.006   2.880 -0.4077 -0.2282  0.0566
 9461TIP3    H149874   5.559   3.026   2.945  1.3256 -0.4697 -1.5881
 9461TIP3    H249875   5.485   2.911   2.882 -0.7446 -0.2031  0.2352
 9462TIP3   OH249876   4.732   1.461  15.717  0.2903  0.4714 -0.2760
 9462TIP3    H149877   4.680   1.430  15.643  0.9113 -1.6551  0.1004
 9462TIP3    H249878   4.694   1.546  15.740 -2.7523 -0.7715 -0.2847
 9463TIP3   OH249879   0.733   2.332  15.482 -0.4213  0.1910 -0.6403
 9463TIP3    H149880   0.645   2.337  15.519 -0.1289 -2.4063  0.6334
 9463TIP3    H249881   0.780   2.406  15.520 -1.3917  0.1880  0.6111
 9464TIP3   OH249882   1.600   2.265  13.883  0.3943 -0.0315  0.3555
 9464TIP3    H149883   1.558   2.275  13.968  0.4175 -0.1476  0.3804
 9464TIP3    H249884   1.628   2.174  13.880 -0.0798 -0.1719  0.0085
 9465TIP3   OH249885   4.144   4.713  14.934  0.3616  0.3330 -0.1837
 9465TIP3    H149886   4.123   4.644  14.997  0.3872  0.1019 -0.4263
 9465TIP3    H249887   4.086   4.694  14.859  0.6552  0.3396 -0.4120
 9466TIP3   OH249888   3.444   0.770   6.733 -0.0181  0.2100 -0.5901
 9466TIP3    H149889   3.369   0.746   6.787  1.8577 -0.5729  1.8630
 9466TIP3    H249890   3.439   0.865   6.724 -0.5489  0.3142  0.7415
 9467TIP3   OH249891   5.446   3.030   6.140  0.4165  0.5974  0.3395
 9467TIP3    H149892   5.505   3.106   6.139  1.7053 -0.3244  2.0774
 9467TIP3    H249893   5.434   3.010   6.233  2.4221 -3.0273 -0.0079
 9468TIP3   OH249894   0.217   3.059   1.577  0.0236  0.0832 -0.5831
 9468TIP3    H149895   0.169   3.004   1.640  1.2734  1.0356  1.3109
 9468TIP3    H249896   0.259   3.125   1.631  0.8429  1.2241 -2.5208
 9469TIP3   OH249897   4.543   4.908   4.573  0.1890 -0.3778 -0.1650
 9469TIP3    H149898   4.576   4.895   4.485 -0.6829  0.0185 -0.5616
 9469TIP3    H249899   4.517   5.000   4.576  0.7364 -0.2397  0.6857
 9470TIP3   OH249900   1.843   6.358   1.816  0.1467 -0.1477 -0.2857
 9470TIP3    H149901   1.812   6.290   1.874  0.7819  0.6480  1.0263
 9470TIP3    H249902   1.930   6.380   1.848  0.7096  0.0136 -1.8141
 9471TIP3   OH249903   4.758   3.892  16.575  0.0974  0.4398 -0.6019
 9471TIP3    H149904   4.791   3.891  16.665 -0.2441 -2.0545 -0.4465
 9471TIP3    H249905   4.692   3.961  16.575 -1.7129 -1.1052  1.8078
 9472TIP3   OH249906   2.048   5.363  13.221 -0.5254  0.0991  0.4314
 9472TIP3    H149907   1.996   5.367  13.301  2.0597 -0.4666  2.2850
 9472TIP3    H249908   2.124   5.419  13.239  0.6822 -0.9295 -1.1546
 9473TIP3   OH249909   4.040   2.054  14.111  0.2987 -0.3910  0.2343
 9473TIP3    H149910   4.102   2.060  14.039 -1.1285  0.0079 -1.0092
 9473TIP3    H249911   4.089   2.084  14.188  1.8435 -0.8269 -0.5487
 9474TIP3   OH249912   4.429   4.070   2.131 -0.4827 -0.0965  0.2902
 9474TIP3    H149913   4.490   4.139   2.106 -0.7193  0.5249  1.3685
 9474TIP3    H249914   4.387   4.044   2.049  2.2950 -1.6329 -0.7847
 9475TIP3   OH249915   3.926   3.686  11.293 -0.1160 -0.2431 -0.3804
 9475TIP3    H149916   3.898   3.594  11.298 -1.0628  0.0685  0.2771
 9475TIP3    H249917   4.020   3.683  11.310 -0.4338 -0.9379  1.4756
 9476TIP3   OH249918   5.054   0.028   4.230  0.0297  0.2299  0.0973
 9476TIP3    H149919   5.048  -0.020   4.312  0.4065  1.1718  0.6823
 9476TIP3    H249920   5.147   0.048   4.220 -0.0833  0.5689 -0.2959
 9477TIP3   OH249921   5.916   1.441  15.300 -0.2820 -0.4489  0.1481
 9477TIP3    H149922   5.832   1.474  15.269  0.1034 -1.7205 -2.5479
 9477TIP3    H249923   5.893   1.365  15.354 -0.8907 -0.5669 -0.2606
 9478TIP3   OH249924   4.484   2.329  16.815  0.1105  0.6293 -0.0483
 9478TIP3    H149925   4.431   2.256  16.782  0.1789  0.4256  0.2908
 9478TIP3    H249926   4.501   2.382  16.738  1.8588 -0.8218 -0.7318
 9479TIP3   OH249927   5.145   1.476   0.507  0.3589 -0.4936 -0.1786
 9479TIP3    H149928   5.185   1.425   0.577 -0.7254  0.3395  1.1064
 9479TIP3    H249929   5.178   1.565   0.520  0.5948 -0.4352 -1.1016
 9480TIP3   OH249930   0.525   3.639   1.986 -0.2863 -0.3486  0.2988
 9480TIP3    H149931   0.495   3.704   1.923 -2.6293 -1.1964  0.4249
 9480TIP3    H249932   0.557   3.690   2.060  0.0607  0.6374 -0.5133
 9481TIP3   OH249933   1.248   6.697   6.557 -0.2829  0.0501  0.4898
 9481TIP3    H149934   1.288   6.758   6.496  0.0736 -0.6711 -0.0037
 9481TIP3    H249935   1.154   6.714   6.549 -0.2216  0.1561 -0.0501
 9482TIP3   OH249936   1.679   0.576   0.037 -0.0600  0.0250  0.4878
 9482TIP3    H149937   1.694   0.616   0.122  0.0673 -0.2369  0.5898
 9482TIP3    H249938   1.583   0.571   0.030 -0.0975  0.9159  0.1990
 9483TIP3   OH249939   2.632   3.955  17.371 -0.7111 -0.3397 -0.5886
 9483TIP3    H149940   2.579   3.980  17.295 -3.1867  0.7224  1.3705
 9483TIP3    H249941   2.698   4.025  17.377 -0.8234 -0.1465 -1.3995
 9484TIP3   OH249942   2.990   4.176  14.345 -0.2556 -0.3724  0.8342
 9484TIP3    H149943   2.957   4.266  14.340  0.7917 -0.0199 -0.5321
 9484TIP3    H249944   2.928   4.131  14.402 -2.4579  0.5092 -0.7139
 9485TIP3   OH249945   6.180   3.820   3.367  0.1265 -0.0541  0.4412
 9485TIP3    H149946   6.097   3.830   3.413 -1.4738 -2.5472 -1.6012
 9485TIP3    H249947   6.188   3.900   3.314 -1.0002  0.2188  0.6594
 9486TIP3   OH249948   4.204   4.667  14.100 -0.0855 -0.2173  0.2073
 9486TIP3    H149949   4.139   4.674  14.169  0.9702 -0.1117  1.2131
 9486TIP3    H249950   4.267   4.736  14.119 -1.1338  1.6463 -2.3935
 9487TIP3   OH249951   3.823   5.193  14.487  0.0095  0.7100 -0.4121
 9487TIP3    H149952   3.855   5.281  14.468  2.7939  0.0979  0.9057
 9487TIP3    H249953   3.878   5.135  14.434  1.3568 -0.4191  2.0412
 9488TIP3   OH249954   1.511   3.294  12.109  0.0722 -0.1200  0.0738
 9488TIP3    H149955   1.518   3.285  12.014  0.7409 -0.4304  0.1502
 9488TIP3    H249956   1.561   3.373  12.130  0.6955 -0.5609  0.2658
 9489TIP3   OH249957   2.735   0.047   4.622  0.0556  0.5336 -0.3704
 9489TIP3    H149958   2.713   0.140   4.631  0.2344  0.4443  1.3672
 9489TIP3    H249959   2.702   0.022   4.536 -2.9376  1.4319  0.4151
 9490TIP3   OH249960   6.530   6.442  13.463 -0.1383 -0.3842 -0.0622
 9490TIP3    H149961   6.583   6.416  13.388 -0.0162 -1.5878  0.4097
 9490TIP3    H249962   6.587   6.428  13.539  0.7951  3.5354  0.1703
 9491TIP3   OH249963   4.035   2.509   6.276  0.4109  0.3607 -0.1049
 9491TIP3    H149964   3.964   2.510   6.340 -0.0896 -1.8468 -0.5663
 9491TIP3    H249965   4.111   2.478   6.326  0.1375 -0.8809 -0.4333
 9492TIP3   OH249966   4.769   4.601  17.288  0.8390 -0.5114 -0.2078
 9492TIP3    H149967   4.831   4.642  17.228  1.0922 -0.6524 -0.0459
 9492TIP3    H249968   4.743   4.520  17.244 -0.0931  0.0912 -0.7790
 9493TIP3   OH249969   2.342   2.949   4.774  0.5527  0.3657  0.3900
 9493TIP3    H149970   2.347   2.884   4.844 -1.1649  0.7524  0.9314
 9493TIP3    H249971   2.386   2.908   4.700 -0.5467 -1.4851  0.6903
 9494TIP3   OH249972   5.632   3.334   2.568 -0.1937 -0.3898  0.2479
 9494TIP3    H149973   5.647   3.291   2.483  1.4878 -0.0672  0.3398
 9494TIP3    H249974   5.576   3.273   2.616 -1.7573 -0.2737 -1.3063
 9495TIP3   OH249975   1.906   5.017  17.433 -0.0815 -0.0659  0.4542
 9495TIP3    H149976   1.817   4.985  17.418  0.4122 -1.1239 -0.2958
 9495TIP3    H249977   1.948   4.950  17.487  0.2590  0.4540  0.8518
 9496TIP3   OH249978   0.692   2.963  12.750 -0.2652 -0.0483 -0.7402
 9496TIP3    H149979   0.754   2.920  12.810  1.6614 -0.0797 -2.6466
 9496TIP3    H249980   0.734   2.957  12.664 -1.6581  2.3956 -1.6832
 9497TIP3   OH249981   4.065   3.592   1.721 -0.2047  0.1683 -0.7998
 9497TIP3    H149982   3.987   3.550   1.756  1.6645 -1.4901  1.7701
 9497TIP3    H249983   4.106   3.524   1.667  0.2632  0.4248 -0.7745
 9498TIP3   OH249984   1.763   6.286  15.987 -0.3347  0.6029 -0.6028
 9498TIP3    H149985   1.776   6.379  15.971  0.7079  1.2648  3.0945
 9498TIP3    H249986   1.844   6.257  16.028 -1.3373 -1.4434  0.0948
 9499TIP3   OH249987   4.340   0.619   5.386  0.2710 -0.1051 -0.0230
 9499TIP3    H149988   4.374   0.700   5.348  0.0176  0.2521  0.5043
 9499TIP3    H249989   4.358   0.552   5.320  2.0369  0.0577  0.2551
 9500TIP3   OH249990   0.138   3.276  13.170 -0.4406 -0.5530 -0.3575
 9500TIP3    H149991   0.119   3.182  13.169 -0.4521 -0.5650  0.3930
 9500TIP3    H249992   0.053   3.318  13.169 -0.5366 -0.5935  1.7830
 9501TIP3   OH249993   0.471   6.718  16.721  0.0510  0.1463  0.0429
 9501TIP3    H149994   0.403   6.686  16.779  0.7868 -0.2241  0.7219
 9501TIP3    H249995   0.487   6.809  16.749  1.3383 -0.4375  1.3561
 9502TIP3   OH249996   6.179   4.234   1.139  0.0905 -0.4303  0.3184
 9502TIP3    H149997   6.153   4.220   1.230 -1.0059  0.0362  0.0907
 9502TIP3    H249998   6.110   4.288   1.102 -0.3415 -1.9623 -1.2386
 9503TIP3   OH249999   0.097   0.428  16.995 -0.4279  0.1449 -0.1534
 9503TIP3    H150000   0.181   0.389  17.020 -0.9808 -1.3434 -0.4921
 9503TIP3    H250001   0.031   0.364  17.023 -1.2972  0.1374 -2.0603
 9504TIP3   OH250002   0.610   4.837  13.146 -0.2715 -0.2452 -0.0129
 9504TIP3    H150003   0.635   4.831  13.054  1.0144 -0.4660  0.3271
 9504TIP3    H250004   0.605   4.745  13.175 -0.3007 -0.1694  0.2253
 9505TIP3   OH250005   1.044   4.777  15.928  0.2710  0.4334 -0.1907
 9505TIP3    H150006   1.131   4.814  15.913  0.5721 -0.5772 -1.0144
 9505TIP3    H250007   1.055   4.722  16.006  0.7116 -0.7255 -1.0464
 9506TIP3   OH250008   6.122   1.126   2.102  0.0244 -0.0078  0.1096
 9506TIP3    H150009   6.083   1.049   2.143 -1.7954  1.1675  0.6788
 9506TIP3    H250010   6.171   1.168   2.172 -2.8743  1.8595  1.1753
 9507TIP3   OH250011   5.929   4.117  11.854  0.2046 -0.3740  0.1938
 9507TIP3    H150012   5.875   4.079  11.785  0.7038 -0.7378 -0.0006
 9507TIP3    H250013   5.959   4.200  11.818 -3.5299  1.9510  1.7953
 9508TIP3   OH250014   5.209   0.534   3.117 -0.2922 -0.1342  0.3153
 9508TIP3    H150015   5.149   0.583   3.061 -2.4183 -1.8893  0.9292
 9508TIP3    H250016   5.186   0.442   3.103  1.3915 -0.8044  1.5749
 9509TIP3   OH250017   0.871   1.806  14.607  0.9663 -0.8812 -0.2137
 9509TIP3    H150018   0.936   1.841  14.547  0.6157  0.4438  0.1500
 9509TIP3    H250019   0.792   1.797  14.554  0.9615 -0.7765 -0.2248
 9510TIP3   OH250020   3.829   1.330   4.869  0.1232  0.4001 -0.7049
 9510TIP3    H150021   3.750   1.382   4.860 -0.6169 -0.6334 -0.3939
 9510TIP3    H250022   3.807   1.263   4.934  1.4921  0.5405 -0.0472
 9511TIP3   OH250023   3.068   0.047   6.090 -0.6690  0.2351  0.3383
 9511TIP3    H150024   3.056   0.111   6.160  2.2324  1.7656 -0.3795
 9511TIP3    H250025   3.034   0.092   6.012 -0.1570  0.2449  0.1148
 9512TIP3   OH250026   6.557   6.046   0.805  0.1625  0.3971 -0.0500
 9512TIP3    H150027   6.466   6.016   0.809 -0.0574  1.0492 -0.0420
 9512TIP3    H250028   6.563   6.114   0.873  0.3901  1.0446 -0.7017
 9513TIP3   OH250029   6.343   4.107   1.989 -0.4711 -0.2435  0.4978
 9513TIP3    H150030   6.352   4.201   1.974  0.4007 -0.4792 -0.5196
 9513TIP3    H250031   6.262   4.083   1.943 -1.4969  0.2362  1.9685
 9514TIP3   OH250032   3.887   4.752  11.964 -0.1755  0.1883  0.1311
 9514TIP3    H150033   3.812   4.795  12.006  3.0104  2.5473  4.2357
 9514TIP3    H250034   3.926   4.821  11.909  1.5960  0.7970  2.0025
 9515TIP3   OH250035   0.861   0.069  17.673  0.1371  0.2687 -0.1994
 9515TIP3    H150036   0.833   0.044  17.760  0.5422 -0.2406 -0.2077
 9515TIP3    H250037   0.792   0.127  17.640  0.3736  1.1253  0.7642
 9516TIP3   OH250038   5.026   2.444   4.799 -0.0032  0.8381 -1.0666
 9516TIP3    H150039   5.099   2.477   4.852  0.9368 -1.2548 -0.9702
 9516TIP3    H250040   4.957   2.510   4.810  0.5595  1.0930  1.8265
 9517TIP3   OH250041   5.027   3.081  13.469 -0.1062 -0.1467  0.1544
 9517TIP3    H150042   4.966   3.046  13.404 -1.3515  2.3522 -0.1226
 9517TIP3    H250043   5.010   3.031  13.548 -1.4092 -0.5443 -0.3602
 9518TIP3   OH250044   4.733   0.379  16.394  0.3574 -0.2139 -0.0611
 9518TIP3    H150045   4.817   0.387  16.440 -0.4122  1.7091  1.1450
 9518TIP3    H250046   4.724   0.462  16.347 -1.0342 -0.2237  0.1524
 9519TIP3   OH250047   1.353   5.783  12.124  0.2759  0.1813 -0.4118
 9519TIP3    H150048   1.370   5.877  12.123  0.0520  0.2428 -2.5262
 9519TIP3    H250049   1.299   5.770  12.202  2.0498  1.4330  1.1239
 9520TIP3   OH250050   3.506   5.852  13.419 -0.1055 -0.1676  0.0621
 9520TIP3    H150051   3.419   5.814  13.407  0.8793 -1.9122 -2.2989
 9520TIP3    H250052   3.500   5.900  13.502 -3.2880 -0.1971 -0.0308
 9521TIP3   OH250053   2.999   6.046  12.923  0.0002 -0.1350  0.1574
 9521TIP3    H150054   2.991   6.078  12.833 -0.4537  0.5945  0.4452
 9521TIP3    H250055   3.022   5.953  12.913 -1.1064 -0.3447 -0.7199
 9522TIP3   OH250056   0.117   5.032   3.534 -0.3727 -0.0206 -0.1747
 9522TIP3    H150057   0.074   4.948   3.520  1.8758 -1.1428 -0.8476
 9522TIP3    H250058   0.156   5.025   3.621 -0.4225  0.4528 -0.1120
 9523TIP3   OH250059   4.437   0.619   5.654  0.0266  0.2934  0.1259
 9523TIP3    H150060   4.417   0.649   5.565  1.6716  0.9377 -0.0602
 9523TIP3    H250061   4.455   0.526   5.645 -1.8244 -0.0930  0.1449
 9524TIP3   OH250062   3.493   1.741   4.019 -0.3785 -0.1039  0.0209
 9524TIP3    H150063   3.582   1.763   4.049  0.5510 -0.1838 -2.4407
 9524TIP3    H250064   3.466   1.669   4.075  1.5624 -0.7996  0.1359
 9525TIP3   OH250065   3.771   5.229   3.689 -0.5218 -0.4055 -0.4222
 9525TIP3    H150066   3.857   5.234   3.732  0.4414  0.2842 -2.2654
 9525TIP3    H250067   3.732   5.316   3.704  0.1528  0.1157 -1.5091
 9526TIP3   OH250068   5.123   5.784   6.886  0.0950  0.0797 -0.2211
 9526TIP3    H150069   5.099   5.694   6.909 -2.1790  1.1212  2.0886
 9526TIP3    H250070   5.057   5.812   6.823 -0.8180  0.8411  1.0026
 9527TIP3   OH250071   2.441   3.962  16.775  0.2180  0.1232 -0.3805
 9527TIP3    H150072   2.509   3.976  16.709 -1.9332 -0.9034 -3.0423
 9527TIP3    H250073   2.401   4.048  16.786  0.5221  0.2849 -0.5143
 9528TIP3   OH250074   0.863   2.571  17.279 -0.2484  0.1392 -0.2215
 9528TIP3    H150075   0.916   2.498  17.312  1.1187  0.7338 -1.0236
 9528TIP3    H250076   0.878   2.641  17.342 -1.3940 -0.1895  0.4334
 9529TIP3   OH250077   1.819   6.683   2.061 -0.0666  0.1619  0.0457
 9529TIP3    H150078   1.855   6.771   2.049 -0.4952  0.3563  0.1241
 9529TIP3    H250079   1.785   6.659   1.975 -0.0017  0.1020  0.0378
 9530TIP3   OH250080   3.179   4.488  13.837  0.3654  0.1638  0.0389
 9530TIP3    H150081   3.137   4.445  13.763  0.7152  0.2969 -0.2390
 9530TIP3    H250082   3.161   4.431  13.911 -1.9676  1.1627  0.3196
 9531TIP3   OH250083   0.989   5.125  11.522 -0.0139 -0.5939 -0.3273
 9531TIP3    H150084   0.930   5.151  11.451 -0.0761 -1.3232 -0.5496
 9531TIP3    H250085   0.977   5.030  11.530 -2.2150 -0.2284  2.6016
 9532TIP3   OH250086   5.985   3.428   5.825  0.5992 -0.2302 -0.2208
 9532TIP3    H150087   6.074   3.410   5.795  0.9715  2.6706 -1.2323
 9532TIP3    H250088   5.931   3.418   5.747  0.4536  0.4078 -0.2096
 9533TIP3   OH250089   5.804   6.506  15.256  0.3013 -0.7174  0.4339
 9533TIP3    H150090   5.771   6.428  15.212 -1.3096 -1.1829  2.3151
 9533TIP3    H250091   5.726   6.548  15.292  0.9634  2.4661 -1.5021
 9534TIP3   OH250092   3.314   5.831   0.137 -0.3879 -0.2822  0.0026
 9534TIP3    H150093   3.407   5.814   0.120 -0.4476 -0.8874  0.2572
 9534TIP3    H250094   3.287   5.891   0.067 -0.0232 -0.8085 -0.6012
 9535TIP3   OH250095   5.291   4.488   6.473 -0.3538 -0.3119 -1.0532
 9535TIP3    H150096   5.210   4.530   6.502  0.3552  0.8052 -0.6275
 9535TIP3    H250097   5.280   4.395   6.495 -0.9179  0.0781  0.3650
 9536TIP3   OH250098   3.306   6.544   2.836  0.1323 -0.7235  0.0708
 9536TIP3    H150099   3.215   6.551   2.864  0.0909 -3.0046  0.6930
 9536TIP3    H250100   3.300   6.529   2.741 -0.1540 -0.9656  0.1239
 9537TIP3   OH250101   3.190   3.850  15.464 -0.0711 -0.1521 -0.1561
 9537TIP3    H150102   3.133   3.923  15.438  0.0279  0.4874  1.2828
 9537TIP3    H250103   3.141   3.806  15.533  1.4978  0.9846  1.8018
 9538TIP3   OH250104   5.653   4.432   1.038 -0.3452 -0.3179 -0.2364
 9538TIP3    H150105   5.601   4.447   1.117 -1.5048  3.1778 -1.4685
 9538TIP3    H250106   5.601   4.371   0.986  0.2389 -2.3385  1.3888
 9539TIP3   OH250107   5.666   1.239   4.480 -0.3962 -0.1771  0.4220
 9539TIP3    H150108   5.654   1.146   4.500  0.5405 -0.2706  0.5857
 9539TIP3    H250109   5.682   1.280   4.565 -3.5622  0.6271  0.7459
 9540TIP3   OH250110   0.515   2.317  14.002 -0.4823  0.6094  0.3604
 9540TIP3    H150111   0.538   2.362  13.920  0.5922  0.8985  0.7955
 9540TIP3    H250112   0.527   2.224  13.982  1.6347  0.7592  0.6780
 9541TIP3   OH250113   0.698   4.786  12.290  0.2748 -0.3187  0.2152
 9541TIP3    H150114   0.631   4.816  12.229  0.0727  1.4621  1.2476
 9541TIP3    H250115   0.781   4.808  12.247  0.1671 -0.7005 -0.1891
 9542TIP3   OH250116   6.534   2.177  16.525 -0.1128  0.1674  0.7109
 9542TIP3    H150117   6.452   2.224  16.540  0.7955  2.2721 -0.5211
 9542TIP3    H250118   6.591   2.206  16.596 -0.3526 -1.2696  1.5463
 9543TIP3   OH250119   5.749   0.350   4.863  0.2087 -0.3510  0.3846
 9543TIP3    H150120   5.733   0.272   4.915 -1.0928  0.7655  1.7747
 9543TIP3    H250121   5.843   0.351   4.848  0.6112 -0.8702  2.5518
 9544TIP3   OH250122   0.794   0.752  13.298 -0.1203  0.3056 -0.0291
 9544TIP3    H150123   0.789   0.656  13.297 -1.1483  0.3491 -0.5410
 9544TIP3    H250124   0.870   0.772  13.243 -0.5407 -0.1911 -0.8037
 9545TIP3   OH250125   2.896   1.375   3.675 -0.0971 -0.0497  0.8821
 9545TIP3    H150126   2.933   1.449   3.723  0.9663 -1.4463  2.3171
 9545TIP3    H250127   2.946   1.372   3.594  0.9773 -0.1673  1.5336
 9546TIP3   OH250128   0.854   3.811   5.523 -0.0597 -0.3484 -0.2679
 9546TIP3    H150129   0.800   3.880   5.485  2.4721  2.1915  0.3428
 9546TIP3    H250130   0.875   3.754   5.450 -1.5746 -0.0356 -0.9831
 9547TIP3   OH250131   3.646   1.848   0.107  0.5340 -0.2847 -0.1101
 9547TIP3    H150132   3.606   1.808   0.184 -1.4192 -1.2916 -1.5626
 9547TIP3    H250133   3.704   1.781   0.072  1.2614  0.0956  0.3566
 9548TIP3   OH250134   0.013   2.599  16.311 -0.3907 -0.1298 -0.6266
 9548TIP3    H150135   0.028   2.504  16.318 -1.0096 -0.2046 -0.2206
 9548TIP3    H250136  -0.062   2.606  16.251 -1.2642  0.0168  0.4509
 9549TIP3   OH250137   4.486   0.430   0.600  0.3219  0.3086 -0.1092
 9549TIP3    H150138   4.484   0.460   0.510  0.4107 -0.0061 -0.2183
 9549TIP3    H250139   4.523   0.503   0.650  0.0751  0.5616 -0.2923
 9550TIP3   OH250140   4.771   6.704   3.833 -0.3850 -0.1822  0.8448
 9550TIP3    H150141   4.756   6.609   3.829  2.4198 -0.6948  0.3857
 9550TIP3    H250142   4.811   6.718   3.920  1.6612  0.0726 -0.0680
 9551TIP3   OH250143   3.145   4.752  14.712  0.2673  0.4734  0.3267
 9551TIP3    H150144   3.080   4.707  14.765  0.0456  0.5408  0.1122
 9551TIP3    H250145   3.119   4.844  14.715  0.0268  0.4263 -0.2186
 9552TIP3   OH250146   1.047   4.014   5.516  0.1025  0.4993  0.4273
 9552TIP3    H150147   1.011   3.926   5.509 -2.3878  1.3239  1.7258
 9552TIP3    H250148   0.977   4.066   5.555  2.3322  2.5380  2.0278
 9553TIP3   OH250149   2.401   4.260   6.142 -0.2075  0.3570 -0.1022
 9553TIP3    H150150   2.384   4.175   6.101 -1.6096  0.0251  1.1046
 9553TIP3    H250151   2.366   4.324   6.080  1.9930  0.2029 -1.6315
 9554TIP3   OH250152   5.603   5.847   3.408 -0.8209  0.5026 -0.5092
 9554TIP3    H150153   5.594   5.759   3.371  2.5200 -1.3840  2.4238
 9554TIP3    H250154   5.670   5.889   3.354 -0.1424 -0.0218 -0.0958
 9555TIP3   OH250155   0.336   4.055  15.066  0.0762 -0.3474  0.0337
 9555TIP3    H150156   0.277   4.006  15.009 -1.8252  2.1712 -0.3740
 9555TIP3    H250157   0.419   4.058  15.018 -0.2600 -1.6569 -0.6864
 9556TIP3   OH250158   5.189   2.291  10.695 -0.6262  0.3120  0.2802
 9556TIP3    H150159   5.137   2.215  10.668 -0.7843  0.5295 -0.0304
 9556TIP3    H250160   5.221   2.268  10.782 -1.4143  0.2547  0.5642
 9557TIP3   OH250161   0.866   0.135   5.690 -0.3826  0.1228 -0.4414
 9557TIP3    H150162   0.796   0.146   5.625 -2.0778 -0.5326  1.1897
 9557TIP3    H250163   0.899   0.046   5.674  0.2096  0.4734 -1.2855
 9558TIP3   OH250164   1.901   6.035   4.214 -0.3043 -0.0984 -0.3569
 9558TIP3    H150165   1.864   6.080   4.290 -0.6753 -0.4314 -0.3381
 9558TIP3    H250166   1.875   6.089   4.139  0.4549  0.4820 -0.2131
 9559TIP3   OH250167   4.917   3.755   3.322 -0.0317  0.2242  0.6519
 9559TIP3    H150168   4.942   3.747   3.230 -0.5456  1.4565  0.3843
 9559TIP3    H250169   4.854   3.684   3.336 -1.4595  1.1880 -0.5258
 9560TIP3   OH250170   5.931   3.699   1.101  0.8952 -0.2959  0.1519
 9560TIP3    H150171   5.901   3.663   1.185  1.1109  0.5453  0.5976
 9560TIP3    H250172   6.019   3.661   1.090  2.2301  2.0244  1.8977
 9561TIP3   OH250173   2.025   0.421   5.717 -0.3457  0.3611  0.0129
 9561TIP3    H150174   1.997   0.505   5.755  1.3913  0.4444  1.2485
 9561TIP3    H250175   2.071   0.446   5.636 -0.6963  0.5211 -0.1375
 9562TIP3   OH250176   2.432   5.442   1.764  0.6876  0.0276 -0.0142
 9562TIP3    H150177   2.379   5.486   1.697 -0.3633  1.4367  1.6367
 9562TIP3    H250178   2.381   5.450   1.844  2.1374 -1.1205  1.0942
 9563TIP3   OH250179   3.666   0.850  11.561 -0.3763 -0.2539  0.7406
 9563TIP3    H150180   3.646   0.758  11.544 -0.4413 -0.4287  1.6908
 9563TIP3    H250181   3.695   0.852  11.652  1.9368  0.3127  0.0645
 9564TIP3   OH250182   3.705   3.272  14.294 -0.0870 -0.2827 -0.0776
 9564TIP3    H150183   3.646   3.303  14.226  1.6561  0.1638 -1.4446
 9564TIP3    H250184   3.739   3.189  14.261  1.4812  0.3867 -0.2295
 9565TIP3   OH250185   5.206   3.755  15.205  0.2632 -0.1299  0.5484
 9565TIP3    H150186   5.270   3.771  15.274  0.8501  0.3595 -0.1107
 9565TIP3    H250187   5.145   3.829  15.211 -0.2208 -0.5591  1.1286
 9566TIP3   OH250188   2.306   2.088  14.429  0.8926  0.4078 -0.8244
 9566TIP3    H150189   2.239   2.026  14.459  2.0708  0.6426  2.7755
 9566TIP3    H250190   2.388   2.052  14.464  1.9838  2.5670 -1.0364
 9567TIP3   OH250191   3.220   5.217  17.087  0.2505  0.4314  0.0904
 9567TIP3    H150192   3.228   5.220  17.182 -1.9388  0.9715  0.3117
 9567TIP3    H250193   3.189   5.304  17.062  0.3572  0.1606 -1.0777
 9568TIP3   OH250194   3.357   1.696  13.597 -0.2390  0.7782 -0.5997
 9568TIP3    H150195   3.352   1.689  13.693  1.0791 -0.3273 -0.5776
 9568TIP3    H250196   3.284   1.753  13.573 -2.3804 -1.2166  0.7950
 9569TIP3   OH250197   1.054   5.668  16.531  0.3563  0.9102 -0.3361
 9569TIP3    H150198   1.007   5.663  16.614 -2.0499  2.4103 -1.5095
 9569TIP3    H250199   1.023   5.593  16.481 -1.1291  2.0468 -1.2110
 9570TIP3   OH250200   5.806   3.421  14.535  0.5046 -0.6353  0.4283
 9570TIP3    H150201   5.887   3.378  14.506 -0.5376 -2.0070 -0.5777
 9570TIP3    H250202   5.736   3.364  14.504 -0.8903  0.7781  0.8365
 9571TIP3   OH250203   3.211   4.500   2.977  0.1307 -0.7169 -0.3754
 9571TIP3    H150204   3.162   4.580   2.959  0.2236 -0.9632 -1.8776
 9571TIP3    H250205   3.293   4.510   2.930  1.2836 -0.6085  1.5590
 9572TIP3   OH250206   5.392   2.546  15.137 -0.4545  0.2012 -0.1041
 9572TIP3    H150207   5.409   2.455  15.164  1.7797  0.2624 -1.0793
 9572TIP3    H250208   5.464   2.567  15.078 -0.8508  2.6700  0.1885
 9573TIP3   OH250209   4.406   1.007  13.877 -0.4195  0.0460  0.1165
 9573TIP3    H150210   4.478   1.060  13.844  0.8431 -0.5023  1.8934
 9573TIP3    H250211   4.445   0.952  13.945 -2.4618 -0.4426  0.9681
 9574TIP3   OH250212   2.749   4.667  14.462 -0.6187  0.5890 -0.2584
 9574TIP3    H150213   2.778   4.746  14.416 -0.0563  0.4428 -0.1708
 9574TIP3    H250214   2.810   4.599  14.432  0.3779  0.6952  1.4250
 9575TIP3   OH250215   1.064   0.836  17.012  0.1944 -0.0700  0.4500
 9575TIP3    H150216   1.044   0.834  17.106 -1.1293 -0.5187  0.1730
 9575TIP3    H250217   1.033   0.921  16.983 -0.2184 -0.2890  0.2483
 9576TIP3   OH250218   1.819   5.191  16.481 -0.0672  0.0300 -0.7968
 9576TIP3    H150219   1.854   5.122  16.425 -1.2946 -0.7851 -0.5926
 9576TIP3    H250220   1.784   5.144  16.557  0.8362  1.0492  0.2978
 9577TIP3   OH250221   4.446   4.447  16.809  0.7581  0.6941  0.3202
 9577TIP3    H150222   4.427   4.358  16.840  1.7485  0.6805  0.9154
 9577TIP3    H250223   4.445   4.440  16.713 -1.0219  0.4565  0.3182
 9578TIP3   OH250224   2.426   2.052   1.437  0.5393 -0.4964 -0.5958
 9578TIP3    H150225   2.368   2.073   1.511 -0.2137 -0.7583 -1.0963
 9578TIP3    H250226   2.443   1.958   1.447 -1.3311 -1.0284 -1.9400
 9579TIP3   OH250227   2.043   1.583   0.389  0.0795 -0.2393  0.5622
 9579TIP3    H150228   2.113   1.557   0.329 -1.5122  1.3740 -2.2229
 9579TIP3    H250229   2.067   1.671   0.418 -1.4252  1.0708 -1.7868
 9580TIP3   OH250230   0.122   0.380   6.649 -0.2719  0.2432 -0.3053
 9580TIP3    H150231   0.094   0.472   6.653 -0.1041  0.2896 -0.1438
 9580TIP3    H250232   0.212   0.382   6.682 -0.8409 -0.2158  1.4032
 9581TIP3   OH250233   0.255   4.003  12.793  0.0169  0.0096 -0.7650
 9581TIP3    H150234   0.256   3.908  12.805 -0.1238  0.0400 -0.4917
 9581TIP3    H250235   0.179   4.019  12.737 -0.7943  0.0790  0.3145
 9582TIP3   OH250236   5.582   4.509  11.812 -0.3749 -0.5668  0.5248
 9582TIP3    H150237   5.675   4.508  11.789 -0.2183 -0.3287  1.1252
 9582TIP3    H250238   5.539   4.549  11.736  0.1359  0.2664  0.6586
 9583TIP3   OH250239   1.251   2.434   1.482 -0.6569  0.8575 -0.4158
 9583TIP3    H150240   1.206   2.503   1.531 -1.6375 -1.4823  2.2636
 9583TIP3    H250241   1.181   2.391   1.432 -0.5351  0.2974 -0.1146
 9584TIP3   OH250242   1.591   4.795  11.595  0.5648 -0.1246 -0.4024
 9584TIP3    H150243   1.497   4.810  11.603  0.6687  0.1195  0.4569
 9584TIP3    H250244   1.628   4.831  11.676  1.3370 -0.7317 -0.4749
 9585TIP3   OH250245   0.820   3.026   6.395  0.3954  0.0656  0.2053
 9585TIP3    H150246   0.771   2.967   6.452  0.1369  1.8768  1.9408
 9585TIP3    H250247   0.759   3.097   6.376  0.3146 -0.6603 -2.7876
 9586TIP3   OH250248   3.947   4.841  14.558  0.4502 -0.5031  0.5382
 9586TIP3    H150249   3.986   4.888  14.484  0.9743  0.0992  1.1749
 9586TIP3    H250250   3.853   4.851  14.546  0.5337 -0.3300  0.0043
 9587TIP3   OH250251   1.487   1.425  13.655  0.5637  0.2973 -0.6025
 9587TIP3    H150252   1.462   1.454  13.567 -1.5009 -2.1376 -0.9152
 9587TIP3    H250253   1.451   1.492  13.713 -1.3541  0.0484 -1.4438
 9588TIP3   OH250254   1.540   4.193   1.087 -0.6468 -0.0732  0.4303
 9588TIP3    H150255   1.447   4.176   1.098 -0.7157 -0.3877 -0.5150
 9588TIP3    H250256   1.556   4.273   1.137 -1.5559  0.3399  0.0794
 9589TIP3   OH250257   2.759   1.940  14.413 -0.4085  0.1538 -0.2179
 9589TIP3    H150258   2.775   2.000  14.341  0.7663 -1.1914 -1.1283
 9589TIP3    H250259   2.841   1.891  14.422 -1.6440 -2.0506 -0.2496
 9590TIP3   OH250260   6.672   2.972  16.299  0.5290  0.1241 -0.3199
 9590TIP3    H150261   6.730   3.047  16.316 -0.3811  0.8783 -0.4427
 9590TIP3    H250262   6.716   2.923  16.229  0.9888  0.7289 -0.4649
 9591TIP3   OH250263   2.657   1.327  11.300 -0.5073  0.0590 -0.1433
 9591TIP3    H150264   2.626   1.395  11.240 -1.1148 -0.8438 -0.8855
 9591TIP3    H250265   2.627   1.245  11.261  1.0160 -0.7180  0.2299
 9592TIP3   OH250266   0.602   4.116  16.957 -0.1781  0.1046 -0.4686
 9592TIP3    H150267   0.690   4.108  16.919 -0.7418  0.6207 -1.9691
 9592TIP3    H250268   0.617   4.121  17.052  1.2565 -1.8889 -0.5217
 9593TIP3   OH250269   6.203   1.778   5.219  0.0604 -0.2497  0.5316
 9593TIP3    H150270   6.207   1.686   5.194 -0.0630 -0.1735  0.2322
 9593TIP3    H250271   6.240   1.781   5.307  0.3616 -0.5384  0.4141
 9594TIP3   OH250272   6.571   3.019   4.279  0.0768 -0.2212  0.4958
 9594TIP3    H150273   6.547   2.972   4.200  2.4906  0.1142 -0.5165
 9594TIP3    H250274   6.616   2.954   4.333  0.3763  0.0872  0.6175
 9595TIP3   OH250275   6.737   5.781  12.126 -0.0627  0.0775  0.3568
 9595TIP3    H150276   6.690   5.728  12.191  0.1358 -0.6267 -0.0574
 9595TIP3    H250277   6.811   5.726  12.100 -0.9613 -0.2903 -1.5549
 9596TIP3   OH250278   3.651   2.650   5.781  0.2924  0.1159 -0.5375
 9596TIP3    H150279   3.624   2.673   5.693 -0.5919 -0.5763 -0.4704
 9596TIP3    H250280   3.702   2.570   5.771 -0.5579 -0.4602 -0.3499
 9597TIP3   OH250281   5.351   3.357  14.309  0.1534 -0.0555 -0.7116
 9597TIP3    H150282   5.341   3.397  14.396  0.9265 -0.0488 -0.6198
 9597TIP3    H250283   5.442   3.373  14.285 -0.5467  1.7278 -2.4300
 9598TIP3   OH250284   4.318   0.993   0.600 -0.0180 -0.0013 -0.1752
 9598TIP3    H150285   4.307   0.944   0.518  0.7186 -1.0239  0.3112
 9598TIP3    H250286   4.238   1.045   0.608 -0.8732 -1.1807 -0.6966
 9599TIP3   OH250287   0.218   2.842  15.771  0.2279 -0.1533 -0.1946
 9599TIP3    H150288   0.147   2.810  15.715  1.2223  0.6412 -2.0143
 9599TIP3    H250289   0.297   2.824  15.721  1.1542  0.8848  0.8408
 9600TIP3   OH250290   2.657   6.502  11.925  0.6153 -0.2812  0.1815
 9600TIP3    H150291   2.692   6.485  11.837  0.5640 -0.9968  0.2956
 9600TIP3    H250292   2.652   6.416  11.966 -1.2670 -0.2123  0.1858
 9601TIP3   OH250293   3.588   4.446   2.594  0.2446  0.5892  0.1770
 9601TIP3    H150294   3.567   4.507   2.524 -0.8188  0.7856  0.6430
 9601TIP3    H250295   3.652   4.386   2.556  0.6347  1.4568 -0.5582
 9602TIP3   OH250296   1.108   2.221   5.296  0.7158 -0.6321  0.4775
 9602TIP3    H150297   1.159   2.144   5.319 -0.5357 -1.1004  1.8573
 9602TIP3    H250298   1.033   2.187   5.248  0.1146 -0.3223  1.1647
 9603TIP3   OH250299   2.823   5.170   0.740  0.4887  0.0405 -0.0629
 9603TIP3    H150300   2.918   5.160   0.751  0.2020 -2.3713  0.8540
 9603TIP3    H250301   2.790   5.187   0.828  0.0086  0.1961 -0.2682
 9604TIP3   OH250302   1.998   1.795   3.777  0.3019  0.0915 -0.7666
 9604TIP3    H150303   1.977   1.736   3.705 -0.4300  0.0122 -0.4909
 9604TIP3    H250304   2.032   1.739   3.846 -2.4499 -0.3546  0.3434
 9605TIP3   OH250305   2.389   3.764   0.666  0.5160  0.1388 -0.1818
 9605TIP3    H150306   2.427   3.838   0.714 -0.6197 -0.5335  1.8584
 9605TIP3    H250307   2.297   3.789   0.654 -0.0109 -1.1119  1.0043
 9606TIP3   OH250308   6.658   6.013   2.978 -0.2794 -0.7576 -0.3357
 9606TIP3    H150309   6.702   6.064   3.046  0.6156 -0.7469 -0.9197
 9606TIP3    H250310   6.620   5.938   3.025 -2.3260  0.8185  0.6756
 9607TIP3   OH250311   2.963   0.066   4.796 -0.0561  0.2490  0.0114
 9607TIP3    H150312   2.880   0.079   4.752  0.2162  1.5391 -0.1660
 9607TIP3    H250313   3.006  -0.003   4.747  0.7789  2.4627 -2.6490
 9608TIP3   OH250314   2.589   1.791   1.955  0.5983  0.0788  0.5867
 9608TIP3    H150315   2.612   1.781   1.863 -1.3806  0.6344 -0.0089
 9608TIP3    H250316   2.574   1.701   1.985 -1.6950  0.0143 -0.5033
 9609TIP3   OH250317   5.631   4.298  17.583 -0.7908  0.0998  0.1929
 9609TIP3    H150318   5.644   4.223  17.526 -0.8681  0.1407  0.1220
 9609TIP3    H250319   5.607   4.260  17.668 -0.7464  0.0417  0.1791
 9610TIP3   OH250320   3.107   3.325  16.416  0.1631 -0.1546  0.0967
 9610TIP3    H150321   3.103   3.345  16.510  0.0044 -0.9649  0.2650
 9610TIP3    H250322   3.145   3.404  16.377  1.0528 -0.1481  0.9388
 9611TIP3   OH250323   1.436   4.278  11.320 -0.5748  0.0230 -0.1108
 9611TIP3    H150324   1.518   4.250  11.278 -0.1547 -0.9727  1.2965
 9611TIP3    H250325   1.387   4.322  11.250  0.5062 -0.7094 -1.3766
 9612TIP3   OH250326   5.952   6.360  15.997  0.3197 -0.4459 -0.0198
 9612TIP3    H150327   5.908   6.380  16.079  0.5969 -1.7476  0.4865
 9612TIP3    H250328   5.908   6.413  15.932 -0.1024  0.3951  0.9186
 9613TIP3   OH250329   3.056   5.222   4.874  0.1896 -0.5538 -0.3980
 9613TIP3    H150330   2.967   5.210   4.907  0.0245  0.8773 -0.2758
 9613TIP3    H250331   3.111   5.177   4.939 -0.4018 -1.1559 -0.2990
 9614TIP3   OH250332   1.709   1.150   0.168 -0.0987 -0.9166 -0.2480
 9614TIP3    H150333   1.644   1.103   0.220 -0.2918 -1.3183 -0.8512
 9614TIP3    H250334   1.658   1.204   0.108 -0.0409  3.2801  3.0569
 9615TIP3   OH250335   4.223   3.942   7.486 -0.1907  0.1715 -0.4119
 9615TIP3    H150336   4.233   3.869   7.424 -0.1300  0.4604 -0.7436
 9615TIP3    H250337   4.309   3.953   7.525 -0.3056 -0.2194 -0.0383
 9616TIP3   OH250338   0.505   3.968   2.342 -0.1420  0.5083  0.0203
 9616TIP3    H150339   0.480   4.051   2.301  1.1555  1.8243  1.7717
 9616TIP3    H250340   0.514   3.988   2.435 -2.1399 -2.1811  0.9297
 9617TIP3   OH250341   2.392   3.485   0.835 -0.3320 -0.0096 -0.4160
 9617TIP3    H150342   2.474   3.534   0.830 -0.6051  0.3311 -2.0855
 9617TIP3    H250343   2.387   3.439   0.751 -1.5281 -0.5346 -0.0647
 9618TIP3   OH250344   0.918   6.321  15.958 -0.3175 -0.1889  0.0110
 9618TIP3    H150345   0.871   6.243  15.927 -1.5659  0.3748  0.4369
 9618TIP3    H250346   0.987   6.334  15.893  0.3523 -2.0293  0.2776
 9619TIP3   OH250347   6.134   1.191   4.862  0.9453  0.3458 -0.8267
 9619TIP3    H150348   6.066   1.127   4.881  1.3148  0.5416  1.4842
 9619TIP3    H250349   6.214   1.139   4.855  1.0052  0.4061 -0.5812
 9620TIP3   OH250350   6.161   3.683  11.167 -0.0428  0.5287  0.5013
 9620TIP3    H150351   6.194   3.638  11.089  1.0393  0.0144  1.2265
 9620TIP3    H250352   6.086   3.733  11.136  0.4599  0.4542 -0.9069
 9621TIP3   OH250353   2.536   6.355  13.920  0.1590 -0.1223  0.0925
 9621TIP3    H150354   2.578   6.328  13.838  2.1256  1.8888  0.3379
 9621TIP3    H250355   2.509   6.273  13.961 -0.3039 -1.2304 -2.2287
 9622TIP3   OH250356   1.691   4.142   3.781 -0.4685  0.7048  0.3778
 9622TIP3    H150357   1.686   4.175   3.870 -0.5531  1.3158  0.1522
 9622TIP3    H250358   1.693   4.047   3.790 -0.8091  0.7578  1.0107
 9623TIP3   OH250359   4.833   2.042   3.215  0.4910 -0.9449 -0.6819
 9623TIP3    H150360   4.878   1.960   3.237 -0.0305 -1.6193 -1.9911
 9623TIP3    H250361   4.903   2.104   3.195  0.9522 -0.5698  1.8130
 9624TIP3   OH250362   6.244   6.636  14.894 -0.0094  0.5650  0.1592
 9624TIP3    H150363   6.156   6.598  14.894 -0.1477  0.8247  1.8218
 9624TIP3    H250364   6.283   6.606  14.976  1.1897  1.0610 -0.2108
 9625TIP3   OH250365   5.475   5.987  11.036  0.5650  0.1936 -0.3783
 9625TIP3    H150366   5.531   6.050  11.082  1.2005 -0.1676 -0.6507
 9625TIP3    H250367   5.417   6.042  10.984  0.5038  0.5801  0.0875
 9626TIP3   OH250368   5.107   5.149   3.772 -0.4323 -0.2265  0.4236
 9626TIP3    H150369   5.175   5.119   3.712 -0.1112 -0.3957  0.8697
 9626TIP3    H250370   5.115   5.245   3.771 -0.8130 -0.1951 -0.2461
 9627TIP3   OH250371   6.254   2.396   3.885 -0.1821  0.0090  0.2460
 9627TIP3    H150372   6.299   2.322   3.924 -2.0205 -0.4632  1.6232
 9627TIP3    H250373   6.183   2.416   3.946 -2.1841  0.3356 -2.0305
 9628TIP3   OH250374   3.230   4.024   5.821 -0.4996  1.2406  0.3357
 9628TIP3    H150375   3.190   3.971   5.751 -0.8352  3.6888 -1.4946
 9628TIP3    H250376   3.165   4.023   5.891  0.5566 -2.6456  1.4601
 9629TIP3   OH250377   1.908   4.682   2.168 -0.4952 -0.2598  0.3452
 9629TIP3    H150378   1.949   4.757   2.211 -0.1024 -0.0256 -0.4085
 9629TIP3    H250379   1.860   4.637   2.238 -1.8607  1.4262  0.5599
 9630TIP3   OH250380   4.328   5.976   6.278  0.3350  0.2988 -0.4392
 9630TIP3    H150381   4.317   5.989   6.184  1.0565  0.8271 -0.4593
 9630TIP3    H250382   4.412   6.018   6.298  1.3736 -1.8485  0.0111
 9631TIP3   OH250383   2.188   6.412   3.833 -0.4601 -0.0225  0.1756
 9631TIP3    H150384   2.228   6.419   3.746 -1.7716 -1.1035 -0.5428
 9631TIP3    H250385   2.126   6.485   3.836  1.0233  1.2694  1.0467
 9632TIP3   OH250386   4.980   3.862  17.363  0.1361  0.1096  0.6283
 9632TIP3    H150387   4.941   3.783  17.326  0.0755  0.4305 -0.0040
 9632TIP3    H250388   4.949   3.863  17.454  1.0405 -1.1732  0.9821
 9633TIP3   OH250389   5.798   0.659  11.265 -0.6045  0.2953  0.7253
 9633TIP3    H150390   5.724   0.624  11.314 -0.7859  0.2446  0.4201
 9633TIP3    H250391   5.759   0.718  11.200 -0.2219  2.1552  2.1010
 9634TIP3   OH250392   4.517   3.051  14.292  0.2967 -0.5806  0.1474
 9634TIP3    H150393   4.574   3.014  14.360  1.5305  0.0338 -0.5095
 9634TIP3    H250394   4.503   3.142  14.320 -1.2570 -0.9927  0.8358
 9635TIP3   OH250395   2.104   5.164  10.685  0.3948  0.5435 -1.3017
 9635TIP3    H150396   2.056   5.121  10.756  0.3301  1.5670 -0.6994
 9635TIP3    H250397   2.194   5.136  10.696  1.1834  3.5222  1.5803
 9636TIP3   OH250398   1.422   5.106   2.217 -0.4581 -0.6934  0.0378
 9636TIP3    H150399   1.386   5.195   2.212 -0.2596 -0.6088  0.1076
 9636TIP3    H250400   1.450   5.097   2.308  4.9396  1.3102 -1.0417
 9637TIP3   OH250401   0.454   4.650  16.154  0.3008  0.4552 -0.0661
 9637TIP3    H150402   0.515   4.676  16.085  2.0303  0.9214  1.5510
 9637TIP3    H250403   0.422   4.733  16.190  0.0117  0.2207  0.2178
 9638TIP3   OH250404   2.530   1.552  17.220  0.5326 -0.1720  0.5066
 9638TIP3    H150405   2.472   1.511  17.284  0.6944 -1.1277  0.0592
 9638TIP3    H250406   2.478   1.621  17.181  0.0886 -0.2553  0.9472
 9639TIP3   OH250407   4.453   3.365   0.351  0.4690  0.8574  0.6684
 9639TIP3    H150408   4.463   3.459   0.338 -0.0405  0.9159  0.6579
 9639TIP3    H250409   4.497   3.348   0.434  1.2303  0.9712  0.2946
 9640TIP3   OH250410   3.507   5.558   3.026 -0.1335  0.0531 -0.8162
 9640TIP3    H150411   3.499   5.463   3.027  0.1817  0.0308 -0.6192
 9640TIP3    H250412   3.478   5.583   2.938 -1.4377 -0.1178 -0.4619
 9641TIP3   OH250413   1.635   3.739   4.608  0.0949  0.7139 -0.5966
 9641TIP3    H150414   1.576   3.778   4.544 -0.4319  1.5472  0.3507
 9641TIP3    H250415   1.719   3.732   4.563 -0.4461  0.5751 -1.6042
 9642TIP3   OH250416   0.020   1.633  12.090  0.0758 -0.1537 -0.2182
 9642TIP3    H150417   0.096   1.677  12.050 -0.9938  1.8143 -0.2057
 9642TIP3    H250418   0.027   1.654  12.183 -1.1880  1.2507 -0.3998
 9643TIP3   OH250419   5.500   0.458   2.056 -0.2220 -0.4892 -0.1058
 9643TIP3    H150420   5.592   0.436   2.072 -0.4513 -1.4931 -0.1306
 9643TIP3    H250421   5.463   0.468   2.144  0.4808  2.6048 -0.0221
 9644TIP3   OH250422   6.532   1.109   6.051  0.4355 -0.0675 -0.3152
 9644TIP3    H150423   6.497   1.165   5.982  2.0115  0.0696 -1.0649
 9644TIP3    H250424   6.488   1.138   6.131  0.6548  1.7696 -0.8069
 9645TIP3   OH250425   1.841   1.801   4.345 -0.0570 -0.3161  0.0218
 9645TIP3    H150426   1.807   1.757   4.422  0.6753 -1.8797 -0.5054
 9645TIP3    H250427   1.768   1.853   4.313 -0.6762 -0.4396  1.1853
 9646TIP3   OH250428   5.069   6.083  15.874 -0.1232 -0.0646  0.1946
 9646TIP3    H150429   5.030   6.031  15.804 -1.2023  1.5593 -0.4623
 9646TIP3    H250430   5.163   6.076  15.860 -0.3192  0.0337 -1.2746
 9647TIP3   OH250431   3.315   0.051  14.425 -0.3516  0.0856 -0.4460
 9647TIP3    H150432   3.261  -0.019  14.461 -0.3998 -0.9187 -2.3532
 9647TIP3    H250433   3.256   0.101  14.368  0.2991 -0.0094 -1.2378
 9648TIP3   OH250434   2.095   1.308  15.589  0.1832 -0.5547 -0.8917
 9648TIP3    H150435   2.091   1.214  15.604  1.1566 -0.4486  0.2348
 9648TIP3    H250436   2.181   1.323  15.551 -0.0681 -0.1461 -1.3109
 9649TIP3   OH250437   2.074   1.465  15.291  0.3225  0.6846  0.0057
 9649TIP3    H150438   2.125   1.516  15.354  0.6286  0.1974  0.1522
 9649TIP3    H250439   2.137   1.439  15.225  0.8655 -2.1089  1.4958
 9650TIP3   OH250440   4.704   3.739  11.956  0.0587  0.3428  0.4202
 9650TIP3    H150441   4.767   3.682  12.001  0.6281  1.1712  0.6924
 9650TIP3    H250442   4.723   3.827  11.988  0.4254  0.9572 -1.3267
 9651TIP3   OH250443   3.673   4.689   4.603 -0.6153 -0.7682 -0.0898
 9651TIP3    H150444   3.690   4.595   4.599  2.4068 -0.2514 -2.3586
 9651TIP3    H250445   3.583   4.698   4.572 -0.6020 -2.8435 -0.9029
 9652TIP3   OH250446   1.582   1.330  12.625 -0.0770  0.5161  0.4299
 9652TIP3    H150447   1.612   1.409  12.669  0.8816  1.1128 -1.2121
 9652TIP3    H250448   1.489   1.325  12.647 -1.0595  4.0187 -1.9954
 9653TIP3   OH250449   3.306   1.038   2.499  0.3564  0.2038 -0.5041
 9653TIP3    H150450   3.348   0.952   2.493  1.0085  0.4715  0.1339
 9653TIP3    H250451   3.281   1.058   2.408 -0.2804 -0.8808 -0.5859
 9654TIP3   OH250452   4.775   0.342  10.643  0.1012 -1.2061  0.3396
 9654TIP3    H150453   4.805   0.252  10.656  0.5864 -0.9761  0.8741
 9654TIP3    H250454   4.685   0.342  10.674  0.7542 -1.0316  2.3634
 9655TIP3   OH250455   6.245   1.731  15.627 -0.0525  0.1268 -0.2223
 9655TIP3    H150456   6.210   1.642  15.620 -0.4268  0.1841  0.8031
 9655TIP3    H250457   6.340   1.721  15.613 -0.1057 -0.4119 -0.2072
 9656TIP3   OH250458   3.795   5.262  16.491 -0.2615  0.4309  0.9673
 9656TIP3    H150459   3.719   5.313  16.521 -0.7363  1.2417 -1.3724
 9656TIP3    H250460   3.757   5.184  16.450  0.4446 -1.8035  4.1576
 9657TIP3   OH250461   5.490   3.573  14.473 -0.4865  0.0836  0.2434
 9657TIP3    H150462   5.509   3.581  14.567  0.1864 -2.1033  0.3526
 9657TIP3    H250463   5.527   3.652  14.434  2.8347 -0.7840  1.3503
 9658TIP3   OH250464   5.988   4.584   3.578 -0.3735  0.2301 -0.4754
 9658TIP3    H150465   6.036   4.528   3.638 -1.9213  0.8668  1.4464
 9658TIP3    H250466   6.029   4.670   3.587  0.4619 -0.0196 -1.6373
 9659TIP3   OH250467   2.783   4.786  11.743 -0.5531  0.4503 -0.5209
 9659TIP3    H150468   2.775   4.757  11.652 -0.6378  1.5425 -0.8777
 9659TIP3    H250469   2.710   4.846  11.755 -0.6522  0.1680  0.3352
 9660TIP3   OH250470   0.005   3.546  15.747 -0.2658  0.0569  0.0734
 9660TIP3    H150471   0.060   3.503  15.813  0.6020  1.3767  0.2539
 9660TIP3    H250472  -0.038   3.616  15.795  0.8944  1.4691 -0.8601
 9661TIP3   OH250473   4.881   2.364  14.823  0.2008  0.5392 -0.2894
 9661TIP3    H150474   4.916   2.277  14.843  0.4934  0.8624  0.6686
 9661TIP3    H250475   4.958   2.420  14.815 -0.0332  1.1561  1.3531
 9662TIP3   OH250476   4.977   0.897   2.328 -0.3147  0.2116  0.3552
 9662TIP3    H150477   5.048   0.882   2.265 -0.1253  0.7617  0.4320
 9662TIP3    H250478   5.017   0.949   2.397 -0.2069 -1.3660  1.5470
 9663TIP3   OH250479   3.580   3.952   5.790 -0.0199 -0.5707 -0.0235
 9663TIP3    H150480   3.605   3.860   5.804 -1.3851 -1.1410 -1.0643
 9663TIP3    H250481   3.528   3.974   5.867 -1.7567 -1.5019 -0.8606
 9664TIP3   OH250482   2.004   5.704  16.420  0.0188 -0.0845 -0.0455
 9664TIP3    H150483   1.961   5.619  16.410 -0.5898  0.3476 -1.1956
 9664TIP3    H250484   2.090   5.691  16.380  0.8775 -0.8311  1.9056
 9665TIP3   OH250485   5.173   3.362  16.237  0.8250 -0.1486  0.4189
 9665TIP3    H150486   5.090   3.358  16.286  1.0719 -0.9830  0.8049
 9665TIP3    H250487   5.148   3.348  16.146  0.6229 -1.4786  0.6549
 9666TIP3   OH250488   0.409   5.129   6.729 -0.0522 -0.4166  0.5789
 9666TIP3    H150489   0.496   5.143   6.765 -0.5858 -0.2493  1.8641
 9666TIP3    H250490   0.419   5.057   6.668  0.3938 -2.8172  3.2666
 9667TIP3   OH250491   0.683   6.404   2.238 -0.1489 -0.0701 -0.2736
 9667TIP3    H150492   0.699   6.497   2.255 -2.1345  0.7868 -2.5998
 9667TIP3    H250493   0.622   6.377   2.307  0.3184  0.3817  0.3220
 9668TIP3   OH250494   1.803   0.300  17.152 -0.2082 -0.2200 -0.1790
 9668TIP3    H150495   1.729   0.324  17.097  1.3139  2.1052 -1.3804
 9668TIP3    H250496   1.805   0.368  17.220 -0.3383 -1.4137  1.0499
 9669TIP3   OH250497   3.355   1.982   1.479 -0.1804  0.1679  0.5785
 9669TIP3    H150498   3.352   1.962   1.385  1.8785  0.3972  0.4090
 9669TIP3    H250499   3.334   2.075   1.485  0.6262  0.3869  0.2112
 9670TIP3   OH250500   4.398   4.299  17.367 -0.3566  0.1822  0.5663
 9670TIP3    H150501   4.409   4.211  17.333 -1.3101 -0.0035  0.6965
 9670TIP3    H250502   4.465   4.351  17.323  0.3495 -0.6428  0.6527
 9671TIP3   OH250503   4.493   3.471   5.610 -1.1292  0.1769 -0.1166
 9671TIP3    H150504   4.489   3.561   5.576  0.2321 -0.1526 -1.2345
 9671TIP3    H250505   4.452   3.418   5.543 -2.3260 -0.0183  0.7400
 9672TIP3   OH250506   3.677   4.975  13.353  0.0042  0.1942  0.0284
 9672TIP3    H150507   3.684   4.974  13.449  0.3835 -1.2498  0.0021
 9672TIP3    H250508   3.749   4.921  13.323 -0.4707  0.1465 -1.0558
 9673TIP3   OH250509   2.838   1.433   3.346  0.0137 -0.4468  0.2413
 9673TIP3    H150510   2.805   1.448   3.257 -0.5646 -2.0931  0.1315
 9673TIP3    H250511   2.827   1.339   3.359  1.8812 -0.5543  1.3566
 9674TIP3   OH250512   6.674   3.477  17.429 -0.7782 -0.3013  0.4928
 9674TIP3    H150513   6.668   3.471  17.524  1.4069  0.2918  0.7328
 9674TIP3    H250514   6.725   3.400  17.403 -0.8357 -0.1398 -0.1254
 9675TIP3   OH250515   3.819   2.040   2.639 -0.7767  0.0657  0.2859
 9675TIP3    H150516   3.834   2.127   2.602  0.2913  0.0285  0.5845
 9675TIP3    H250517   3.839   1.979   2.567 -3.7664  0.0448 -0.6812
 9676TIP3   OH250518   1.775   2.625  12.227 -0.2628  0.2963 -0.1657
 9676TIP3    H150519   1.857   2.634  12.179 -0.8950  0.0828 -1.3205
 9676TIP3    H250520   1.714   2.684  12.183 -2.0999 -3.0131 -2.5320
 9677TIP3   OH250521   4.864   0.553   3.617 -0.0145  0.0040  0.2442
 9677TIP3    H150522   4.864   0.503   3.699  2.3231 -1.3196 -0.4593
 9677TIP3    H250523   4.782   0.529   3.574  0.6846 -2.7844  0.2602
 9678TIP3   OH250524   1.263   1.513   0.182  0.8275  0.4315 -0.5628
 9678TIP3    H150525   1.218   1.549   0.106 -0.1584  0.2047 -0.1008
 9678TIP3    H250526   1.321   1.583   0.211  0.7410  0.7446 -1.1290
 9679TIP3   OH250527   4.210   5.188  13.568  0.2027 -0.6497  0.2127
 9679TIP3    H150528   4.212   5.111  13.625  0.3492 -1.3628 -0.7436
 9679TIP3    H250529   4.264   5.165  13.493 -0.0827  0.2343 -0.2867
 9680TIP3   OH250530   5.155   2.490  14.803 -0.3544  0.5707  0.5517
 9680TIP3    H150531   5.184   2.552  14.737  0.8745 -1.0481 -0.5253
 9680TIP3    H250532   5.141   2.542  14.882  3.9025  1.8682  0.7177
 9681TIP3   OH250533   2.854   0.550  15.621  0.2181 -0.3314 -0.1855
 9681TIP3    H150534   2.913   0.561  15.696  0.2001  0.0651 -0.2273
 9681TIP3    H250535   2.807   0.469  15.639  0.7227 -0.6159 -0.1122
 9682TIP3   OH250536   6.456   2.693   6.007 -0.1905  0.3439 -0.3322
 9682TIP3    H150537   6.514   2.662   5.936 -0.2151  0.1083 -0.2475
 9682TIP3    H250538   6.440   2.616   6.061  1.2665  0.8776  0.9475
 9683TIP3   OH250539   6.027   6.437   2.581  0.6176  0.1402 -0.0592
 9683TIP3    H150540   6.105   6.493   2.576  0.6951  0.1721  1.1846
 9683TIP3    H250541   5.969   6.481   2.643 -0.8394  0.6207 -1.6931
 9684TIP3   OH250542   1.500   4.076  17.267  0.5250  0.1820  0.6559
 9684TIP3    H150543   1.519   4.120  17.350 -0.6857  0.7666  0.6446
 9684TIP3    H250544   1.568   4.009  17.259  0.5324 -0.0222  2.2130
 9685TIP3   OH250545   2.993   5.237   0.477 -0.5830  0.3672  0.1686
 9685TIP3    H150546   3.056   5.305   0.454  2.6250 -0.8194  4.2026
 9685TIP3    H250547   2.932   5.280   0.537 -0.0843  0.2723  0.7505
 9686TIP3   OH250548   2.264   1.384   3.415 -0.8242  0.1779 -0.6693
 9686TIP3    H150549   2.354   1.412   3.405 -0.2521 -1.3927 -0.1819
 9686TIP3    H250550   2.235   1.363   3.326 -0.6595  0.4717 -0.7951
 9687TIP3   OH250551   5.716   3.098   5.983  0.0365 -0.0255 -0.1818
 9687TIP3    H150552   5.748   3.177   6.027  1.2554 -0.6067  0.0005
 9687TIP3    H250553   5.792   3.040   5.978 -0.8041 -1.1481 -0.4276
 9688TIP3   OH250554   5.777   3.463   0.692  0.3208 -0.1732 -0.4854
 9688TIP3    H150555   5.829   3.539   0.666  0.1881  0.0643 -0.0711
 9688TIP3    H250556   5.687   3.487   0.669  0.4035 -0.6801 -1.4270
 9689TIP3   OH250557   2.348   3.851   3.417  0.2875 -0.1179 -0.4897
 9689TIP3    H150558   2.302   3.771   3.443  0.7651  0.0967  1.1306
 9689TIP3    H250559   2.421   3.820   3.364  0.8518 -0.8476  0.6550
 9690TIP3   OH250560   3.188   1.277   5.425  0.3103  0.3195 -0.1287
 9690TIP3    H150561   3.167   1.357   5.474 -1.4212  0.3293 -0.7940
 9690TIP3    H250562   3.134   1.284   5.346  0.8861 -1.0488 -0.6553
 9691TIP3   OH250563   6.514   0.037  12.209 -0.1999  0.3765 -0.6779
 9691TIP3    H150564   6.434   0.016  12.257  0.6973 -0.8890  0.3380
 9691TIP3    H250565   6.540   0.123  12.242 -0.9363  0.6476 -0.7696
 9692TIP3   OH250566   4.670   5.242   4.503 -0.2907 -0.7771 -0.4661
 9692TIP3    H150567   4.758   5.214   4.527 -0.3144 -0.1944  0.3238
 9692TIP3    H250568   4.647   5.187   4.428  0.2331 -1.8493  0.1383
 9693TIP3   OH250569   1.551   1.080   1.623 -0.4381 -0.7095 -0.0531
 9693TIP3    H150570   1.494   1.061   1.549  0.1970  3.1271 -1.7272
 9693TIP3    H250571   1.638   1.087   1.585  0.1985 -0.4007  1.4049
 9694TIP3   OH250572   1.048   1.758   1.597  0.2209 -0.2781 -0.0375
 9694TIP3    H150573   1.142   1.769   1.585  0.1132 -0.5670 -1.2581
 9694TIP3    H250574   1.037   1.665   1.618  0.3092  0.0211  1.5072
 9695TIP3   OH250575   5.256   5.177  13.354 -0.5513 -0.0331 -0.2330
 9695TIP3    H150576   5.308   5.116  13.303 -0.4016 -0.0292 -0.0847
 9695TIP3    H250577   5.281   5.161  13.445 -1.6664 -0.8420 -0.0539
 9696TIP3   OH250578   1.555   4.768  10.827 -0.1448 -0.4516  0.7094
 9696TIP3    H150579   1.623   4.701  10.829 -0.5694 -0.9784 -1.0683
 9696TIP3    H250580   1.596   4.842  10.781 -0.7721 -0.7764 -0.3765
 9697TIP3   OH250581   3.772   1.758   0.867 -0.6966 -0.1818 -0.1007
 9697TIP3    H150582   3.730   1.839   0.837  0.7622  0.9925  0.8846
 9697TIP3    H250583   3.712   1.689   0.840 -1.7942  1.1811 -1.3496
 9698TIP3   OH250584   5.409   6.727  15.892  0.0526  0.1712  0.0041
 9698TIP3    H150585   5.335   6.781  15.864 -0.3983 -0.8178 -0.7460
 9698TIP3    H250586   5.432   6.762  15.978 -1.8887 -0.0697  0.6847
 9699TIP3   OH250587   1.709   2.457  16.696  0.5369  0.0062 -0.1081
 9699TIP3    H150588   1.621   2.481  16.667  0.3376 -0.1057  0.4037
 9699TIP3    H250589   1.729   2.377  16.649 -0.1841 -0.7275  0.8043
 9700TIP3   OH250590   2.473   0.546  16.907  0.1503 -0.2484 -0.3128
 9700TIP3    H150591   2.560   0.563  16.942 -0.1671  0.1985  0.2709
 9700TIP3    H250592   2.472   0.452  16.889  0.9198 -0.1650 -0.8050
 9701TIP3   OH250593   0.327   2.860   4.247 -0.2033 -0.0701 -0.4693
 9701TIP3    H150594   0.279   2.922   4.192 -1.2980 -1.2080 -0.8643
 9701TIP3    H250595   0.259   2.803   4.283  0.7407 -0.8760  0.0902
 9702TIP3   OH250596   6.471   0.086  17.503 -0.2028 -0.1188  0.6002
 9702TIP3    H150597   6.407   0.142  17.459  0.8311  0.3169 -0.3999
 9702TIP3    H250598   6.418   0.019  17.545 -1.2625 -1.4366 -2.5089
 9703TIP3   OH250599   2.532   3.163  17.019 -0.3615 -0.1529 -0.3714
 9703TIP3    H150600   2.488   3.083  16.992 -0.2921 -0.9010  1.5864
 9703TIP3    H250601   2.543   3.154  17.114  0.3646  1.8209 -0.2183
 9704TIP3   OH250602   4.913   5.350  11.979 -0.0844  0.0502 -0.0887
 9704TIP3    H150603   4.839   5.289  11.985  1.1061 -1.4445  0.0468
 9704TIP3    H250604   4.917   5.373  11.886  0.0826 -0.9633 -0.3568
 9705TIP3   OH250605   2.753   5.511  14.896 -0.3038  0.0092  0.6935
 9705TIP3    H150606   2.772   5.455  14.821 -1.6421  0.2227  0.1686
 9705TIP3    H250607   2.704   5.585  14.859 -0.4186  0.4425  1.6863
 9706TIP3   OH250608   6.611   1.699   3.453 -0.1621 -0.0574  0.3543
 9706TIP3    H150609   6.540   1.737   3.400 -0.4264 -0.0238  0.7330
 9706TIP3    H250610   6.573   1.620   3.491 -0.1726  0.2596  1.0106
 9707TIP3   OH250611   0.274   0.396  13.832 -0.1058 -0.1643  0.5771
 9707TIP3    H150612   0.292   0.482  13.794 -2.1928  0.7841  1.5522
 9707TIP3    H250613   0.321   0.397  13.915 -0.1241  0.0407  0.5873
 9708TIP3   OH250614   0.979   6.204   4.886  0.3686 -0.7672 -0.5066
 9708TIP3    H150615   0.936   6.287   4.905 -0.3570 -1.0435 -0.9025
 9708TIP3    H250616   0.909   6.148   4.851  1.1282 -1.0876 -1.5637
 9709TIP3   OH250617   4.853   4.343   4.223 -0.2098  0.4120 -0.4666
 9709TIP3    H150618   4.858   4.264   4.276 -0.4916 -0.2301 -1.3677
 9709TIP3    H250619   4.945   4.369   4.211 -0.1729  1.1765  1.1707
 9710TIP3   OH250620   4.648   4.420   6.058  0.0456  1.0015 -0.6772
 9710TIP3    H150621   4.726   4.457   6.099  0.0922 -1.3297  1.6206
 9710TIP3    H250622   4.580   4.486   6.070  0.5695  1.2057  1.5374
 9711TIP3   OH250623   5.921   4.232  14.852  0.7028  0.6874 -0.7963
 9711TIP3    H150624   5.956   4.241  14.940  0.8362  1.6300 -0.9380
 9711TIP3    H250625   5.830   4.259  14.859  0.2866 -0.6518 -0.6655
 9712TIP3   OH250626   4.170   4.773  16.179  0.6338 -0.7786 -0.0445
 9712TIP3    H150627   4.102   4.807  16.238 -0.7776 -1.3114 -1.2828
 9712TIP3    H250628   4.247   4.761  16.234  0.4492  2.0403  0.9468
 9713TIP3   OH250629   3.741   4.988  15.232 -0.3231 -0.2470  0.3067
 9713TIP3    H150630   3.802   5.060  15.248  0.3674 -0.7290 -0.1017
 9713TIP3    H250631   3.797   4.912  15.220 -1.0242 -0.7516  0.1818
 9714TIP3   OH250632   5.932   3.844  16.172 -0.3603 -0.0868 -0.1448
 9714TIP3    H150633   5.969   3.802  16.094 -0.5503 -1.7125  0.5972
 9714TIP3    H250634   5.884   3.774  16.216 -2.4039  1.4036  0.1321
 9715TIP3   OH250635   3.065   6.019   2.247  0.8786  0.0936 -0.1255
 9715TIP3    H150636   3.119   6.048   2.173  1.1669  0.5325  0.2532
 9715TIP3    H250637   3.075   6.088   2.312  1.1765 -0.6263  0.6020
 9716TIP3   OH250638   2.178   4.104   0.064 -0.0495  0.2578  0.0632
 9716TIP3    H150639   2.219   4.096  -0.022 -0.2023 -1.8348  0.1349
 9716TIP3    H250640   2.163   4.014   0.092 -1.7777  0.9089  1.4424
 9717TIP3   OH250641   6.136   2.031   5.570  0.0460  0.1924 -0.4111
 9717TIP3    H150642   6.203   1.973   5.605  0.0858  0.3604 -0.2077
 9717TIP3    H250643   6.184   2.106   5.535  0.1944 -0.9856 -2.9004
 9718TIP3   OH250644   0.672   4.582   4.526 -0.3844 -0.6229 -0.0593
 9718TIP3    H150645   0.740   4.649   4.533  0.0678 -1.1016  0.2684
 9718TIP3    H250646   0.593   4.630   4.503  0.6080 -0.3490 -3.3115
 9719TIP3   OH250647   1.148   2.665  13.168  0.1698 -0.1059 -0.8650
 9719TIP3    H150648   1.159   2.757  13.146 -0.5601  0.7707  2.0289
 9719TIP3    H250649   1.223   2.621  13.129  0.1133  1.5509 -2.9830
 9720TIP3   OH250650   1.618   6.376   0.090 -0.4274  0.8611  0.1945
 9720TIP3    H150651   1.695   6.395   0.144 -0.0395  1.6674 -0.6158
 9720TIP3    H250652   1.638   6.416   0.005 -0.5164 -1.3758 -0.9450
 9721TIP3   OH250653   2.517   4.000  16.052 -0.0280 -0.0719 -0.0399
 9721TIP3    H150654   2.504   4.072  15.990  0.8761 -0.3892 -0.6000
 9721TIP3    H250655   2.429   3.983  16.087 -0.2825  1.2086  0.0029
 9722TIP3   OH250656   5.156   1.751   3.842 -0.0923 -0.0357 -0.6341
 9722TIP3    H150657   5.103   1.763   3.920  0.1254 -1.6865 -0.1992
 9722TIP3    H250658   5.246   1.763   3.872 -0.0912  1.4197 -1.0996
 9723TIP3   OH250659   3.526   2.703  17.407  0.3609  0.2495  0.2084
 9723TIP3    H150660   3.432   2.716  17.397  0.0364 -1.4431  0.6479
 9723TIP3    H250661   3.541   2.612  17.379  2.0131  0.7641 -0.7074
 9724TIP3   OH250662   5.338   0.743   1.087  0.2762 -0.7908  0.4432
 9724TIP3    H150663   5.360   0.752   1.180  0.3846 -2.2025  0.5788
 9724TIP3    H250664   5.423   0.734   1.044  0.2327 -0.0099  0.1706
 9725TIP3   OH250665   2.983   4.181  11.999  0.1150 -0.0895 -0.3203
 9725TIP3    H150666   2.944   4.129  12.070 -1.5392  0.1822 -0.9665
 9725TIP3    H250667   3.066   4.213  12.034 -0.2495 -0.6988  1.1577
 9726TIP3   OH250668   2.028   0.555   2.377  0.3117  0.4947 -0.0734
 9726TIP3    H150669   2.104   0.569   2.321 -1.1561  3.6909 -1.5056
 9726TIP3    H250670   1.959   0.525   2.318  0.2295 -1.9897  1.1411
 9727TIP3   OH250671   2.073   4.241   1.840  0.2186  0.4286  0.2241
 9727TIP3    H150672   2.048   4.304   1.772  0.7715 -0.2188 -0.5959
 9727TIP3    H250673   2.016   4.262   1.914 -1.8503 -0.1664 -1.1111
 9728TIP3   OH250674   0.965   3.967  12.654 -0.4173  0.2104  0.9880
 9728TIP3    H150675   0.925   3.904  12.715 -1.6959 -0.1311 -0.1545
 9728TIP3    H250676   0.938   4.053  12.687 -1.0884  0.0281  0.9371
 9729TIP3   OH250677   3.594   2.583  13.626 -0.4935  0.1362 -0.5407
 9729TIP3    H150678   3.644   2.512  13.586  2.2407  2.5954 -1.8336
 9729TIP3    H250679   3.516   2.591  13.571  0.9473  0.4034 -2.7032
 9730TIP3   OH250680   4.046   0.247   0.596 -0.6911 -0.1477  0.2611
 9730TIP3    H150681   4.001   0.178   0.644 -0.6395 -0.7676 -0.5490
 9730TIP3    H250682   4.123   0.204   0.558 -0.8090  0.2758 -0.4894
 9731TIP3   OH250683   1.233   3.801  15.087 -0.0368  0.0898  0.7729
 9731TIP3    H150684   1.326   3.788  15.069 -0.1772  0.3174 -0.1463
 9731TIP3    H250685   1.205   3.719  15.128  0.1857 -0.6631 -0.5351
 9732TIP3   OH250686   5.036   2.501  13.734 -0.3560  0.4012 -0.0461
 9732TIP3    H150687   4.981   2.542  13.668 -1.3781 -0.0445  0.4932
 9732TIP3    H250688   4.991   2.519  13.817  1.0620  1.2244  0.5748
 9733TIP3   OH250689   4.082   1.439  13.021  0.3864  0.2732  0.1681
 9733TIP3    H150690   4.040   1.353  13.016  0.2424  0.2720  1.1861
 9733TIP3    H250691   4.165   1.428  12.976  0.4439 -0.4523  0.4439
 9734TIP3   OH250692   5.036   2.383   6.109  0.2172  0.0204  0.2759
 9734TIP3    H150693   5.123   2.366   6.073  0.1948  0.0756  0.1946
 9734TIP3    H250694   5.042   2.358   6.201 -0.2053 -1.7595 -0.1419
 9735TIP3   OH250695   5.910   4.691   6.559 -0.0534 -0.4132 -0.0200
 9735TIP3    H150696   5.829   4.730   6.594 -1.7466 -0.3837 -3.5576
 9735TIP3    H250697   5.917   4.607   6.605 -1.6991 -0.0995  0.9128
 9736TIP3   OH250698   5.944   0.541  17.382  0.5732 -0.5814  0.0189
 9736TIP3    H150699   5.851   0.561  17.378  0.6034 -0.6045 -1.3564
 9736TIP3    H250700   5.972   0.574  17.467 -0.3672  0.8829 -0.2008
 9737TIP3   OH250701   0.059   1.014  17.213 -0.6326  0.9682  0.4142
 9737TIP3    H150702   0.045   0.950  17.284 -0.4375  0.3663 -0.0793
 9737TIP3    H250703   0.104   0.964  17.145  1.7971  2.2196  0.9756
 9738TIP3   OH250704   0.628   2.117   4.752 -0.2278  0.6021 -0.1568
 9738TIP3    H150705   0.543   2.105   4.794 -0.2988  0.1537 -0.4277
 9738TIP3    H250706   0.687   2.057   4.797  0.1123  1.4072  0.4947
 9739TIP3   OH250707   5.523   5.040   0.827  0.2654 -0.6421 -0.2883
 9739TIP3    H150708   5.479   5.117   0.864  1.3304 -0.9138  1.6587
 9739TIP3    H250709   5.482   5.029   0.741 -0.3751  1.7052 -0.3760
 9740TIP3   OH250710   2.178   6.178  11.868  0.5741 -0.9178 -0.1551
 9740TIP3    H150711   2.223   6.137  11.942  1.5529 -0.7210 -0.6225
 9740TIP3    H250712   2.119   6.110  11.835 -1.3789 -0.3975  1.9906
 9741TIP3   OH250713   5.468   0.736   4.702  0.4470  0.4450  0.1106
 9741TIP3    H150714   5.384   0.752   4.746  0.7895  0.2274  0.8708
 9741TIP3    H250715   5.486   0.644   4.719  0.3685  0.2391 -0.8978
 9742TIP3   OH250716   3.889   3.321   0.410 -0.2761  0.1240  0.0462
 9742TIP3    H150717   3.969   3.274   0.434 -1.4956 -2.4916 -0.6673
 9742TIP3    H250718   3.914   3.374   0.334  1.1648  0.8198  0.9393
 9743TIP3   OH250719   2.752   2.998   4.068  0.1563  0.4147  0.0859
 9743TIP3    H150720   2.808   3.042   4.004  0.8441 -1.0940 -0.3839
 9743TIP3    H250721   2.789   3.024   4.153  1.4000 -0.2801 -0.2109
 9744TIP3   OH250722   5.586   2.327   0.435 -0.1001 -0.5529 -0.5472
 9744TIP3    H150723   5.644   2.292   0.502 -2.8222 -0.8973  1.8092
 9744TIP3    H250724   5.620   2.415   0.417  0.7530 -0.4814  1.2589
 9745TIP3   OH250725   5.200   3.511  17.376  0.1712  0.0632  0.1492
 9745TIP3    H150726   5.118   3.505  17.425 -0.3967  0.8737 -0.6775
 9745TIP3    H250727   5.221   3.604  17.374 -0.2636  0.1540 -1.8376
 9746TIP3   OH250728   2.285   0.668  17.104 -0.3617 -0.0342  0.3764
 9746TIP3    H150729   2.293   0.583  17.149  0.1880  0.0033  0.3489
 9746TIP3    H250730   2.337   0.658  17.025 -2.2087 -0.4827 -0.8635
 9747TIP3   OH250731   2.653   3.084   5.436 -0.5485 -0.0517  0.4401
 9747TIP3    H150732   2.574   3.126   5.403 -0.5616  1.3957  2.1956
 9747TIP3    H250733   2.622   3.003   5.477 -0.8542 -0.4653 -0.5714
 9748TIP3   OH250734   6.690   5.939   6.137 -0.3458 -0.5538 -0.2244
 9748TIP3    H150735   6.774   5.918   6.178  0.5164 -0.7293 -1.9526
 9748TIP3    H250736   6.626   5.884   6.182  0.5372 -0.7218  0.8535
 9749TIP3   OH250737   4.853   1.527   1.228 -0.0597  0.5132  0.1139
 9749TIP3    H150738   4.867   1.596   1.292  2.1734  1.1531 -0.9562
 9749TIP3    H250739   4.811   1.570   1.155  0.7090  0.6285 -0.2761
 9750TIP3   OH250740   5.075   2.801   6.211 -0.2829 -0.6477 -0.0790
 9750TIP3    H150741   5.074   2.865   6.282  1.4135  0.6056 -1.0978
 9750TIP3    H250742   5.021   2.729   6.243 -0.9183  0.5711  1.7914
 9751TIP3   OH250743   1.329   5.318  10.815  0.3907 -0.3443  0.0016
 9751TIP3    H150744   1.247   5.279  10.785  1.0348 -1.3545 -0.5080
 9751TIP3    H250745   1.303   5.379  10.884 -0.6954 -1.4061  0.5695
 9752TIP3   OH250746   3.600   1.693  14.107  0.1626  0.1120  0.1129
 9752TIP3    H150747   3.532   1.740  14.155 -1.5450  0.3254 -2.3458
 9752TIP3    H250748   3.675   1.754  14.107 -1.3998  2.1962 -1.4591
 9753TIP3   OH250749   3.381   1.895   3.766  0.2149  0.4203  0.1125
 9753TIP3    H150750   3.359   1.988   3.764 -0.7302  0.2272 -2.5908
 9753TIP3    H250751   3.328   1.859   3.837  0.9373  1.9806  1.4960
 9754TIP3   OH250752   6.211   0.665   2.355 -0.6126  0.1957 -0.5004
 9754TIP3    H150753   6.190   0.621   2.438 -1.2127  1.5779  0.1123
 9754TIP3    H250754   6.298   0.703   2.370 -1.1726  1.3717 -0.0729
 9755TIP3   OH250755   6.140   3.058   4.978  0.4128  0.2860  0.0311
 9755TIP3    H150756   6.195   2.983   4.958 -0.2410  0.1254 -1.2811
 9755TIP3    H250757   6.198   3.120   5.021  1.5949  0.0463 -1.1439
 9756TIP3   OH250758   4.740   2.992  11.327 -0.0763 -0.1913 -0.0106
 9756TIP3    H150759   4.748   3.064  11.265 -2.4275  0.3055  0.1700
 9756TIP3    H250760   4.666   3.017  11.383  0.3265 -1.8326  1.3338
 9757TIP3   OH250761   0.609   3.504   4.157 -0.5722  0.7952 -0.0750
 9757TIP3    H150762   0.643   3.510   4.246 -2.4718 -1.4170  0.9248
 9757TIP3    H250763   0.520   3.539   4.162 -2.3042 -3.0406  0.0878
 9758TIP3   OH250764   3.903   1.458   3.445  0.4799 -0.0100  0.6251
 9758TIP3    H150765   3.972   1.394   3.423 -1.7801 -1.0970 -4.9188
 9758TIP3    H250766   3.854   1.416   3.516  0.1578 -3.8655 -1.5769
 9759TIP3   OH250767   1.941   1.348  13.185  0.4459  0.2234 -0.2514
 9759TIP3    H150768   1.883   1.424  13.178  1.3619  1.0371  0.6270
 9759TIP3    H250769   1.995   1.367  13.261  0.1317 -1.7188  0.5116
 9760TIP3   OH250770   5.456   5.324  17.508 -0.1697  0.1120 -0.1140
 9760TIP3    H150771   5.404   5.249  17.538 -1.0272  0.0597 -1.6481
 9760TIP3    H250772   5.393   5.382  17.466  0.3430  2.0888  1.6446
 9761TIP3   OH250773   1.364   0.077   6.339 -0.5025 -0.2254  0.0511
 9761TIP3    H150774   1.366   0.169   6.365  0.4554  0.2410 -1.5207
 9761TIP3    H250775   1.417   0.073   6.259 -1.6253 -1.9150 -0.6726
 9762TIP3   OH250776   0.198   0.920  16.054  0.1328 -0.4555  0.5780
 9762TIP3    H150777   0.163   0.836  16.086 -0.1325 -0.3827  0.4832
 9762TIP3    H250778   0.263   0.895  15.988 -0.9553 -0.5745 -0.4828
 9763TIP3   OH250779   0.196   4.170  15.962 -0.5590  0.1730 -0.4588
 9763TIP3    H150780   0.139   4.204  16.030 -1.5147 -1.2995 -0.4839
 9763TIP3    H250781   0.248   4.245  15.934 -1.3040  1.1593  0.7416
 9764TIP3   OH250782   5.909   5.709   1.968 -0.5069 -0.0093 -0.6166
 9764TIP3    H150783   5.862   5.792   1.961 -1.6196 -0.5023  0.6250
 9764TIP3    H250784   5.893   5.666   1.884 -0.3760  0.7872 -1.0615
 9765TIP3   OH250785   3.406   2.319   0.871  0.5175 -0.6559 -0.2550
 9765TIP3    H150786   3.418   2.281   0.958 -2.6547 -0.9514  0.1548
 9765TIP3    H250787   3.314   2.345   0.868  1.0165  1.2227 -2.8317
 9766TIP3   OH250788   3.028   5.014   2.774  0.1068  0.0485  0.1840
 9766TIP3    H150789   2.951   4.957   2.774  0.8798 -1.0182 -0.0311
 9766TIP3    H250790   3.035   5.043   2.683 -0.8732  1.3472  0.4829
 9767TIP3   OH250791   3.663   2.636   2.261  0.8642 -0.5414  1.1337
 9767TIP3    H150792   3.756   2.640   2.280  0.4139 -0.1971  3.5274
 9767TIP3    H250793   3.636   2.727   2.253  0.8025 -0.6452 -0.2645
 9768TIP3   OH250794   2.586   0.737   1.373 -0.4477 -0.2442 -0.0914
 9768TIP3    H150795   2.643   0.763   1.300  0.5261 -0.0910  0.7115
 9768TIP3    H250796   2.537   0.816   1.395  1.9532  0.8359  1.8436
 9769TIP3   OH250797   5.557   6.677  16.951 -0.9577  0.0712 -0.7591
 9769TIP3    H150798   5.550   6.587  16.920 -0.0019  0.0322 -0.8907
 9769TIP3    H250799   5.499   6.680  17.027 -1.0259 -0.6458 -0.7697
 9770TIP3   OH250800   3.487   5.144   3.258 -0.3253  0.4254 -0.2472
 9770TIP3    H150801   3.575   5.175   3.279 -0.0552  0.0788 -0.8302
 9770TIP3    H250802   3.448   5.215   3.207 -0.1700  0.3491 -0.4777
 9771TIP3   OH250803   2.189   0.984  17.028 -0.1943  0.0854 -0.1973
 9771TIP3    H150804   2.187   0.982  16.933 -0.6689 -0.9582 -0.1866
 9771TIP3    H250805   2.266   0.931  17.051 -1.0027 -1.0417 -0.0000
 9772TIP3   OH250806   1.071   5.163   6.354 -0.1317 -0.2387  0.1098
 9772TIP3    H150807   1.060   5.220   6.430  1.7815 -0.6366  0.7425
 9772TIP3    H250808   1.084   5.222   6.280 -1.1782  0.1387  0.2141
 9773TIP3   OH250809   1.251   1.257  15.482  0.2331  0.2385 -0.0597
 9773TIP3    H150810   1.249   1.204  15.403 -0.1728  0.6206 -0.3100
 9773TIP3    H250811   1.279   1.197  15.551  2.4404  0.3217 -0.8085
 9774TIP3   OH250812   3.590   1.515   6.079  0.2283  0.7122  0.3490
 9774TIP3    H150813   3.516   1.524   6.140  1.1593 -1.8272  2.0679
 9774TIP3    H250814   3.668   1.529   6.134  1.0765  0.4232 -0.7456
 9775TIP3   OH250815   1.574   3.982  11.784 -0.2305 -0.1317 -0.0557
 9775TIP3    H150816   1.645   3.951  11.840  1.3313  1.8314 -0.8258
 9775TIP3    H250817   1.600   3.954  11.696 -1.7258 -1.5747 -0.0760
 9776TIP3   OH250818   1.834   3.631  14.965 -0.3197  0.5419  0.1720
 9776TIP3    H150819   1.774   3.663  15.032 -0.2843  0.4921  0.2276
 9776TIP3    H250820   1.893   3.571  15.011 -0.7845 -0.1028 -0.0588
 9777TIP3   OH250821   1.732   2.229  11.045  0.3988  0.1047 -0.0960
 9777TIP3    H150822   1.775   2.299  11.094  1.1238  1.3184 -2.3227
 9777TIP3    H250823   1.796   2.203  10.979 -1.7425  1.1737 -2.7850
 9778TIP3   OH250824   3.974   1.225  14.494 -0.0229 -0.7715 -0.3473
 9778TIP3    H150825   3.942   1.167  14.426  1.1153 -1.2810 -0.4573
 9778TIP3    H250826   4.058   1.188  14.521  0.6192  0.6829 -0.2606
 9779TIP3   OH250827   1.042   5.260   5.929  0.0251  0.1785  0.4599
 9779TIP3    H150828   1.014   5.349   5.910  2.4236  0.8100 -0.5011
 9779TIP3    H250829   0.999   5.238   6.011 -0.2091  2.4359  1.0140
 9780TIP3   OH250830   4.542   0.299   6.762 -0.4496  0.0655  0.0883
 9780TIP3    H150831   4.574   0.387   6.743  0.8081 -0.4293 -0.1560
 9780TIP3    H250832   4.487   0.277   6.686 -1.9576  1.1748  0.8181
 9781TIP3   OH250833   3.914   2.844   3.066  0.2614 -0.1579 -0.0846
 9781TIP3    H150834   3.923   2.765   3.119  0.4062  0.7892  1.3719
 9781TIP3    H250835   3.983   2.902   3.098  0.4153  0.4181 -1.3962
 9782TIP3   OH250836   2.050   3.052  15.185  0.3382  0.0483 -0.4035
 9782TIP3    H150837   2.070   3.105  15.262 -0.0935 -1.1375  0.5504
 9782TIP3    H250838   2.102   3.091  15.115 -0.3706  2.0630  0.1191
 9783TIP3   OH250839   5.434   2.189  17.675  0.1394  0.4210  0.3279
 9783TIP3    H150840   5.379   2.112  17.684 -0.7933  0.9455 -0.6013
 9783TIP3    H250841   5.380   2.262  17.704  0.7524  0.8142  0.5119
 9784TIP3   OH250842   4.395   2.573  13.718  0.2785  0.3494  0.7262
 9784TIP3    H150843   4.475   2.568  13.771  1.7857 -0.2681 -1.4394
 9784TIP3    H250844   4.350   2.651  13.750  2.8368  1.9694  0.6722
 9785TIP3   OH250845   0.864   0.200  15.605  0.5873 -0.0047  0.3755
 9785TIP3    H150846   0.840   0.159  15.688 -0.6105  1.9421  1.0637
 9785TIP3    H250847   0.786   0.189  15.550 -0.6209  2.9988  1.2888
 9786TIP3   OH250848   5.777   5.995   3.247  0.0389  0.1439 -0.2483
 9786TIP3    H150849   5.867   5.981   3.276 -0.3119 -1.5183  0.0909
 9786TIP3    H250850   5.776   6.087   3.220  1.1468  0.9705  2.2132
 9787TIP3   OH250851   2.879   0.005  13.751  0.2941 -0.1019 -0.2632
 9787TIP3    H150852   2.795  -0.038  13.768  0.8269 -1.1312 -0.1764
 9787TIP3    H250853   2.893   0.062  13.827 -0.2134 -0.1046 -0.1670
 9788TIP3   OH250854   0.724   6.081   0.790 -0.2444  0.2987  0.2841
 9788TIP3    H150855   0.703   6.126   0.872 -1.4165  0.4472 -0.0706
 9788TIP3    H250856   0.752   5.994   0.816 -0.0460  0.5388  0.8718
 9789TIP3   OH250857   2.858   2.603   0.578  0.3169 -0.1834  0.3106
 9789TIP3    H150858   2.793   2.535   0.590 -0.4839  0.6775  0.9714
 9789TIP3    H250859   2.868   2.610   0.483 -0.9521  0.0260  0.1725
 9790TIP3   OH250860   1.885   4.090  17.659 -0.3296  0.4650 -0.3496
 9790TIP3    H150861   1.893   4.152  17.731 -0.8037 -0.4217  0.4858
 9790TIP3    H250862   1.945   4.020  17.680 -0.9623 -0.1239 -0.4682
 9791TIP3   OH250863   5.438   6.467   0.382 -1.1062  0.5264 -0.2728
 9791TIP3    H150864   5.428   6.491   0.474 -0.9410  0.3077 -0.1967
 9791TIP3    H250865   5.373   6.520   0.336 -1.8721 -0.0943  0.0852
 9792TIP3   OH250866   4.653   2.399   1.325  0.2807 -0.1845 -0.2476
 9792TIP3    H150867   4.743   2.377   1.349  0.6036  0.5218 -0.7793
 9792TIP3    H250868   4.643   2.491   1.348 -0.6980 -0.5581  0.8996
 9793TIP3   OH250869   0.005   4.020  15.849  0.5748  0.5753 -0.1334
 9793TIP3    H150870   0.031   4.026  15.757  0.6580 -0.2816 -0.1777
 9793TIP3    H250871   0.075   4.065  15.897  1.0941  0.0716 -0.4065
 9794TIP3   OH250872   6.444   4.403  16.742  0.0415  0.4553  0.5063
 9794TIP3    H150873   6.362   4.377  16.783  1.3441 -1.0137  2.3727
 9794TIP3    H250874   6.455   4.495  16.765  0.6314 -0.2698  3.4846
 9795TIP3   OH250875   3.373   1.828   2.309 -0.4067 -0.3740 -0.0319
 9795TIP3    H150876   3.281   1.810   2.329 -0.1502 -0.4151  1.1437
 9795TIP3    H250877   3.409   1.861   2.391  0.6713 -0.4885 -0.4551
 9796TIP3   OH250878   2.801   5.039  14.614 -0.3633 -0.0499 -0.3303
 9796TIP3    H150879   2.765   4.991  14.689 -0.2130  1.8726  1.0536
 9796TIP3    H250880   2.894   5.016  14.613 -0.9630 -2.9742 -2.3079
 9797TIP3   OH250881   5.305   0.609  13.243  0.0531 -0.4563 -0.0792
 9797TIP3    H150882   5.308   0.700  13.215 -3.1718 -0.8246 -2.0812
 9797TIP3    H250883   5.397   0.581  13.243  0.9568  2.1679 -1.4925
 9798TIP3   OH250884   5.886   3.330  15.704  0.2566  0.4241  0.2140
 9798TIP3    H150885   5.811   3.297  15.654  0.1609 -2.0953  1.8487
 9798TIP3    H250886   5.961   3.311  15.648 -0.1035  0.8202 -0.4275
 9799TIP3   OH250887   1.320   1.184  12.896  0.3618 -0.0424  0.4742
 9799TIP3    H150888   1.379   1.146  12.961 -0.3400  0.0280  1.1610
 9799TIP3    H250889   1.302   1.112  12.835 -0.0650 -0.5114  1.1366
 9800TIP3   OH250890   1.424   3.475   1.447  0.0945 -0.1002 -0.1608
 9800TIP3    H150891   1.366   3.548   1.428 -0.3958 -0.0299  1.4902
 9800TIP3    H250892   1.512   3.513   1.447  0.0918 -0.0279 -1.7508
 9801TIP3   OH250893   3.399   0.776  15.706  0.2079  0.1795 -0.3605
 9801TIP3    H150894   3.333   0.748  15.769  0.4834  0.9019  0.2663
 9801TIP3    H250895   3.440   0.695  15.676 -1.8068 -0.3942 -1.7482
 9802TIP3   OH250896   0.664   4.911  13.514  0.2246  0.2322 -0.1221
 9802TIP3    H150897   0.725   4.884  13.446  0.0680  1.8064 -0.9335
 9802TIP3    H250898   0.584   4.862  13.495  0.1906  0.6483 -1.0640
 9803TIP3   OH250899   1.209   1.586  11.566  0.5647 -0.0035 -0.0640
 9803TIP3    H150900   1.181   1.636  11.489  0.6598  0.4273  0.1739
 9803TIP3    H250901   1.300   1.561  11.546 -0.1109 -1.8652 -1.0671
 9804TIP3   OH250902   4.663   5.059   0.366  0.4460  0.3353  0.3203
 9804TIP3    H150903   4.623   4.976   0.339  0.7236 -0.1026  1.1956
 9804TIP3    H250904   4.706   5.038   0.449  0.6423  1.3296  0.4769
 9805TIP3   OH250905   1.534   6.546   0.576  0.3918 -0.1015 -0.1132
 9805TIP3    H150906   1.566   6.621   0.527 -1.0832  0.3966 -0.3594
 9805TIP3    H250907   1.598   6.535   0.647  3.3490 -1.6952 -2.7964
 9806TIP3   OH250908   5.434   2.636   5.448 -0.1286  0.2163  0.0992
 9806TIP3    H150909   5.354   2.642   5.501 -0.9760  2.1318 -1.2784
 9806TIP3    H250910   5.423   2.554   5.398 -0.9133  0.1087  0.4303
 9807TIP3   OH250911   1.851   4.062  11.628 -0.1743  0.1637 -0.0605
 9807TIP3    H150912   1.772   4.071  11.576 -1.0986  1.1153  1.4287
 9807TIP3    H250913   1.891   3.981  11.598 -0.7607  0.5668 -2.0663
 9808TIP3   OH250914   1.159   2.700   0.396  0.1934  0.1780 -0.1948
 9808TIP3    H150915   1.077   2.745   0.376 -0.3523 -0.0700  1.2948
 9808TIP3    H250916   1.136   2.607   0.396  0.6281  0.0665 -0.4078
 9809TIP3   OH250917   2.797   1.950   0.003  0.2231 -0.5104  0.7680
 9809TIP3    H150918   2.846   2.017  -0.045 -0.8131 -1.5895 -2.0465
 9809TIP3    H250919   2.862   1.887   0.031  1.1545  1.3103  3.0272
 9810TIP3   OH250920   0.921   6.069  13.465 -0.1818  0.4882 -0.6963
 9810TIP3    H150921   0.971   6.012  13.406 -0.3812  0.0336 -0.4258
 9810TIP3    H250922   0.957   6.157  13.449  0.6152  0.1866 -0.5958
 9811TIP3   OH250923   4.892   3.721   1.726 -0.6718 -0.4356  0.0658
 9811TIP3    H150924   4.890   3.743   1.632 -2.9422 -0.4881  0.0517
 9811TIP3    H250925   4.805   3.684   1.744 -0.2858 -0.4206  2.2100
 9812TIP3   OH250926   6.491   4.284   0.689  0.4450 -0.3256  0.3352
 9812TIP3    H150927   6.478   4.315   0.779 -0.3692  0.5243 -0.0632
 9812TIP3    H250928   6.509   4.190   0.699 -0.4380 -0.4111  1.3334
 9813TIP3   OH250929   1.309   4.636   1.802 -0.0162 -0.0701 -0.4826
 9813TIP3    H150930   1.215   4.641   1.816 -0.1238 -2.1589 -0.0823
 9813TIP3    H250931   1.321   4.560   1.745  1.5404 -1.5735  1.6520
 9814TIP3   OH250932   2.715   4.056   4.064 -0.1994  0.6961  0.3488
 9814TIP3    H150933   2.664   3.990   4.111 -1.0130  1.4429  0.5299
 9814TIP3    H250934   2.730   4.018   3.978  0.3320 -0.2027  0.8227
 9815TIP3   OH250935   6.140   5.543   1.739 -0.1728 -0.0529 -0.3984
 9815TIP3    H150936   6.048   5.520   1.724  0.3641 -1.0476 -2.4902
 9815TIP3    H250937   6.153   5.623   1.688  0.6126 -1.0908 -1.9052
 9816TIP3   OH250938   3.694   2.275   5.506  0.4545  0.6730 -0.6265
 9816TIP3    H150939   3.782   2.262   5.470  0.5551 -0.1097 -0.1323
 9816TIP3    H250940   3.636   2.263   5.432  0.5595 -2.4893 -0.3443
 9817TIP3   OH250941   1.540   3.922   1.790 -0.4497  0.4344  0.2748
 9817TIP3    H150942   1.517   3.993   1.731  1.5103  0.1158 -0.9779
 9817TIP3    H250943   1.540   3.844   1.734  0.4450 -0.0455  0.9173
 9818TIP3   OH250944   6.411   0.597  11.784  0.3752  0.3194  0.6796
 9818TIP3    H150945   6.359   0.527  11.822  0.9676 -0.5239 -0.0379
 9818TIP3    H250946   6.347   0.662  11.755 -0.4940 -1.5017 -1.8833
 9819TIP3   OH250947   5.197   6.216  16.228  0.7030  0.0349  0.1897
 9819TIP3    H150948   5.181   6.154  16.299 -0.8136 -0.3112 -0.4008
 9819TIP3    H250949   5.145   6.293  16.251 -1.1256 -0.6752 -1.2395
 9820TIP3   OH250950   3.564   4.554   3.592  0.3211  0.3262 -0.3613
 9820TIP3    H150951   3.480   4.508   3.600  0.0371  0.8115 -0.4987
 9820TIP3    H250952   3.555   4.629   3.652  0.9614 -0.0596  0.2336
 9821TIP3   OH250953   2.242   1.407   4.601 -0.2547  0.1422  0.0096
 9821TIP3    H150954   2.190   1.331   4.576  3.4089 -2.3481 -0.8278
 9821TIP3    H250955   2.230   1.416   4.695 -0.4795 -1.7860  0.1874
 9822TIP3   OH250956   5.906   2.976   4.825  0.1008  0.5888  0.2548
 9822TIP3    H150957   5.955   2.991   4.906  2.3168 -1.2800 -0.6376
 9822TIP3    H250958   5.969   2.994   4.755 -1.2619  0.5088 -1.0427
 9823TIP3   OH250959   3.323   2.553  14.839 -0.3922 -0.2107 -0.4601
 9823TIP3    H150960   3.390   2.554  14.908 -1.0353 -0.7731  0.1986
 9823TIP3    H250961   3.241   2.560  14.887 -0.8707 -0.9611 -1.1488
 9824TIP3   OH250962   0.862   0.484   3.337  0.2389  0.0110  0.4466
 9824TIP3    H150963   0.775   0.454   3.310  0.9733 -0.3481 -1.7511
 9824TIP3    H250964   0.852   0.505   3.430 -2.4415  0.9296  0.0518
 9825TIP3   OH250965   1.415   4.836  12.485 -0.2441  0.1455  0.0143
 9825TIP3    H150966   1.410   4.744  12.509 -0.9668 -0.0452 -0.8248
 9825TIP3    H250967   1.471   4.837  12.408  0.6257  0.5432  0.6384
 9826TIP3   OH250968   6.508   4.227   5.460  0.0517  0.1917  1.2487
 9826TIP3    H150969   6.439   4.287   5.432 -0.2111 -0.3775  0.6474
 9826TIP3    H250970   6.472   4.185   5.539 -0.7470 -0.8646  0.3559
 9827TIP3   OH250971   5.902   1.549   4.606  0.3971 -0.1435 -0.1417
 9827TIP3    H150972   5.810   1.523   4.612  0.4394 -0.4314 -0.7621
 9827TIP3    H250973   5.899   1.644   4.599  0.0898 -0.2183 -1.2148
 9828TIP3   OH250974   1.038   1.857   1.873 -0.4870  0.5419 -0.0998
 9828TIP3    H150975   1.082   1.853   1.788 -3.0201 -0.3666 -1.4703
 9828TIP3    H250976   0.974   1.786   1.870 -0.2581  0.0736  2.8645
 9829TIP3   OH250977   4.493   0.766   5.892  0.9206 -0.5840  0.3840
 9829TIP3    H150978   4.564   0.819   5.857 -1.7606  2.0452 -1.6151
 9829TIP3    H250979   4.463   0.713   5.818 -0.7503  0.2587  0.4047
 9830TIP3   OH250980   2.469   0.260   1.774 -0.9754  0.0030  0.2215
 9830TIP3    H150981   2.511   0.227   1.695  0.4955  0.0494  0.9299
 9830TIP3    H250982   2.442   0.349   1.752 -1.6286 -0.3835 -0.5732
 9831TIP3   OH250983   1.398   6.673  10.804  0.2227  0.3320  0.0548
 9831TIP3    H150984   1.420   6.579  10.806 -1.2951 -0.1362 -2.0061
 9831TIP3    H250985   1.351   6.688  10.886 -0.9680 -1.1274 -0.3164
 9832TIP3   OH250986   1.725   4.498  15.943 -0.3764 -0.0878  0.1792
 9832TIP3    H150987   1.751   4.419  15.896  0.3634 -0.4863  1.2067
 9832TIP3    H250988   1.637   4.518  15.911  0.0465 -0.4121 -1.2410
 9833TIP3   OH250989   6.162   4.586  11.144 -0.3540 -0.1372  0.1972
 9833TIP3    H150990   6.138   4.505  11.099 -0.3865 -0.5282  0.9126
 9833TIP3    H250991   6.250   4.569  11.179 -0.0021  0.4445 -0.3801
 9834TIP3   OH250992   3.145   3.659   5.425  0.1156 -0.5956 -0.6396
 9834TIP3    H150993   3.091   3.675   5.347 -0.5255 -1.1205 -0.3127
 9834TIP3    H250994   3.224   3.617   5.391 -0.4474 -1.4241 -0.9477
 9835TIP3   OH250995   4.392   2.934  17.083 -0.5368  0.5043 -0.0625
 9835TIP3    H150996   4.371   2.955  17.174  1.6178  1.1625  0.3446
 9835TIP3    H250997   4.428   2.845  17.086  0.6425  0.9659 -0.0580
 9836TIP3   OH250998   0.392   1.428  15.530 -0.7903 -0.1217 -0.2616
 9836TIP3    H150999   0.343   1.444  15.450  1.4043  0.3588 -1.5975
 9836TIP3    H251000   0.349   1.481  15.596 -2.6326 -0.5111 -1.0976
 9837TIP3   OH251001   2.885   6.043   4.049 -0.1976  0.0912 -0.4943
 9837TIP3    H151002   2.893   6.092   3.967  0.1316  1.1576  0.1543
 9837TIP3    H251003   2.814   6.086   4.097 -2.3469 -2.2634 -1.3609
 9838TIP3   OH251004   5.172   1.489  13.683  0.1122 -0.5858 -0.1356
 9838TIP3    H151005   5.160   1.571  13.634  1.6630 -1.4663 -2.1677
 9838TIP3    H251006   5.256   1.501  13.729 -0.9526 -0.0724  1.7769
 9839TIP3   OH251007   2.747   2.766   4.903 -0.0979 -1.0706 -0.5424
 9839TIP3    H151008   2.786   2.723   4.826 -0.5444 -1.5501 -0.5040
 9839TIP3    H251009   2.742   2.858   4.879 -1.5019 -1.3944 -1.6404
 9840TIP3   OH251010   3.718   4.045  11.513  0.1129 -0.1265 -0.5171
 9840TIP3    H151011   3.734   4.139  11.501  1.1035 -0.1884  0.1001
 9840TIP3    H251012   3.637   4.027  11.465 -0.6790  1.2546  0.2430
 9841TIP3   OH251013   0.923   1.952   5.339 -0.1119 -0.4712  0.5690
 9841TIP3    H151014   0.882   1.887   5.396  0.9691 -0.4170  1.4252
 9841TIP3    H251015   0.961   2.016   5.399 -0.5636  0.5988 -0.2499
 9842TIP3   OH251016   5.966   0.679   6.647 -0.3324 -0.6151 -0.1981
 9842TIP3    H151017   6.013   0.691   6.729  0.6707  0.3744 -0.8936
 9842TIP3    H251018   6.032   0.646   6.586 -0.6029  0.4443 -1.0964
 9843TIP3   OH251019   5.870   0.163  16.691  0.1508  0.0796 -0.1073
 9843TIP3    H151020   5.870   0.082  16.741  1.8795  0.4475  0.5291
 9843TIP3    H251021   5.951   0.161  16.640  0.2154  1.3886 -0.1007
 9844TIP3   OH251022   6.199   1.688  16.267 -0.6497  0.1317  0.4968
 9844TIP3    H151023   6.162   1.727  16.346  0.5453 -1.3674  1.8571
 9844TIP3    H251024   6.229   1.602  16.295 -0.7133 -0.6697 -1.7481
 9845TIP3   OH251025   2.295   3.847  17.362 -0.0887  0.2089  0.3891
 9845TIP3    H151026   2.356   3.907  17.320  0.3295 -1.1550 -1.0124
 9845TIP3    H251027   2.309   3.861  17.456 -0.2767  2.5405  0.1442
 9846TIP3   OH251028   0.981   6.522   4.453 -0.1075  0.0131  0.2647
 9846TIP3    H151029   0.956   6.555   4.367 -0.0165  0.9906  0.6110
 9846TIP3    H251030   0.899   6.500   4.496 -0.1038 -2.4497 -0.8076
 9847TIP3   OH251031   4.686   5.213  12.051 -0.1144  0.5258  0.3472
 9847TIP3    H151032   4.710   5.271  12.123  0.8003 -0.2286  0.6738
 9847TIP3    H251033   4.643   5.139  12.094  1.4842 -0.4936  0.2787
 9848TIP3   OH251034   4.790   2.017   1.312  0.0530  0.1523 -0.0176
 9848TIP3    H151035   4.830   2.103   1.306 -0.9073  0.6000 -0.0885
 9848TIP3    H251036   4.806   1.978   1.225 -0.3862  0.6545 -0.3309
 9849TIP3   OH251037   1.359   0.131  12.832 -0.1358  0.0410  0.2356
 9849TIP3    H151038   1.405   0.060  12.788  0.0562  0.5528 -0.3974
 9849TIP3    H251039   1.427   0.180  12.878 -0.1658  0.2943  0.0078
 9850TIP3   OH251040   1.709   0.408   5.722  0.1863  0.2224  0.4525
 9850TIP3    H151041   1.693   0.321   5.757 -0.8308  1.0258  2.0722
 9850TIP3    H251042   1.805   0.414   5.714  0.2168 -1.7303 -1.6618
 9851TIP3   OH251043   0.853   2.258   2.681 -0.0645 -0.1026  0.5529
 9851TIP3    H151044   0.923   2.220   2.734  0.4796 -0.5184 -0.4273
 9851TIP3    H251045   0.897   2.322   2.625 -0.5771  0.1292  0.4073
 9852TIP3   OH251046   6.607   1.209   0.316 -0.3620 -0.1674  0.1446
 9852TIP3    H151047   6.529   1.155   0.306  0.3702 -1.5371  1.4876
 9852TIP3    H251048   6.581   1.276   0.380 -0.9679  0.5355 -0.7992
 9853TIP3   OH251049   3.009   0.652   0.409  0.3828  0.8681  0.4302
 9853TIP3    H151050   3.026   0.634   0.501 -0.1188  0.3501  0.4284
 9853TIP3    H251051   2.917   0.628   0.396  0.3638  1.2162 -0.1359
 9854TIP3   OH251052   5.946   2.280  11.219  0.0186 -0.2027 -0.5854
 9854TIP3    H151053   5.944   2.186  11.235 -1.0038  0.0125  0.7233
 9854TIP3    H251054   5.897   2.292  11.138  1.1643 -0.8880 -1.4088
 9855TIP3   OH251055   3.626   0.829   3.623  0.5998 -0.4227 -0.4545
 9855TIP3    H151056   3.614   0.752   3.568  0.2840  0.4020 -1.5992
 9855TIP3    H251057   3.596   0.802   3.710 -3.0233 -0.6090 -1.5708
 9856TIP3   OH251058   1.366   1.566  13.846 -0.0799 -0.0554 -0.3231
 9856TIP3    H151059   1.279   1.605  13.848 -0.3214 -0.5784 -0.4798
 9856TIP3    H251060   1.424   1.635  13.880 -0.2192  1.1473 -2.3274
 9857TIP3   OH251061   2.324   4.144  17.498 -0.1246  0.1021 -0.1879
 9857TIP3    H151062   2.289   4.232  17.483  2.7795  1.5809  0.8145
 9857TIP3    H251063   2.355   4.116  17.412 -1.7239 -0.3203 -0.6589
 9858TIP3   OH251064   1.270   0.675  13.099 -0.2016 -0.3975 -0.3021
 9858TIP3    H151065   1.295   0.765  13.075  0.1453 -0.7047 -1.1479
 9858TIP3    H251066   1.338   0.620  13.058 -0.4814 -1.0492  0.1050
 9859TIP3   OH251067   4.330   2.431   4.118  0.1037 -0.1280 -0.3183
 9859TIP3    H151068   4.353   2.524   4.120 -2.5672  0.5936  0.8079
 9859TIP3    H251069   4.309   2.413   4.026 -3.3675  1.5978 -0.0302
 9860TIP3   OH251070   2.066   1.154   2.796  0.3029 -0.2768  0.1681
 9860TIP3    H151071   2.034   1.243   2.779  0.4323  0.1258  1.7922
 9860TIP3    H251072   1.987   1.100   2.799  0.1865 -0.1414 -0.4231
 9861TIP3   OH251073   5.008   0.139   6.250  0.2585 -0.0150 -0.0544
 9861TIP3    H151074   4.983   0.175   6.166 -0.0243  0.2458  0.1394
 9861TIP3    H251075   5.080   0.194   6.280  0.7512 -0.4689 -0.3916
 9862TIP3   OH251076   6.555   5.375   3.984  0.3518  0.0363 -0.3722
 9862TIP3    H151077   6.470   5.360   3.943  0.7061 -0.0425 -1.0873
 9862TIP3    H251078   6.616   5.382   3.911  0.7704  1.3948  0.0838
 9863TIP3   OH251079   2.312   3.107  16.429 -0.2293  0.0503 -0.1978
 9863TIP3    H151080   2.311   3.146  16.517  1.4284 -0.5250  0.1103
 9863TIP3    H251081   2.280   3.018  16.441  2.1083 -0.8172  0.3084
 9864TIP3   OH251082   5.440   1.596  17.177 -0.0685 -0.1351 -0.0942
 9864TIP3    H151083   5.423   1.563  17.265  0.3721  1.0650  0.4647
 9864TIP3    H251084   5.361   1.575  17.128  0.4372 -2.5731  0.0144
 9865TIP3   OH251085   4.646   6.279  14.623 -0.1748 -0.2610 -1.3259
 9865TIP3    H151086   4.700   6.223  14.568  1.5465  0.6872 -0.6747
 9865TIP3    H251087   4.558   6.241  14.617  0.4793 -1.6690 -2.6656
 9866TIP3   OH251088   3.819   3.119  12.237  0.4479  0.3179  0.1343
 9866TIP3    H151089   3.829   3.033  12.196  1.1579  0.7390 -0.5901
 9866TIP3    H251090   3.868   3.178  12.181 -0.0396  1.2048  0.6324
 9867TIP3   OH251091   0.019   4.668   5.110  0.0294 -0.1122  0.2833
 9867TIP3    H151092   0.058   4.722   5.041  0.9927 -0.7385  0.3238
 9867TIP3    H251093  -0.068   4.705   5.122 -0.0892  0.1362 -1.1332
 9868TIP3   OH251094   1.987   6.261   0.209 -0.4986 -0.3847 -0.5238
 9868TIP3    H151095   2.003   6.203   0.284  0.0120 -1.0864 -1.1654
 9868TIP3    H251096   1.946   6.204   0.143 -1.9232  0.4639 -0.4046
 9869TIP3   OH251097   5.503   4.735  15.212  0.0036  0.3472  0.6291
 9869TIP3    H151098   5.579   4.733  15.153  0.5443  0.5339  1.3026
 9869TIP3    H251099   5.511   4.656  15.265 -2.5792 -1.9623 -2.0338
 9870TIP3   OH251100   1.367   6.356  14.286  0.1175  0.1319 -0.1521
 9870TIP3    H151101   1.363   6.349  14.190  1.0193  0.4631 -0.2165
 9870TIP3    H251102   1.291   6.410  14.309 -0.2980 -0.2305 -0.6446
 9871TIP3   OH251103   0.436   4.389  14.481  0.3258 -0.0169 -0.1546
 9871TIP3    H151104   0.413   4.307  14.438  1.5479 -0.4010 -0.1334
 9871TIP3    H251105   0.486   4.437  14.415  1.9942 -0.5015  0.6998
 9872TIP3   OH251106   4.632   1.162  12.194  0.8531  0.4848  0.2348
 9872TIP3    H151107   4.620   1.067  12.207  1.4802 -0.1051 -2.6702
 9872TIP3    H251108   4.547   1.200  12.215 -0.2042 -1.0877 -0.9985
 9873TIP3   OH251109   5.583   5.490  14.074  0.1892 -0.5697 -0.2973
 9873TIP3    H151110   5.574   5.550  14.149  0.2118 -1.5440  0.5036
 9873TIP3    H251111   5.627   5.542  14.007  0.3533  0.2622  0.4341
 9874TIP3   OH251112   5.973   0.325  14.155 -0.2939 -0.2706  0.3372
 9874TIP3    H151113   6.019   0.403  14.186  0.2999 -0.5720  0.2402
 9874TIP3    H251114   6.011   0.309  14.068  0.0463 -1.0271  0.6184
 9875TIP3   OH251115   3.999   5.284   3.846 -0.5316 -0.1162  0.9928
 9875TIP3    H151116   3.956   5.365   3.874  1.2695  0.9184  0.9042
 9875TIP3    H251117   4.075   5.277   3.904  1.3161  0.1851 -1.2923
 9876TIP3   OH251118   5.882   1.294   0.513 -0.5875  0.3369 -0.3394
 9876TIP3    H151119   5.794   1.310   0.547 -0.6389 -1.1114  0.3082
 9876TIP3    H251120   5.897   1.200   0.530  1.3227  0.6899  0.1626
 9877TIP3   OH251121   1.017   1.861   3.526  0.6100 -0.5347 -0.1262
 9877TIP3    H151122   1.032   1.879   3.433 -0.5088 -1.3091 -0.4811
 9877TIP3    H251123   1.028   1.946   3.569  0.5551 -0.0432 -1.0568
 9878TIP3   OH251124   3.787   4.024  14.922 -0.6997 -0.9049 -0.6251
 9878TIP3    H151125   3.870   4.071  14.932 -1.1006 -0.4895  1.1854
 9878TIP3    H251126   3.776   3.978  15.005 -2.6435 -0.3341 -0.5174
 9879TIP3   OH251127   3.496   6.335   6.007  0.1378 -0.6264 -0.1305
 9879TIP3    H151128   3.544   6.313   6.086  0.0625 -0.4687 -0.0398
 9879TIP3    H251129   3.423   6.273   6.004 -0.3132 -0.1206  0.3451
 9880TIP3   OH251130   5.244   5.150  15.769  0.8303  0.7779  0.1393
 9880TIP3    H151131   5.156   5.116  15.753  1.5113 -1.3828  0.6022
 9880TIP3    H251132   5.230   5.224  15.828 -0.7543  1.2929 -0.8255
 9881TIP3   OH251133   6.671   0.999  16.205 -0.2826 -0.2356 -0.3626
 9881TIP3    H151134   6.759   1.004  16.242 -0.4865  0.1871  0.0873
 9881TIP3    H251135   6.641   1.090  16.204  0.0814 -0.0945 -2.4966
 9882TIP3   OH251136   0.571   2.682  15.032  0.7335  0.0859 -0.1300
 9882TIP3    H151137   0.555   2.594  14.997  1.6767 -0.2531  0.2599
 9882TIP3    H251138   0.557   2.673  15.126  3.3802 -0.3248  0.2937
 9883TIP3   OH251139   3.425   0.066   5.642 -0.0694 -0.3357 -0.0434
 9883TIP3    H151140   3.499   0.028   5.690 -0.5776  0.2268  1.2392
 9883TIP3    H251141   3.378  -0.009   5.608  0.5658 -0.7385 -0.0537
 9884TIP3   OH251142   3.833   1.462  15.242  0.4564 -0.2432  0.2468
 9884TIP3    H151143   3.755   1.442  15.190  0.9261 -0.4487 -0.3924
 9884TIP3    H251144   3.801   1.468  15.332 -0.1019 -1.5323  0.1543
 9885TIP3   OH251145   6.134   6.549  17.412  0.7728 -0.9469  0.1543
 9885TIP3    H151146   6.110   6.457  17.417 -2.4337 -0.5114 -2.7713
 9885TIP3    H251147   6.059   6.595  17.451  1.3346  0.4276 -0.3370
 9886TIP3   OH251148   3.483   4.291   6.016  0.2785  0.1402  0.3161
 9886TIP3    H151149   3.487   4.310   5.923 -1.0177  0.0785  0.2362
 9886TIP3    H251150   3.486   4.196   6.022 -0.5474  0.1027  0.2678
 9887TIP3   OH251151   2.634   3.508   6.066  0.1118 -0.0208 -0.0374
 9887TIP3    H151152   2.644   3.421   6.106  1.1334 -0.2561 -0.7588
 9887TIP3    H251153   2.677   3.500   5.981 -0.9449  0.8213 -0.6744
 9888TIP3   OH251154   5.854   1.662   0.446  0.6163 -0.0601 -0.0202
 9888TIP3    H151155   5.857   1.567   0.436 -2.6380 -0.4559  1.5762
 9888TIP3    H251156   5.911   1.681   0.520  1.4117 -0.7116 -0.4498
 9889TIP3   OH251157   0.419   2.472   1.264 -0.1875  0.0016 -0.6651
 9889TIP3    H151158   0.379   2.551   1.228  0.4724  1.0736  0.8874
 9889TIP3    H251159   0.345   2.417   1.289 -0.6708  0.7405 -0.4511
 9890TIP3   OH251160   4.160   3.351  13.804  0.2370 -0.5045 -0.3727
 9890TIP3    H151161   4.070   3.367  13.831 -0.6070  0.4034 -3.3133
 9890TIP3    H251162   4.182   3.267  13.842 -1.0221  0.2287  2.2191
 9891TIP3   OH251163   2.301   5.558   5.087  0.7771  0.1860  0.2716
 9891TIP3    H151164   2.239   5.537   5.157 -1.6360 -0.4470 -1.9137
 9891TIP3    H251165   2.353   5.479   5.076 -0.1578 -0.4116  0.0710
 9892TIP3   OH251166   6.423   1.029   2.263 -0.3717 -0.4905 -0.4814
 9892TIP3    H151167   6.351   1.090   2.279  1.1396  0.9052  1.5364
 9892TIP3    H251168   6.497   1.067   2.311  1.6526 -1.9807 -2.2711
 9893TIP3   OH251169   5.699   2.387  12.976 -0.4767  0.5363  0.3389
 9893TIP3    H151170   5.754   2.351  12.907 -0.2571 -0.3966  0.9884
 9893TIP3    H251171   5.620   2.334  12.974 -0.4613  0.4893  0.8140
 9894TIP3   OH251172   6.610   5.114   1.832  0.5538  0.0141  0.4438
 9894TIP3    H151173   6.642   5.084   1.748  0.1253 -1.3348  0.7380
 9894TIP3    H251174   6.591   5.207   1.819  0.7162 -0.1209 -0.8656
 9895TIP3   OH251175   6.381   4.418   4.264  1.0372  0.4057 -0.1445
 9895TIP3    H151176   6.415   4.479   4.329  1.3784 -0.5717  0.6142
 9895TIP3    H251177   6.444   4.346   4.263  0.7883  0.1803 -1.2179
 9896TIP3   OH251178   1.911   5.598   1.870  0.7813 -0.4017 -0.9709
 9896TIP3    H151179   1.825   5.610   1.831  0.6261 -0.7136 -0.7286
 9896TIP3    H251180   1.911   5.654   1.947  0.7050 -0.5851 -0.8360
 9897TIP3   OH251181   3.801   0.431  14.821  0.4927 -0.1823  0.3053
 9897TIP3    H151182   3.727   0.481  14.787  1.4773  1.1827  0.0614
 9897TIP3    H251183   3.762   0.370  14.883 -0.8748  0.2142 -0.1269
 9898TIP3   OH251184   4.846   6.280   3.538 -1.1139  0.0266 -0.1553
 9898TIP3    H151185   4.828   6.249   3.449 -1.9580 -0.5893  0.2102
 9898TIP3    H251186   4.803   6.216   3.595 -1.1299  0.7526  0.6781
 9899TIP3   OH251187   4.731   6.302   2.325 -0.6741  0.0807 -0.4075
 9899TIP3    H151188   4.680   6.353   2.262  0.0002  1.3188  0.0082
 9899TIP3    H251189   4.753   6.221   2.278 -0.5924  0.7700 -1.6007
 9900TIP3   OH251190   1.041   3.391   5.606  0.4715  0.4619  0.5160
 9900TIP3    H151191   0.982   3.385   5.681  0.4436 -0.5876  0.4147
 9900TIP3    H251192   1.011   3.469   5.559  0.7538  1.3928  1.7994
 9901TIP3   OH251193   3.303   5.038   2.738  0.0547 -0.4293 -0.0228
 9901TIP3    H151194   3.314   5.016   2.645 -0.7320  1.3287 -0.5743
 9901TIP3    H251195   3.209   5.048   2.750  0.2128  0.4036  0.6841
 9902TIP3   OH251196   6.192   4.027  11.338 -0.0989  0.4019 -0.1613
 9902TIP3    H151197   6.214   4.005  11.248  1.5767  0.8090  0.1172
 9902TIP3    H251198   6.229   4.115  11.351  1.2676 -0.3635  1.4253
 9903TIP3   OH251199   2.154   0.925   4.333 -0.2833 -0.0913 -0.3045
 9903TIP3    H151200   2.095   0.888   4.400 -0.9508 -0.0904 -0.8755
 9903TIP3    H251201   2.130   1.018   4.330  1.4527  0.4497  1.1933
 9904TIP3   OH251202   0.110   5.317  15.646 -0.2739  0.3437  0.0300
 9904TIP3    H151203   0.100   5.350  15.735 -0.8669 -0.3816  0.2427
 9904TIP3    H251204   0.097   5.394  15.590  0.6792  0.9215  0.5723
 9905TIP3   OH251205   5.511   2.015   4.531 -0.0926  0.0719  0.4233
 9905TIP3    H151206   5.446   2.068   4.485 -0.5878  0.6693  1.7420
 9905TIP3    H251207   5.459   1.961   4.591  0.4598 -1.3801 -0.3634
 9906TIP3   OH251208   1.468   2.168  14.456  0.2288 -0.1519 -0.0763
 9906TIP3    H151209   1.486   2.076  14.437 -0.5897 -0.7254  1.7235
 9906TIP3    H251210   1.374   2.171  14.473  0.2446  1.0252 -0.1189
 9907TIP3   OH251211   0.678   1.384   1.191 -0.2306  0.0396 -0.1708
 9907TIP3    H151212   0.699   1.411   1.102  0.1212 -0.1034 -0.1329
 9907TIP3    H251213   0.707   1.293   1.197  0.3376  0.2403  0.2769
 9908TIP3   OH251214   0.168   5.743   6.246 -0.1310 -0.4382 -0.0651
 9908TIP3    H151215   0.227   5.669   6.258  0.1580 -0.3700 -1.0188
 9908TIP3    H251216   0.218   5.819   6.277 -0.0742 -0.5097  0.0183
 9909TIP3   OH251217   4.567   2.134  11.868 -0.1692  0.4083 -0.2060
 9909TIP3    H151218   4.641   2.073  11.864 -0.9575 -0.5951  0.2157
 9909TIP3    H251219   4.577   2.179  11.952 -0.4132 -0.2163  0.1604
 9910TIP3   OH251220   2.630   3.366  15.783  0.3133 -0.3225  0.1805
 9910TIP3    H151221   2.561   3.410  15.832 -0.5492 -1.0397 -0.3532
 9910TIP3    H251222   2.658   3.430  15.717  0.1428 -0.0390  0.3869
 9911TIP3   OH251223   3.811   5.702   2.461  0.3065 -0.0934  0.0488
 9911TIP3    H151224   3.792   5.626   2.515  0.3105  0.4577  0.8394
 9911TIP3    H251225   3.737   5.761   2.474  0.6948  0.3931  0.0967
 9912TIP3   OH251226   6.150   1.019   6.220 -0.1836  0.1148 -0.4363
 9912TIP3    H151227   6.154   0.971   6.137  0.4136  0.1002 -0.4037
 9912TIP3    H251228   6.175   0.954   6.286 -0.0796  0.2815 -0.3102
 9913TIP3   OH251229   1.280   0.072  17.138 -0.0918 -0.3950  0.2092
 9913TIP3    H151230   1.337   0.093  17.212 -0.4262 -1.6900  0.8722
 9913TIP3    H251231   1.280   0.151  17.084 -1.8014  1.5165  2.7943
 9914TIP3   OH251232   6.709   2.648   0.158  0.1139 -0.6002  0.0924
 9914TIP3    H151233   6.636   2.622   0.214 -1.1246  0.4072 -0.9944
 9914TIP3    H251234   6.668   2.685   0.080  1.7033  2.1517  0.3972
 9915TIP3   OH251235   1.346   1.867  17.003  0.3958  0.0368  0.3167
 9915TIP3    H151236   1.419   1.807  16.989  1.5094  1.4888 -0.4384
 9915TIP3    H251237   1.331   1.908  16.918 -3.3230 -2.2780 -0.3590
 9916TIP3   OH251238   5.057   5.986   5.630  0.7396  0.1597 -0.5103
 9916TIP3    H151239   5.115   5.935   5.574  1.0456 -0.8942  0.7028
 9916TIP3    H251240   5.039   6.066   5.581  2.2711 -0.0145 -1.4019
 9917TIP3   OH251241   0.540   6.611  13.954 -0.1773  0.2215  0.3235
 9917TIP3    H151242   0.552   6.703  13.929  1.9164 -0.1202 -0.0659
 9917TIP3    H251243   0.618   6.567  13.921  0.4421 -1.1235  3.3236
 9918TIP3   OH251244   3.133   6.353   5.275  0.2864  0.1960 -0.0103
 9918TIP3    H151245   3.068   6.324   5.211  0.0548  2.1929 -0.7329
 9918TIP3    H251246   3.217   6.328   5.236  0.0635 -0.6091 -0.0028
 9919TIP3   OH251247   2.069   0.548  14.333 -0.5346  0.2455 -0.4478
 9919TIP3    H151248   2.146   0.605  14.341 -0.6119  0.1799  0.9655
 9919TIP3    H251249   2.098   0.464  14.370 -1.0338 -0.0358 -0.6876
 9920TIP3   OH251250   1.323   1.835   0.684  0.0762 -0.0900 -0.0433
 9920TIP3    H151251   1.403   1.800   0.723 -0.6891 -0.8278  0.9151
 9920TIP3    H251252   1.252   1.800   0.738 -1.0294 -0.8554 -1.8809
 9921TIP3   OH251253   3.025   0.539  16.225  0.2983 -0.3630  0.3444
 9921TIP3    H151254   3.044   0.523  16.317  0.3491 -0.7925  0.2654
 9921TIP3    H251255   2.980   0.460  16.196  2.0341 -1.1243 -0.4873
 9922TIP3   OH251256   6.393   5.031  16.243  0.5079 -0.6396  0.2531
 9922TIP3    H151257   6.469   5.017  16.300  3.0142  1.4276 -2.3090
 9922TIP3    H251258   6.348   5.106  16.281  1.1943 -0.3126  0.4332
 9923TIP3   OH251259   6.284   2.777   5.700  0.4634  0.4305 -0.2566
 9923TIP3    H151260   6.343   2.836   5.745 -0.8423  3.9456 -2.6447
 9923TIP3    H251261   6.218   2.753   5.765  0.8082  2.0528  0.7321
 9924TIP3   OH251262   5.480   4.224  11.069  0.3330  0.2637 -0.0814
 9924TIP3    H151263   5.447   4.217  10.979 -1.0844  1.5813  0.2887
 9924TIP3    H251264   5.489   4.318  11.084 -0.4351  0.1160  1.4854
 9925TIP3   OH251265   5.417   1.535  15.079 -0.2470 -0.3843  0.1994
 9925TIP3    H151266   5.450   1.617  15.113 -1.6253  0.0635  0.5299
 9925TIP3    H251267   5.385   1.556  14.991 -0.9898 -0.4454  0.4409
 9926TIP3   OH251268   4.733   6.041  13.792  0.2585 -0.3562  0.0365
 9926TIP3    H151269   4.713   6.026  13.884 -0.8652  0.5193 -0.0468
 9926TIP3    H251270   4.780   6.125  13.790 -0.8744  0.2892 -0.2962
 9927TIP3   OH251271   4.117   2.843  13.957 -0.4499  0.0509 -0.0558
 9927TIP3    H151272   4.114   2.864  14.050 -1.6516 -1.5860  0.3172
 9927TIP3    H251273   4.122   2.748  13.954 -2.8845 -0.1184 -1.6373
 9928TIP3   OH251274   2.534   6.310   3.198 -0.8883 -0.0593 -0.3282
 9928TIP3    H151275   2.465   6.244   3.184  0.8124 -2.4501  1.6185
 9928TIP3    H251276   2.612   6.272   3.156  1.4297 -2.0213  4.8849
 9929TIP3   OH251277   5.080   2.037  10.690 -0.8031 -0.2022 -0.0524
 9929TIP3    H151278   5.050   1.949  10.713 -1.4914  0.1764  0.5234
 9929TIP3    H251279   5.145   2.059  10.757 -0.3111 -0.4312 -0.4429
 9930TIP3   OH251280   1.715   1.891   3.590  0.4167 -0.3023  0.7783
 9930TIP3    H151281   1.674   1.869   3.507  0.7511  0.1284  0.4972
 9930TIP3    H251282   1.731   1.806   3.632 -0.5721 -0.4850  0.8076
 9931TIP3   OH251283   2.348   6.204  14.650  0.7831  0.3430 -0.1518
 9931TIP3    H151284   2.390   6.286  14.678  0.6782  0.2513  0.2780
 9931TIP3    H251285   2.261   6.231  14.621  0.7276  0.3756  0.0442
 9932TIP3   OH251286   3.976   5.998  12.117 -1.1623 -0.1459 -0.3612
 9932TIP3    H151287   4.013   6.082  12.090 -0.7092  0.0712  0.9000
 9932TIP3    H251288   3.888   5.997  12.078 -0.2993 -0.1898 -2.4686
 9933TIP3   OH251289   1.827   5.618   6.826 -0.0685  0.5151  0.1941
 9933TIP3    H151290   1.769   5.602   6.752  0.5851 -0.8367 -0.0609
 9933TIP3    H251291   1.838   5.713   6.828 -0.2049  0.5869 -1.3568
 9934TIP3   OH251292   5.581   3.859  12.705 -0.2556  0.5723  0.8170
 9934TIP3    H151293   5.510   3.800  12.732 -1.6143  2.0932  0.7728
 9934TIP3    H251294   5.661   3.811  12.724 -1.2943 -1.4091  0.4413
 9935TIP3   OH251295   3.546   0.198  17.268  0.1437  0.3078  0.0148
 9935TIP3    H151296   3.518   0.289  17.267  0.2718  0.3550 -1.4619
 9935TIP3    H251297   3.465   0.148  17.267  0.0769  0.3911  0.6345
 9936TIP3   OH251298   5.169   4.891  13.373 -0.4782 -0.1434  0.1219
 9936TIP3    H151299   5.247   4.860  13.419 -1.3548 -0.6068  1.3410
 9936TIP3    H251300   5.146   4.973  13.418 -0.4853  0.1828 -0.4697
 9937TIP3   OH251301   1.508   2.056   0.364 -0.1048 -0.1275 -0.1710
 9937TIP3    H151302   1.506   2.098   0.278  1.4459  1.0298  0.3223
 9937TIP3    H251303   1.472   2.123   0.423 -0.5090 -0.6596  0.1878
 9938TIP3   OH251304   0.810   0.522   2.959  0.0941 -0.4535 -1.0698
 9938TIP3    H151305   0.752   0.452   2.989 -1.0217  0.2241 -1.5955
 9938TIP3    H251306   0.839   0.493   2.873 -0.0957 -0.4290 -1.1427
 9939TIP3   OH251307   2.353   1.458   5.861  0.2606  0.1361 -0.1750
 9939TIP3    H151308   2.310   1.517   5.923  0.8104  1.4462 -1.0016
 9939TIP3    H251309   2.444   1.487   5.860  0.4717 -0.5277 -0.8576
 9940TIP3   OH251310   5.654   0.881  15.671  0.2004 -0.3516  0.3585
 9940TIP3    H151311   5.733   0.877  15.618 -1.4759 -0.9398 -2.2700
 9940TIP3    H251312   5.662   0.963  15.720  1.4610  0.6936 -1.4759
 9941TIP3   OH251313   1.750   6.605  12.697  0.4388 -0.1121  0.3234
 9941TIP3    H151314   1.764   6.523  12.744 -1.0962 -0.0413  0.9645
 9941TIP3    H251315   1.727   6.579  12.608  0.0473 -0.3784  0.5009
 9942TIP3   OH251316   4.665   0.853  15.394  0.3442  0.2943  0.8376
 9942TIP3    H151317   4.631   0.940  15.373  0.6103  0.1387 -0.2684
 9942TIP3    H251318   4.683   0.812  15.309 -1.4037 -1.5038  1.2404
 9943TIP3   OH251319   3.195   3.284   5.453 -0.2803 -0.2703 -0.3104
 9943TIP3    H151320   3.285   3.311   5.475 -0.4167  1.0221 -1.2047
 9943TIP3    H251321   3.173   3.218   5.518  1.0635 -0.0705  0.3795
 9944TIP3   OH251322   4.758   2.964  16.122 -0.2858 -0.3026  0.4789
 9944TIP3    H151323   4.824   3.029  16.099  1.1081 -1.2632  1.5912
 9944TIP3    H251324   4.782   2.887  16.071  0.7834 -1.3354  2.4113
 9945TIP3   OH251325   2.103   0.055   2.666  0.2364  0.0021 -0.2251
 9945TIP3    H151326   2.065  -0.030   2.685  0.7324 -0.6076 -1.8513
 9945TIP3    H251327   2.032   0.104   2.624 -0.6554  1.1246  2.3638
 9946TIP3   OH251328   0.357   4.346   4.471 -0.6314  0.2974 -0.0870
 9946TIP3    H151329   0.428   4.388   4.424 -0.4213  1.1013  0.9237
 9946TIP3    H251330   0.304   4.304   4.403  2.0913 -2.4456 -0.7150
 9947TIP3   OH251331   5.446   4.099  12.162  0.2588  0.1505  0.6258
 9947TIP3    H151332   5.457   4.038  12.089 -0.8551  1.4847 -0.7436
 9947TIP3    H251333   5.502   4.065  12.232  2.7536 -0.2763 -1.4323
 9948TIP3   OH251334   4.603   1.722   2.109  0.5810  0.5465 -1.0956
 9948TIP3    H151335   4.693   1.696   2.132  0.5501  2.0063  0.9298
 9948TIP3    H251336   4.564   1.643   2.072  1.9781 -0.8094  0.1843
 9949TIP3   OH251337   1.746   4.509   3.260 -0.2856 -0.3439  0.1698
 9949TIP3    H151338   1.658   4.495   3.224 -1.1947  0.8372  1.8210
 9949TIP3    H251339   1.784   4.421   3.265 -1.8236 -1.0180  0.5176
 9950TIP3   OH251340   5.533   4.300   2.768 -0.5894  0.1881 -0.0711
 9950TIP3    H151341   5.577   4.261   2.693  0.0533 -0.4084  0.5927
 9950TIP3    H251342   5.451   4.335   2.733  0.0749  0.6520 -1.1848
 9951TIP3   OH251343   6.505   3.604   6.053 -0.5401  0.4300  0.5121
 9951TIP3    H151344   6.462   3.689   6.039 -2.2013 -0.1861  1.5677
 9951TIP3    H251345   6.508   3.594   6.148 -0.1333 -0.5838  0.4012
 9952TIP3   OH251346   0.638   5.920   6.190 -0.3419  0.5664  0.5116
 9952TIP3    H151347   0.601   5.912   6.102 -2.9843  1.2262  1.4679
 9952TIP3    H251348   0.673   5.834   6.210  2.6411  1.0199 -2.0571
 9953TIP3   OH251349   0.229   2.369  15.783 -0.7114  0.2701  0.4286
 9953TIP3    H151350   0.193   2.438  15.839  0.7991  0.2334  1.4999
 9953TIP3    H251351   0.312   2.346  15.824 -0.2215 -0.7540 -1.0661
 9954TIP3   OH251352   1.859   3.673   2.763  0.1665  0.4242  0.2795
 9954TIP3    H151353   1.777   3.638   2.798  0.7022 -1.2902 -0.1204
 9954TIP3    H251354   1.899   3.600   2.717  1.9100  1.2565  0.4023
 9955TIP3   OH251355   3.674   3.378  15.661 -0.4217 -0.2366 -0.5792
 9955TIP3    H151356   3.615   3.423  15.721  1.2473 -1.4640  2.2124
 9955TIP3    H251357   3.620   3.311  15.620 -1.5677  0.4668 -0.2801
 9956TIP3   OH251358   1.373   1.625  12.656 -0.8928  0.4980  0.2540
 9956TIP3    H151359   1.406   1.604  12.569 -0.2950  1.7944  0.1504
 9956TIP3    H251360   1.280   1.606  12.652 -0.7188 -0.2447 -0.4088
 9957TIP3   OH251361   5.625   3.819  13.043 -0.3966 -0.0292 -0.0030
 9957TIP3    H151362   5.669   3.746  13.087 -0.9711 -0.4592 -0.1276
 9957TIP3    H251363   5.532   3.808  13.065 -0.6752 -0.1507 -1.1735
 9958TIP3   OH251364   3.540   3.193   2.275 -0.3370 -0.0596  0.7642
 9958TIP3    H151365   3.555   3.267   2.216  0.1650 -1.4684 -0.9722
 9958TIP3    H251366   3.545   3.231   2.363  0.9336  1.7832 -0.0405
 9959TIP3   OH251367   5.116   3.304   1.429  0.3246 -0.1148 -0.0585
 9959TIP3    H151368   5.042   3.340   1.479 -0.0553 -1.3780  0.3063
 9959TIP3    H251369   5.075   3.269   1.349  0.3916 -1.6091  0.5437
 9960TIP3   OH251370   3.501   0.391  16.937 -0.5087 -0.0685 -0.1070
 9960TIP3    H151371   3.481   0.419  16.848  0.6924 -0.7599 -0.6230
 9960TIP3    H251372   3.444   0.316  16.952 -0.8801  0.1928 -0.1988
 9961TIP3   OH251373   0.090   0.268  12.297  0.2509  0.2399 -0.1120
 9961TIP3    H151374   0.131   0.295  12.380  0.0441  0.1490  0.0197
 9961TIP3    H251375   0.164   0.256  12.238  0.3693  0.7482 -0.0723
 9962TIP3   OH251376   5.204   1.973  13.966 -0.1133  0.2262  0.4615
 9962TIP3    H151377   5.116   2.006  13.987 -1.0230 -1.2797 -0.7261
 9962TIP3    H251378   5.191   1.879  13.953  2.3713 -0.7620  3.8137
 9963TIP3   OH251379   2.251   3.567  13.715  0.6040  0.3681 -0.0336
 9963TIP3    H151380   2.285   3.542  13.801  0.2891  0.4212  0.1092
 9963TIP3    H251381   2.323   3.614  13.674  0.7103  0.4697  0.2610
 9964TIP3   OH251382   6.537   5.483  12.590  0.2324 -0.5704  0.3432
 9964TIP3    H151383   6.590   5.484  12.670  0.4519  0.2740  0.1978
 9964TIP3    H251384   6.503   5.573  12.583  0.0314 -0.7011 -0.3902
 9965TIP3   OH251385   5.549   5.683  16.742 -0.3063 -0.1692  0.6594
 9965TIP3    H151386   5.611   5.611  16.753  0.2117 -0.1350 -1.5082
 9965TIP3    H251387   5.568   5.743  16.814  1.7774 -0.4483  0.3893
 9966TIP3   OH251388   2.988   4.075   4.151 -0.0140 -0.5140 -0.2525
 9966TIP3    H151389   2.895   4.077   4.127 -0.2731 -1.6395  0.5472
 9966TIP3    H251390   2.987   4.053   4.244  1.0598 -0.3550 -0.1963
 9967TIP3   OH251391   6.438   3.314   5.317  0.2658 -0.3550  0.1955
 9967TIP3    H151392   6.524   3.356   5.322  0.0234  0.0528  1.2397
 9967TIP3    H251393   6.457   3.223   5.294  0.7273  0.4907 -3.3727
 9968TIP3   OH251394   4.406   1.806   5.684  0.5193 -0.0134 -0.1225
 9968TIP3    H151395   4.466   1.860   5.633 -1.6270  0.8430 -1.9143
 9968TIP3    H251396   4.419   1.834   5.775  1.7155  1.2118 -0.6393
 9969TIP3   OH251397   5.749   3.504  12.586 -0.7134 -0.2900  0.1103
 9969TIP3    H151398   5.800   3.558  12.525  1.3909 -0.5051  1.5825
 9969TIP3    H251399   5.658   3.519  12.560 -0.1018  2.3360 -0.8645
 9970TIP3   OH251400   6.152   2.823  16.759  0.1830  0.2924  0.1086
 9970TIP3    H151401   6.122   2.754  16.700 -1.2058  0.0272  1.0760
 9970TIP3    H251402   6.246   2.805  16.771 -0.1030 -1.3577  0.2063
 9971TIP3   OH251403   4.834   2.226   2.726 -0.1389  0.3797  0.1884
 9971TIP3    H151404   4.907   2.206   2.668  1.1664  0.6997  1.6631
 9971TIP3    H251405   4.832   2.154   2.789 -0.6453  0.7264  0.5847
 9972TIP3   OH251406   3.255   3.569  14.230  0.0817  0.2082  0.1650
 9972TIP3    H151407   3.346   3.553  14.254  0.6390 -1.1797 -2.5555
 9972TIP3    H251408   3.218   3.482  14.214 -0.6922  0.8862 -2.0908
 9973TIP3   OH251409   5.964   1.526  12.674  0.2218  1.0451 -0.5576
 9973TIP3    H151410   6.031   1.570  12.726  0.2763  0.6601 -0.3013
 9973TIP3    H251411   5.947   1.587  12.601  0.9908  1.0512 -0.7394
 9974TIP3   OH251412   4.431   3.500  17.101  0.0098 -0.2953  0.3829
 9974TIP3    H151413   4.384   3.433  17.051  1.0057 -1.8692  1.4426
 9974TIP3    H251414   4.389   3.501  17.187 -1.5335  2.2170 -0.3076
 9975TIP3   OH251415   1.130   0.850   2.660  0.0731  0.3487  0.0983
 9975TIP3    H151416   1.072   0.926   2.653  0.0552  0.3197 -0.0565
 9975TIP3    H251417   1.107   0.811   2.745 -0.6643 -0.0954 -0.2982
 9976TIP3   OH251418   6.223   4.510   6.319 -0.2663  0.1508 -0.0500
 9976TIP3    H151419   6.197   4.446   6.385 -1.7419  0.4589 -0.3004
 9976TIP3    H251420   6.145   4.564   6.307  0.4883  1.0622 -0.9202
 9977TIP3   OH251421   1.409   0.150  14.086  1.1086 -0.0021  0.7700
 9977TIP3    H151422   1.440   0.147  13.995 -2.3360 -0.3282 -0.5513
 9977TIP3    H251423   1.409   0.058  14.114 -0.5606 -0.2829 -0.0234
 9978TIP3   OH251424   3.740   5.141   2.462  0.2136  0.1333  0.3059
 9978TIP3    H151425   3.734   5.196   2.384 -3.3607 -0.8992 -0.3148
 9978TIP3    H251426   3.721   5.053   2.431  1.6432 -0.8245  1.9476
 9979TIP3   OH251427   1.787   3.004  16.344  0.3262  0.2265 -0.4970
 9979TIP3    H151428   1.755   3.091  16.318  3.6789  0.9811 -2.7636
 9979TIP3    H251429   1.859   3.022  16.405  0.0405 -1.0858  0.2697
 9980TIP3   OH251430   3.429   1.559   4.278 -0.2458 -0.3549  0.1170
 9980TIP3    H151431   3.400   1.494   4.214 -0.1597  0.9967 -1.3520
 9980TIP3    H251432   3.373   1.635   4.263 -0.0098  0.1168  1.4480
 9981TIP3   OH251433   3.776   4.000  15.735 -0.0013 -0.4447 -0.2805
 9981TIP3    H151434   3.735   4.065  15.677  1.7857  0.0224 -1.0966
 9981TIP3    H251435   3.865   3.992  15.702  0.7396 -1.0349  1.7412
 9982TIP3   OH251436   3.166   2.517  13.205 -0.6304 -0.2730 -0.1693
 9982TIP3    H151437   3.259   2.501  13.191 -0.1278  0.7395  1.6388
 9982TIP3    H251438   3.126   2.430  13.203  0.6359 -0.9070  0.7383
 9983TIP3   OH251439   1.105   2.753   4.465 -0.1882  0.4759 -0.3586
 9983TIP3    H151440   1.093   2.674   4.411 -1.2708  0.7521 -0.5413
 9983TIP3    H251441   1.029   2.754   4.522 -0.5973  1.8095 -0.8887
 9984TIP3   OH251442   4.899   0.328  14.886 -0.1889 -0.0527  0.0192
 9984TIP3    H151443   4.833   0.300  14.949 -0.2698 -1.7928 -0.7535
 9984TIP3    H251444   4.851   0.340  14.804  0.3589 -1.0796 -0.4844
 9985TIP3   OH251445   4.988   1.228   1.430  0.4168  0.0422  0.0866
 9985TIP3    H151446   5.046   1.152   1.425  0.0858 -0.1352 -1.9234
 9985TIP3    H251447   5.037   1.293   1.479  0.9338 -1.2510  1.3635
 9986TIP3   OH251448   0.087   0.424  15.896  0.6785  0.0356  0.1487
 9986TIP3    H151449   0.158   0.445  15.834 -0.5349 -0.9851 -1.6879
 9986TIP3    H251450   0.078   0.503  15.949  1.5589  1.1028 -1.2011
 9987TIP3   OH251451   2.862   3.108  17.556 -0.0526 -0.3137  0.0675
 9987TIP3    H151452   2.822   3.080  17.474 -1.1977 -0.7221  0.7387
 9987TIP3    H251453   2.805   3.179  17.587  0.4372 -0.0772  0.4431
 9988TIP3   OH251454   3.267   2.250   1.090  0.4447  0.2527 -0.3685
 9988TIP3    H151455   3.218   2.182   1.044  1.4773  0.2353 -1.5036
 9988TIP3    H251456   3.256   2.229   1.182 -3.0375  1.2095 -0.4271
 9989TIP3   OH251457   1.197   4.941   0.056 -0.0297  0.1677 -0.7071
 9989TIP3    H151458   1.168   4.856   0.090 -1.7246  0.7284 -0.6403
 9989TIP3    H251459   1.228   4.922  -0.032  0.5452 -0.6596 -0.3468
 9990TIP3   OH251460   4.364   3.473  13.149 -0.6319  0.0281 -0.1814
 9990TIP3    H151461   4.420   3.549  13.132 -2.8699  2.4964  2.3407
 9990TIP3    H251462   4.281   3.495  13.105 -0.9441 -1.6188 -0.4710
 9991TIP3   OH251463   5.916   3.607  13.070  0.0734  0.5519 -0.0580
 9991TIP3    H151464   5.957   3.556  13.000  0.7124  0.8731  0.0756
 9991TIP3    H251465   5.983   3.670  13.096 -0.0392  0.2316  1.0624
 9992TIP3   OH251466   6.273   0.375  14.946 -0.1462  0.4764 -0.3509
 9992TIP3    H151467   6.275   0.455  14.893  0.1556  0.3844 -0.4820
 9992TIP3    H251468   6.191   0.333  14.922 -0.5358  0.9819  0.0689
 9993TIP3   OH251469   1.724   1.138  13.628  0.0269  0.4591 -0.5418
 9993TIP3    H151470   1.689   1.176  13.708 -1.4442  1.1934 -1.4906
 9993TIP3    H251471   1.801   1.088  13.656  0.5690  2.1173  1.0743
 9994TIP3   OH251472   1.307   3.977   4.349  0.1523 -0.0368 -0.1815
 9994TIP3    H151473   1.340   3.967   4.438 -0.9598  2.8159  0.6600
 9994TIP3    H251474   1.214   3.954   4.354  0.1808 -0.2860 -0.7126
 9995TIP3   OH251475   1.233   1.811  14.504 -0.3417  0.3321 -0.3977
 9995TIP3    H151476   1.256   1.862  14.581  0.4170 -0.7699  0.1261
 9995TIP3    H251477   1.282   1.729  14.513 -1.6622 -0.5785 -1.1204
 9996TIP3   OH251478   5.936   6.716   6.034  0.3796 -0.4757 -0.0772
 9996TIP3    H151479   5.974   6.801   6.057  0.5641 -0.0383 -1.8510
 9996TIP3    H251480   5.843   6.734   6.024  0.2354 -0.7559  0.6797
 9997TIP3   OH251481   0.946   4.848  12.157 -0.2855 -0.2788 -0.5199
 9997TIP3    H151482   1.003   4.924  12.166 -0.4334 -0.3041  1.0691
 9997TIP3    H251483   0.987   4.793  12.091  0.8937  0.2701 -0.2587
 9998TIP3   OH251484   0.873   5.877   5.499  0.3441 -0.2217  0.5441
 9998TIP3    H151485   0.930   5.935   5.449 -0.4041  0.6534  0.6840
 9998TIP3    H251486   0.849   5.808   5.438  2.4711 -1.2713  0.8099
 9999TIP3   OH251487   1.450   5.543  15.936  0.4848 -0.4599  0.6912
 9999TIP3    H151488   1.488   5.464  15.974  0.0943 -0.3456  1.3393
 9999TIP3    H251489   1.524   5.587  15.893  0.6178 -1.3885 -0.0564
10000TIP3   OH251490   1.269   4.433   2.526 -0.5543 -0.0566  0.4257
10000TIP3    H151491   1.273   4.469   2.615  0.7487  0.0638  0.3380
10000TIP3    H251492   1.255   4.510   2.470  0.7384  0.1587  0.3662
10001TIP3   OH251493   0.297   4.997   6.006 -0.8083 -0.4633  0.7151
10001TIP3    H151494   0.270   5.066   6.067 -1.0012 -1.5736  1.9511
10001TIP3    H251495   0.233   4.927   6.021  1.3989 -2.3098  2.1272
10002TIP3   OH251496   5.666   2.821   0.679 -0.1242  0.0037 -0.7131
10002TIP3    H151497   5.583   2.851   0.642 -0.6634  1.9865  1.7781
10002TIP3    H251498   5.649   2.732   0.708 -2.0320  0.8970  1.2187
10003TIP3   OH251499   6.376   3.988   0.296  0.1782  0.1330  0.4175
10003TIP3    H151500   6.461   3.952   0.268  0.6722  1.9444 -0.5640
10003TIP3    H251501   6.321   3.911   0.308  1.7243 -1.0542  0.2789
10004TIP3   OH251502   1.406   6.448  12.301 -0.0308 -0.4328  0.6207
10004TIP3    H151503   1.361   6.524  12.266 -0.9026 -0.7069  1.1041
10004TIP3    H251504   1.387   6.450  12.395  0.6365 -0.7846  0.7730
10005TIP3   OH251505   4.845   0.812  14.695  0.3461  0.6264  0.1879
10005TIP3    H151506   4.924   0.780  14.653  1.5379  1.7956  1.4434
10005TIP3    H251507   4.875   0.854  14.775 -1.3120  2.8699 -0.2397
10006TIP3   OH251508   4.371   5.444   0.475 -0.2113 -0.5247  0.5209
10006TIP3    H151509   4.278   5.452   0.497 -0.7922 -1.6746 -1.2706
10006TIP3    H251510   4.380   5.355   0.440  1.4319 -0.2224  0.0755
10007TIP3   OH251511   4.011   3.122  14.576  0.4716  0.7230 -0.0965
10007TIP3    H151512   4.047   3.063  14.642 -0.4968  0.4185  0.1716
10007TIP3    H251513   4.084   3.139  14.517  0.5495 -1.5920 -0.7952
10008TIP3   OH251514   2.801   0.513  17.676  0.2883 -0.1803  0.2288
10008TIP3    H151515   2.802   0.423  17.707  1.4589 -0.0570  0.5929
10008TIP3    H251516   2.745   0.559  17.738  0.2217 -0.5296  0.4294
10009TIP3   OH251517   6.338   1.798   5.457  0.3160  0.1990 -0.3396
10009TIP3    H151518   6.428   1.766   5.464  2.0119  4.3458 -0.1468
10009TIP3    H251519   6.330   1.862   5.528 -2.7029  0.2737 -0.6066
10010TIP3   OH251520   5.733   5.391  13.706 -0.4245  0.5071  0.2267
10010TIP3    H151521   5.705   5.323  13.767 -1.3189 -0.4021 -1.1583
10010TIP3    H251522   5.699   5.473  13.744 -0.5454  0.0325  1.1770
10011TIP3   OH251523   5.801   6.437  14.136  0.8128  0.2950  0.0037
10011TIP3    H151524   5.830   6.525  14.160 -0.4102  0.9095 -0.6726
10011TIP3    H251525   5.842   6.421  14.051  2.9783 -0.8065  1.1597
10012TIP3   OH251526   0.766   3.415   0.038 -0.0070 -0.7350  0.3425
10012TIP3    H151527   0.852   3.406  -0.005 -0.4038 -2.3921 -0.1664
10012TIP3    H251528   0.772   3.359   0.115 -1.9215 -4.2351 -1.8470
10013TIP3   OH251529   0.689   0.757  13.755  0.1065  0.0756  0.6357
10013TIP3    H151530   0.618   0.740  13.816 -0.8116 -0.7749 -0.6117
10013TIP3    H251531   0.681   0.688  13.689  0.8036  1.1791 -0.6633
10014TIP3   OH251532   2.241   0.530   4.978 -0.0817 -0.9617 -0.5157
10014TIP3    H151533   2.314   0.471   4.963  0.3161 -0.0666 -2.4907
10014TIP3    H251534   2.280   0.607   5.020 -0.5408 -1.8759  1.7273
10015TIP3   OH251535   4.415   5.305   1.048  0.3159 -0.2521  0.2272
10015TIP3    H151536   4.419   5.382   0.991 -0.5449  2.7116  3.8255
10015TIP3    H251537   4.506   5.276   1.056  0.6144  0.0845 -1.4806
10016TIP3   OH251538   4.853   5.237  15.186  0.5869  0.1397 -0.4061
10016TIP3    H151539   4.922   5.303  15.186  0.0845  0.6701  0.0103
10016TIP3    H251540   4.776   5.283  15.154 -0.4857  0.5403  2.4980
10017TIP3   OH251541   3.901   3.984  16.765  0.1830 -0.6340 -0.2766
10017TIP3    H151542   3.827   3.944  16.810 -1.4574  0.8125 -1.5702
10017TIP3    H251543   3.978   3.939  16.801 -1.2442 -1.7283  1.5894
10018TIP3   OH251544   0.336   0.214   4.516 -0.0941 -0.3257 -0.2562
10018TIP3    H151545   0.364   0.240   4.429 -1.2541 -0.3091 -0.6441
10018TIP3    H251546   0.416   0.183   4.559  0.4698 -0.4553 -1.3609
10019TIP3   OH251547   0.398   2.864  12.644  0.4430 -0.4473  0.2486
10019TIP3    H151548   0.393   2.958  12.658 -0.4088 -0.2581 -1.2187
10019TIP3    H251549   0.308   2.833  12.654  0.3745 -0.7928 -1.3229
10020TIP3   OH251550   1.281   4.336  15.622 -0.3516  0.2632  0.0891
10020TIP3    H151551   1.202   4.299  15.582  0.3155 -2.5060  1.1080
10020TIP3    H251552   1.302   4.411  15.568 -3.2170  0.6258 -0.6895
10021TIP3   OH251553   0.388   1.047   6.181  0.4933 -0.2994 -0.0751
10021TIP3    H151554   0.430   1.118   6.229  0.6301 -0.4268 -0.0034
10021TIP3    H251555   0.296   1.050   6.208  0.5445 -0.2895  0.0959
10022TIP3   OH251556   3.266   0.037  12.475  0.1764  0.3014 -0.4938
10022TIP3    H151557   3.308   0.113  12.435 -1.3280  0.2496 -2.3512
10022TIP3    H251558   3.190   0.073  12.520  0.6657  0.1031  0.5203
10023TIP3   OH251559   5.829   6.314   3.315  0.0771  0.1763 -0.1411
10023TIP3    H151560   5.849   6.368   3.238  0.5666 -0.8355 -0.7482
10023TIP3    H251561   5.895   6.245   3.313 -1.7873 -1.6985 -0.6298
10024TIP3   OH251562   2.389   2.838  17.142  0.4382 -0.3023  0.5373
10024TIP3    H151563   2.297   2.818  17.125  0.8276 -0.7163 -1.2603
10024TIP3    H251564   2.425   2.857  17.056  1.9641  0.2326  1.2676
10025TIP3   OH251565   5.651   2.088  11.466  0.0767  0.0159 -0.2969
10025TIP3    H151566   5.596   2.089  11.388 -0.0122  0.7386 -0.2371
10025TIP3    H251567   5.598   2.043  11.532  0.4297 -1.2245 -0.8326
10026TIP3   OH251568   4.280   2.899   3.062  0.4962  0.3721  0.2821
10026TIP3    H151569   4.249   2.985   3.032  0.9117  0.4207 -0.0105
10026TIP3    H251570   4.281   2.906   3.157 -0.0292  0.4966  0.2828
10027TIP3   OH251571   1.430   6.053   4.790 -0.6067 -0.3814  0.5915
10027TIP3    H151572   1.501   6.080   4.848 -1.3203  0.6246  1.0148
10027TIP3    H251573   1.360   6.025   4.849 -1.8289  1.8556  0.3152
10028TIP3   OH251574   1.401   1.923   0.027  0.9070  0.1981  0.8865
10028TIP3    H151575   1.379   1.866   0.100  0.0111 -1.2022 -0.4174
10028TIP3    H251576   1.450   1.867  -0.034 -1.4373  0.2644 -1.2031
10029TIP3   OH251577   3.776   3.878  14.425 -0.8401 -0.3033  0.0221
10029TIP3    H151578   3.823   3.801  14.393  1.8638  1.2649 -0.1551
10029TIP3    H251579   3.695   3.880  14.375 -0.2693 -2.1963 -1.0591
10030TIP3   OH251580   3.649   6.284   3.813  0.5457  0.4464 -0.4486
10030TIP3    H151581   3.644   6.195   3.849  2.3794 -0.1201 -1.4428
10030TIP3    H251582   3.579   6.332   3.858 -0.4624 -1.4662  0.1537
10031TIP3   OH251583   5.532   2.544   5.835  0.7886  0.2230  0.0739
10031TIP3    H151584   5.575   2.464   5.803  2.0878  0.3611  1.3634
10031TIP3    H251585   5.589   2.575   5.905 -0.4860  1.4729  0.6000
10032TIP3   OH251586   6.078   4.516   1.521 -0.1311  0.1062  0.3927
10032TIP3    H151587   6.049   4.599   1.483 -1.2611 -0.9369 -1.1201
10032TIP3    H251588   6.019   4.502   1.595 -0.9180 -0.0497 -0.2525
10033TIP3   OH251589   3.595   1.255  14.314  0.3821 -0.7196 -0.0284
10033TIP3    H151590   3.640   1.333  14.347  0.0280 -0.7123  0.4442
10033TIP3    H251591   3.664   1.204  14.271  1.2400 -1.5671  2.2187
10034TIP3   OH251592   3.869   6.724   2.994  0.6393 -0.3668  0.2028
10034TIP3    H151593   3.943   6.728   3.054 -0.6993 -0.4602  1.9527
10034TIP3    H251594   3.842   6.632   2.995  1.2071 -0.5772 -1.3658
10035TIP3   OH251595   1.837   1.215  15.484  0.8700  0.1251  0.2042
10035TIP3    H151596   1.839   1.248  15.394  0.7107 -1.1203 -0.2768
10035TIP3    H251597   1.895   1.273  15.532  1.2800  0.5637 -0.7915
10036TIP3   OH251598   5.356   4.496  16.322  0.2929  0.2062 -0.1672
10036TIP3    H151599   5.450   4.485  16.341  0.3266 -0.2849 -0.6015
10036TIP3    H251600   5.354   4.542  16.238  0.1388  1.8835  0.6948
10037TIP3   OH251601   5.760   1.890  17.328 -0.2025 -0.3389  0.8356
10037TIP3    H151602   5.681   1.859  17.371  1.5199 -1.7588  3.2174
10037TIP3    H251603   5.798   1.812  17.287  1.7055 -0.5320  2.7704
10038TIP3   OH251604   4.457   1.408  14.964 -1.3376 -0.3589 -0.0660
10038TIP3    H151605   4.504   1.343  14.913 -0.1979  0.0078  0.4788
10038TIP3    H251606   4.365   1.388  14.950 -1.0638 -0.4520 -2.0236
10039TIP3   OH251607   0.791   6.315  17.316  0.5458  0.4896  0.8257
10039TIP3    H151608   0.764   6.269  17.395  0.1189  0.6730  0.7905
10039TIP3    H251609   0.789   6.408  17.341 -2.5450  0.8176 -0.2247
10040TIP3   OH251610   2.287   3.566   2.144 -0.5143 -0.1813 -0.1733
10040TIP3    H151611   2.346   3.545   2.071  1.2658 -0.6358  1.3311
10040TIP3    H251612   2.315   3.508   2.215 -2.3877  0.0398  0.8051
10041TIP3   OH251613   4.186   1.163  13.402 -0.2211  0.2325 -0.0125
10041TIP3    H151614   4.212   1.150  13.311  1.1273  1.0411  0.2335
10041TIP3    H251615   4.249   1.111  13.452 -0.4626  0.4247  0.4933
10042TIP3   OH251616   0.712   5.273   0.877  0.2813  0.6265 -0.5394
10042TIP3    H151617   0.784   5.232   0.925 -0.9637 -0.2907  0.6405
10042TIP3    H251618   0.717   5.236   0.789  0.9395  0.1834 -0.3189
10043TIP3   OH251619   0.756   5.386  14.188 -0.0233  0.3692  0.4997
10043TIP3    H151620   0.801   5.452  14.135  0.7552 -0.1399  0.5144
10043TIP3    H251621   0.812   5.308  14.182 -0.2827  0.0929  1.5031
10044TIP3   OH251622   5.037   5.277  17.008  0.0988 -0.0840  0.3935
10044TIP3    H151623   4.953   5.240  16.982  0.1674  1.0170 -1.5900
10044TIP3    H251624   5.027   5.294  17.102 -1.7795 -0.2479  0.2698
10045TIP3   OH251625   1.888   4.405  15.222 -0.5036  0.3441 -0.8120
10045TIP3    H151626   1.904   4.346  15.296  0.3434  0.6796 -0.7173
10045TIP3    H251627   1.814   4.459  15.251 -0.1164  0.5430 -0.1602
10046TIP3   OH251628   5.052   3.423  16.564 -0.0362  0.5021  0.1193
10046TIP3    H151629   5.042   3.442  16.657 -0.8292 -1.9749  0.6126
10046TIP3    H251630   5.074   3.508  16.524  0.7076  1.5435  2.5812
10047TIP3   OH251631   3.483   0.909  11.984  0.4073  0.4257 -0.0984
10047TIP3    H151632   3.521   0.970  12.047 -0.5917  1.5360 -0.5289
10047TIP3    H251633   3.558   0.878  11.933  0.9435  1.2488  0.1603
10048TIP3   OH251634   5.681   5.039  15.024 -0.6660 -0.5275 -0.1288
10048TIP3    H151635   5.672   4.968  14.961  1.5380 -2.3603  1.4704
10048TIP3    H251636   5.774   5.040  15.047 -0.8417  2.0964  0.8547
10049TIP3   OH251637   0.845   5.084  12.414  0.5440  0.1686 -0.0890
10049TIP3    H151638   0.878   5.166  12.450  0.3824 -0.1462  0.7915
10049TIP3    H251639   0.809   5.108  12.329 -2.8093  1.7327  1.5855
10050TIP3   OH251640   1.863   2.774  17.596  0.3113 -0.0059 -0.0083
10050TIP3    H151641   1.785   2.718  17.604  0.5029 -0.1812  0.6579
10050TIP3    H251642   1.934   2.721  17.633  1.0860 -0.4971 -2.0598
10051TIP3   OH251643   3.665   3.549   4.039 -0.3013 -0.0781  0.3413
10051TIP3    H151644   3.697   3.532   4.128  0.5756  1.8294  0.4379
10051TIP3    H251645   3.590   3.607   4.051 -0.5139 -0.2427 -0.1503
10052TIP3   OH251646   1.901   1.844  15.436 -0.2582 -0.1465  0.1733
10052TIP3    H151647   1.821   1.816  15.482 -0.1994 -0.6797 -0.0420
10052TIP3    H251648   1.972   1.820  15.495 -0.2639  0.4674  0.4332
10053TIP3   OH251649   0.544   1.488  16.690  0.4302  0.3105 -0.1327
10053TIP3    H151650   0.593   1.464  16.768  0.9776 -1.3135 -0.9285
10053TIP3    H251651   0.452   1.470  16.713  0.2905  2.0928  0.8999
10054TIP3   OH251652   3.140   1.830   3.287 -0.0827  0.3122 -0.0837
10054TIP3    H151653   3.192   1.830   3.367 -1.0436  0.1998  0.5451
10054TIP3    H251654   3.187   1.889   3.228  0.0524  1.2482  0.9346
10055TIP3   OH251655   4.815   3.420   6.583  0.5613  0.3036  0.1507
10055TIP3    H151656   4.877   3.487   6.555  0.5327  0.4000  0.3226
10055TIP3    H251657   4.837   3.343   6.529  0.8548  0.3256  0.2406
10056TIP3   OH251658   6.384   2.470  14.729  0.3314  0.4262  0.1777
10056TIP3    H151659   6.477   2.457  14.706  0.3523  0.2473  0.3607
10056TIP3    H251660   6.365   2.400  14.791  0.3996  1.1745  1.0621
10057TIP3   OH251661   6.146   5.508  16.860  0.3512 -0.1360  0.2379
10057TIP3    H151662   6.092   5.443  16.816 -0.1965  0.4581  0.0054
10057TIP3    H251663   6.217   5.458  16.900  0.4042 -0.7702 -0.6339
10058TIP3   OH251664   4.630   5.536   0.949  0.0280 -0.0770  0.7711
10058TIP3    H151665   4.682   5.541   1.029  0.9708  0.4744  0.1328
10058TIP3    H251666   4.676   5.473   0.894 -0.0954  0.2522  0.2851
10059TIP3   OH251667   3.624   3.908   5.386 -0.4600  0.0027 -0.5521
10059TIP3    H151668   3.538   3.870   5.369 -0.9702  0.1912  1.3591
10059TIP3    H251669   3.671   3.840   5.433 -0.7123  1.0090  1.2198
10060TIP3   OH251670   4.062   6.166   6.472  0.0876  0.1817 -0.0199
10060TIP3    H151671   4.059   6.262   6.479  0.6207  0.0885  3.1359
10060TIP3    H251672   4.139   6.141   6.524 -1.3047 -2.0456  1.1125
10061TIP3   OH251673   1.943   5.647   0.234  0.3559 -0.0562 -0.2872
10061TIP3    H151674   2.034   5.672   0.221  0.9381 -3.0515 -3.4964
10061TIP3    H251675   1.946   5.556   0.262 -1.6334 -0.4605 -1.1931
10062TIP3   OH251676   6.216   1.893   1.156  0.0290 -0.0451 -0.2627
10062TIP3    H151677   6.306   1.916   1.178  1.1063 -2.7859 -1.3684
10062TIP3    H251678   6.201   1.936   1.071  1.1989 -1.4510 -1.2279
10063TIP3   OH251679   1.587   5.720  16.184 -0.0876  0.0764 -0.0033
10063TIP3    H151680   1.659   5.721  16.121  0.9712  1.0263  1.1754
10063TIP3    H251681   1.613   5.655  16.249  1.3512  2.6166  2.1622
10064TIP3   OH251682   1.090   6.441  17.506 -0.2227  0.1850  0.3823
10064TIP3    H151683   0.999   6.469  17.499  0.0370  1.2209  1.0196
10064TIP3    H251684   1.086   6.353  17.543 -0.9048  0.8536  1.9524
10065TIP3   OH251685   0.259   4.818  12.803 -0.2867  0.4446 -0.5709
10065TIP3    H151686   0.311   4.739  12.793 -0.0801  0.4134  0.5779
10065TIP3    H251687   0.243   4.824  12.898 -0.2344  1.8034 -0.6285
10066TIP3   OH251688   2.671   5.513   5.118  0.0476  0.1084  0.1188
10066TIP3    H151689   2.760   5.548   5.132 -0.3507  1.0149  0.4913
10066TIP3    H251690   2.644   5.552   5.035 -1.0130  2.0659  1.3066
10067TIP3   OH251691   3.246   5.412   2.670  0.3022 -0.6566  0.5446
10067TIP3    H151692   3.264   5.416   2.576 -3.0901 -0.2338 -0.2109
10067TIP3    H251693   3.263   5.321   2.694  2.0650 -0.5708 -0.2123
10068TIP3   OH251694   0.455   5.710   6.567  0.3108 -0.3997  0.4644
10068TIP3    H151695   0.461   5.726   6.662 -2.5886 -0.9423  0.8251
10068TIP3    H251696   0.458   5.798   6.529 -1.5812  0.0964  1.3436
10069TIP3   OH251697   6.179   3.139  13.705 -0.2414 -0.5240 -0.2312
10069TIP3    H151698   6.152   3.171  13.791 -0.3952 -0.1664 -0.4105
10069TIP3    H251699   6.181   3.217  13.650 -3.3435 -1.1056 -1.4077
10070TIP3   OH251700   1.410   0.066  17.381  0.0852 -0.7513 -0.2862
10070TIP3    H151701   1.375  -0.015  17.417  1.5456 -0.6531  1.5073
10070TIP3    H251702   1.424   0.122  17.458  0.2605  0.7439 -1.3617
10071TIP3   OH251703   1.519   5.050  16.556  0.0925 -0.0081  0.0850
10071TIP3    H151704   1.463   5.002  16.495 -0.4161  2.5720 -1.6329
10071TIP3    H251705   1.460   5.112  16.599  0.8144 -0.4587  1.8173
10072TIP3   OH251706   0.906   1.822  14.909  0.0462  0.0679  0.7532
10072TIP3    H151707   0.959   1.890  14.949  0.7614  0.2167 -0.4033
10072TIP3    H251708   0.915   1.836  14.815  1.0667 -2.2472  0.4342
10073TIP3   OH251709   0.986   3.631  15.761  0.3242 -0.0449  0.1940
10073TIP3    H151710   0.982   3.712  15.710 -1.4241  0.6336  1.3183
10073TIP3    H251711   1.074   3.631  15.798  0.7679  0.6970 -0.7903
10074TIP3   OH251712   1.010   3.302  17.595 -0.3869  0.3095  0.6801
10074TIP3    H151713   1.040   3.242  17.663 -0.7978 -1.3549 -0.5560
10074TIP3    H251714   0.943   3.254  17.547  1.5313  0.4233 -2.4078
10075TIP3   OH251715   5.724   0.018   0.121  0.1163 -0.4960 -0.9587
10075TIP3    H151716   5.796   0.061   0.167 -0.9510  0.4455 -0.1063
10075TIP3    H251717   5.710   0.071   0.043  0.0289 -0.3861 -0.8691
10076TIP3   OH251718   4.842   2.542   5.452 -0.0646 -0.3197  0.5290
10076TIP3    H151719   4.924   2.589   5.459 -0.4441  0.3143  0.7987
10076TIP3    H251720   4.814   2.555   5.362 -0.7192  0.9339  0.8862
10077TIP3   OH251721   5.449   5.394  15.741  0.0400 -0.4475  0.4034
10077TIP3    H151722   5.387   5.381  15.812  0.0618  2.0804  0.9881
10077TIP3    H251723   5.409   5.463  15.687  1.1441 -0.6271 -0.6916
10078TIP3   OH251724   2.107   6.187  11.400 -0.0614  0.3979 -0.2805
10078TIP3    H151725   2.060   6.179  11.317  2.6843 -0.0249 -1.8919
10078TIP3    H251726   2.058   6.132  11.461 -1.4843 -0.2237 -1.9109
10079TIP3   OH251727   4.300   3.343  14.757  0.3923 -0.0090 -0.2293
10079TIP3    H151728   4.268   3.310  14.841 -0.2406 -0.1940 -0.5358
10079TIP3    H251729   4.274   3.435  14.756  0.8101  0.1115 -0.0246
10080TIP3   OH251730   0.529   1.116  13.904  0.3004  0.2456 -0.3635
10080TIP3    H151731   0.565   1.089  13.820  1.8829  0.7944  0.1154
10080TIP3    H251732   0.597   1.170  13.944  0.5710 -1.8293  2.2717
10081TIP3   OH251733   6.134   3.994  14.940 -0.2068 -0.2282  0.0985
10081TIP3    H151734   6.058   3.935  14.939  0.6624 -1.3889 -0.2733
10081TIP3    H251735   6.203   3.944  14.897  0.9664  0.5426  1.0227
10082TIP3   OH251736   3.812   1.830   1.639 -0.1360  0.0870 -0.7778
10082TIP3    H151737   3.792   1.803   1.728 -0.2324  1.5715 -0.3254
10082TIP3    H251738   3.882   1.771   1.611  0.9189  0.5215  0.8178
10083TIP3   OH251739   3.769   3.503   5.155  0.2955 -0.2573  0.0581
10083TIP3    H151740   3.794   3.485   5.064 -0.7722 -1.2640 -0.0608
10083TIP3    H251741   3.685   3.458   5.166  1.1395 -1.4549  2.0151
10084TIP3   OH251742   3.898   5.485   5.145 -0.3421 -0.0794  0.7595
10084TIP3    H151743   3.947   5.550   5.195  1.6288  0.4080 -1.6385
10084TIP3    H251744   3.808   5.516   5.146  0.4478  2.4210  0.1684
10085TIP3   OH251745   1.761   3.626  13.504  0.2184  0.3087 -0.0119
10085TIP3    H151746   1.839   3.667  13.541 -0.9812 -1.1989  4.9363
10085TIP3    H251747   1.691   3.690  13.518 -0.2417 -0.1799 -0.0614
10086TIP3   OH251748   2.174   1.135   1.519 -0.1688  0.1580  0.2212
10086TIP3    H151749   2.253   1.151   1.571  0.2409  0.7846 -0.5761
10086TIP3    H251750   2.110   1.199   1.552  0.3778  1.1722 -0.6360
10087TIP3   OH251751   0.650   3.113  13.907  0.3562 -0.0708 -0.0195
10087TIP3    H151752   0.742   3.117  13.880  0.2938  0.8660 -0.1041
10087TIP3    H251753   0.652   3.133  14.001  0.2309  0.0159 -0.0349
10088TIP3   OH251754   2.719   1.405  17.414 -0.9838  0.1475  0.1185
10088TIP3    H151755   2.693   1.436  17.327 -0.7715  0.7766  0.2678
10088TIP3    H251756   2.783   1.471  17.444  2.4694 -2.3350 -1.0941
10089TIP3   OH251757   3.753   2.173   2.887  0.0544  0.1367  0.2387
10089TIP3    H151758   3.834   2.195   2.933  0.0396 -1.0435  0.8755
10089TIP3    H251759   3.782   2.140   2.803  0.3153 -1.1004  0.7897
10090TIP3   OH251760   2.764   1.357  17.051 -0.3205  0.1584  1.0700
10090TIP3    H151761   2.712   1.281  17.077 -0.7528 -0.8033 -2.1585
10090TIP3    H251762   2.699   1.425  17.032 -0.1134  0.3218  0.9393
10091TIP3   OH251763   4.819   2.682  14.856 -0.3516 -0.1342 -0.1212
10091TIP3    H151764   4.890   2.679  14.921  0.2658  0.6409 -0.7429
10091TIP3    H251765   4.801   2.775  14.844 -1.3440 -0.3118 -0.1332
10092TIP3   OH251766   3.439   5.794   5.751  0.3969 -0.4277 -1.0528
10092TIP3    H151767   3.449   5.883   5.785  0.2274 -0.7467 -0.1557
10092TIP3    H251768   3.359   5.798   5.698 -0.2299 -0.2949 -0.1293
10093TIP3   OH251769   1.552   4.850   3.841  0.3419  0.4834 -0.1882
10093TIP3    H151770   1.556   4.755   3.835 -0.8913  0.4089 -0.0820
10093TIP3    H251771   1.463   4.869   3.871  1.0034  1.6127  1.1501
10094TIP3   OH251772   2.409   5.192  15.566  0.0179 -0.3611 -0.0744
10094TIP3    H151773   2.448   5.109  15.593 -1.4287 -0.1103  3.1739
10094TIP3    H251774   2.443   5.256  15.628 -0.4674  1.1080 -1.2658
10095TIP3   OH251775   2.719   2.737  11.884  0.7753  0.3333 -0.6356
10095TIP3    H151776   2.686   2.825  11.901 -0.3325 -0.1005 -0.4706
10095TIP3    H251777   2.684   2.715  11.798 -0.4960 -0.6346  0.0976
10096TIP3   OH251778   6.363   0.635   4.554 -0.2483 -0.3413 -0.2868
10096TIP3    H151779   6.268   0.625   4.548 -0.1963 -1.1189  0.0307
10096TIP3    H251780   6.387   0.689   4.480 -0.7718 -1.3466 -1.2182
10097TIP3   OH251781   4.028   6.163   3.578 -0.0945 -0.0805  0.4354
10097TIP3    H151782   4.010   6.098   3.510  0.5827  0.5856 -0.4079
10097TIP3    H251783   4.099   6.217   3.542  0.0038  0.5430  1.5047
10098TIP3   OH251784   4.780   2.398   0.196 -0.0597 -0.0617 -0.4431
10098TIP3    H151785   4.876   2.398   0.205 -0.0081 -1.2181 -0.8393
10098TIP3    H251786   4.757   2.490   0.190  0.9738  0.2609  0.2768
10099TIP3   OH251787   5.037   0.676   5.771  0.3412 -0.3112  0.6913
10099TIP3    H151788   5.011   0.731   5.697  0.8520 -1.7111 -0.5583
10099TIP3    H251789   5.132   0.670   5.764  0.5862  0.7665  2.3830
10100TIP3   OH251790   1.401   3.757  12.262  1.0169 -0.5216 -0.3999
10100TIP3    H151791   1.355   3.693  12.317  2.6010 -1.6466 -0.3072
10100TIP3    H251792   1.348   3.764  12.183  0.6633 -1.7419 -0.2853
10101TIP3   OH251793   1.342   3.721  16.265 -0.6584  0.1622 -0.2805
10101TIP3    H151794   1.389   3.700  16.345 -0.2739 -0.7543 -0.7345
10101TIP3    H251795   1.382   3.803  16.235 -1.9568  1.4470  1.3259
10102TIP3   OH251796   3.201   2.986   1.514  0.0586 -0.2686  0.0802
10102TIP3    H151797   3.246   2.902   1.503  1.7300  0.4628  0.8657
10102TIP3    H251798   3.121   2.978   1.463 -0.7672 -3.0052  1.6536
10103TIP3   OH251799   3.636   2.093  15.263 -0.3220  0.9385 -0.0384
10103TIP3    H151800   3.551   2.052  15.277  0.1755  0.2585  1.0636
10103TIP3    H251801   3.619   2.187  15.272 -0.5688  0.7083  2.5437
10104TIP3   OH251802   5.044   6.509  13.994 -0.6455 -0.7277 -0.2995
10104TIP3    H151803   5.098   6.563  13.936 -0.9993  0.1243  0.1333
10104TIP3    H251804   5.107   6.467  14.053 -0.3974 -0.2584 -0.2203
10105TIP3   OH251805   2.096   3.490  12.065 -0.3059 -0.3940 -0.2329
10105TIP3    H151806   2.117   3.574  12.025 -0.7192  1.4608  3.0696
10105TIP3    H251807   2.039   3.446  12.002 -0.7722  2.1740 -1.7118
10106TIP3   OH251808   3.255   3.585  13.463  0.6954  0.3049  0.1756
10106TIP3    H151809   3.292   3.673  13.468 -2.5609  1.7442  0.9692
10106TIP3    H251810   3.197   3.587  13.387 -2.2740  0.1676  2.2581
10107TIP3   OH251811   1.955   3.432  11.724 -0.8711 -0.0342 -0.5244
10107TIP3    H151812   2.036   3.383  11.709  0.6954  1.9694  0.9091
10107TIP3    H251813   1.961   3.506  11.664 -1.9342 -0.1322 -0.7726
10108TIP3   OH251814   0.150   0.836  14.922  0.1868 -0.2864 -0.3449
10108TIP3    H151815   0.074   0.870  14.970  1.0676  2.0095 -0.4878
10108TIP3    H251816   0.220   0.832  14.987  0.5451 -0.1967 -0.7229
10109TIP3   OH251817   2.572   6.671  15.382 -0.1692 -0.5088 -0.0063
10109TIP3    H151818   2.518   6.606  15.339  0.0629 -0.6522 -0.0862
10109TIP3    H251819   2.661   6.637  15.374  0.0120  0.0466 -0.4770
10110TIP3   OH251820   3.562   2.383   2.237  0.2155  0.3400 -0.0139
10110TIP3    H151821   3.509   2.339   2.170  2.2572 -0.6745 -1.0676
10110TIP3    H251822   3.582   2.469   2.200  0.9918 -0.0616 -0.5566
10111TIP3   OH251823   4.493   2.592  15.317  0.2111  0.4357 -0.7781
10111TIP3    H151824   4.439   2.654  15.365 -0.9938  1.2561 -3.0418
10111TIP3    H251825   4.509   2.634  15.232 -0.2067 -2.0901 -2.2193
10112TIP3   OH251826   0.432   0.176  14.171  0.6841  0.0989 -0.5898
10112TIP3    H151827   0.341   0.146  14.168  1.2429 -1.7893 -0.2157
10112TIP3    H251828   0.459   0.163  14.261  1.2977  0.7669 -0.6690
10113TIP3   OH251829   3.643   6.504  17.217  0.6745 -0.1286  0.3931
10113TIP3    H151830   3.607   6.554  17.290  0.7219 -0.8521  0.9190
10113TIP3    H251831   3.659   6.570  17.149  0.5188  0.5353  0.9833
10114TIP3   OH251832   1.309   5.883   1.985  0.0818  0.2747  0.1837
10114TIP3    H151833   1.374   5.844   2.044  1.7639  0.8056 -1.2341
10114TIP3    H251834   1.341   5.972   1.970  0.1521 -0.0786 -2.1206
10115TIP3   OH251835   3.178   0.115   1.731  0.1331 -0.1337  0.0594
10115TIP3    H151836   3.126   0.166   1.668 -1.2688 -1.6925 -0.1144
10115TIP3    H251837   3.173   0.025   1.699 -0.7690 -1.0140  2.4421
10116TIP3   OH251838   2.562   6.022  10.895 -0.6549  0.0587 -0.2574
10116TIP3    H151839   2.593   6.044  10.807 -2.0871  0.2746 -0.7197
10116TIP3    H251840   2.565   6.104  10.943 -2.7704  0.6181 -1.0067
10117TIP3   OH251841   0.581   2.290   2.618  0.1725  0.0471  0.3285
10117TIP3    H151842   0.543   2.372   2.650 -0.2890  0.0914 -0.3229
10117TIP3    H251843   0.669   2.314   2.591 -0.1689  0.4768 -0.4494
10118TIP3   OH251844   4.904   3.107   4.822  0.3991 -0.1290  0.2444
10118TIP3    H151845   4.916   3.122   4.916  0.1808  0.3261  0.2022
10118TIP3    H251846   4.833   3.166   4.797  1.1124  0.4786 -0.3996
10119TIP3   OH251847   0.827   2.981   4.433  0.1710 -0.4628 -0.2399
10119TIP3    H151848   0.763   2.911   4.423  0.4300 -0.7947  0.3338
10119TIP3    H251849   0.874   2.983   4.350  0.7054 -1.5308  0.0250
10120TIP3   OH251850   2.691   6.225   4.856 -0.2481 -0.5143 -0.3620
10120TIP3    H151851   2.672   6.189   4.942  1.0127  0.8172  0.5193
10120TIP3    H251852   2.755   6.164   4.818 -0.8355 -1.1227 -0.3978
10121TIP3   OH251853   2.040   6.170   6.667 -0.1244  0.4486  0.4288
10121TIP3    H151854   2.082   6.101   6.719  1.1610  1.0043  0.1653
10121TIP3    H251855   2.003   6.230   6.732 -0.0986  0.1999  0.6750
10122TIP3   OH251856   6.139   0.568   1.892 -0.7074 -0.0826 -0.3848
10122TIP3    H151857   6.182   0.650   1.867 -0.8486 -0.1369 -0.8033
10122TIP3    H251858   6.190   0.537   1.967 -0.3899  0.1664 -0.4929
10123TIP3   OH251859   1.059   6.040   1.918  0.1930  0.0904 -0.0135
10123TIP3    H151860   0.986   6.063   1.975 -1.0570 -0.3105 -1.3999
10123TIP3    H251861   1.081   6.122   1.873 -0.2155 -0.0444 -0.4712
10124TIP3   OH251862   0.970   2.375   4.894  0.4117 -0.2304 -0.5199
10124TIP3    H151863   0.972   2.304   4.958 -0.7198 -1.5029 -1.7951
10124TIP3    H251864   0.880   2.409   4.898  0.4005 -0.1493 -1.2202
10125TIP3   OH251865   2.225   2.031  13.785  0.4427 -0.0885  0.4728
10125TIP3    H151866   2.209   2.036  13.690  0.8630  0.2978  0.4139
10125TIP3    H251867   2.318   2.010  13.792  0.0888 -1.6095  0.8047
10126TIP3   OH251868   3.124   2.408   3.879  0.1332 -0.4466 -0.4671
10126TIP3    H151869   3.184   2.481   3.895  0.0889 -0.7312  1.0726
10126TIP3    H251870   3.083   2.430   3.795 -0.0537  1.4277  0.0651
10127TIP3   OH251871   3.771   1.855  13.077 -0.1268  0.1267  0.1560
10127TIP3    H151872   3.720   1.936  13.069  0.5850  0.4895 -1.1338
10127TIP3    H251873   3.742   1.802  13.002  2.0682  0.7837 -1.2595
10128TIP3   OH251874   4.677   2.497  13.526  0.0274 -0.0681 -0.8924
10128TIP3    H151875   4.639   2.574  13.568 -0.9238 -1.0712  0.1348
10128TIP3    H251876   4.713   2.445  13.598  0.7571 -0.5450 -1.5818
10129TIP3   OH251877   4.472   0.006   0.410  0.3305 -0.8650  0.1271
10129TIP3    H151878   4.486  -0.023   0.501 -0.5527 -1.1814  0.1759
10129TIP3    H251879   4.463  -0.076   0.361  0.4368 -0.6914 -0.1798
10130TIP3   OH251880   6.011   0.323   4.712  1.1733 -0.2453 -0.0219
10130TIP3    H151881   5.969   0.378   4.646  0.4794 -0.2278  0.4284
10130TIP3    H251882   6.102   0.353   4.712  1.0003  0.3113 -0.3947
10131TIP3   OH251883   6.428   4.971   4.185  0.4091  0.1887  0.1756
10131TIP3    H151884   6.378   4.971   4.104  2.4313  0.2324 -1.1518
10131TIP3    H251885   6.480   5.051   4.181  1.5191 -0.4676  0.8537
10132TIP3   OH251886   1.444   3.349   5.460 -0.0107  0.1452 -0.4218
10132TIP3    H151887   1.483   3.396   5.386  2.3994 -2.1114 -0.7463
10132TIP3    H251888   1.473   3.398   5.537  0.4464  0.5496 -0.8451
10133TIP3   OH251889   4.206   0.807  17.251  0.0161  0.3655 -0.4825
10133TIP3    H151890   4.289   0.760  17.262 -0.6760 -0.8352 -0.2217
10133TIP3    H251891   4.189   0.804  17.157  1.4568  2.7774 -0.8989
10134TIP3   OH251892   4.915   3.989   2.652  0.5092  0.1142  0.5225
10134TIP3    H151893   4.955   3.984   2.565  2.6249  1.5548  1.3164
10134TIP3    H251894   4.848   4.057   2.643 -0.5277 -0.9768 -0.3661
10135TIP3   OH251895   5.057   5.205   3.391 -0.0473 -0.3045  0.4330
10135TIP3    H151896   5.128   5.158   3.349  0.2823 -0.3955  1.0753
10135TIP3    H251897   5.077   5.297   3.377  0.0162 -0.3350  0.3216
10136TIP3   OH251898   4.000   2.514   5.388  0.0054 -0.0285  0.0331
10136TIP3    H151899   3.927   2.500   5.328  0.5828  0.1936 -0.7430
10136TIP3    H251900   4.064   2.565   5.337  1.2620 -1.3252  0.2390
10137TIP3   OH251901   5.058   0.503  13.163  0.0037 -0.1570 -0.2689
10137TIP3    H151902   5.034   0.496  13.255  0.3479 -2.7263 -0.2865
10137TIP3    H251903   5.143   0.545  13.163 -0.3928  0.6620  0.5075
10138TIP3   OH251904   4.682   4.086   3.739  0.7286  0.1865 -0.4956
10138TIP3    H151905   4.691   4.181   3.731 -0.9591  0.6580  2.0795
10138TIP3    H251906   4.638   4.059   3.658  0.0802  1.7800 -0.7116
10139TIP3   OH251907   0.157   2.420   1.676 -0.2833  0.0066 -0.3876
10139TIP3    H151908   0.243   2.459   1.696 -0.0353  0.1008 -1.5389
10139TIP3    H251909   0.096   2.468   1.731  0.5240 -0.8713  1.3557
10140TIP3   OH251910   3.657   5.003   3.592  0.3763 -0.4702 -0.1400
10140TIP3    H151911   3.688   5.083   3.635 -0.3926 -1.2039  1.8822
10140TIP3    H251912   3.563   5.013   3.587  0.5292  0.2719 -3.1923
10141TIP3   OH251913   3.137   2.831   1.051 -0.3769  0.4377 -0.0893
10141TIP3    H151914   3.056   2.822   1.102  0.1291 -3.7046  0.3012
10141TIP3    H251915   3.180   2.746   1.059  2.6598  1.5449 -2.6617
10142TIP3   OH251916   2.595   1.314   5.549  0.5612  0.1520  0.3181
10142TIP3    H151917   2.528   1.378   5.525  0.0872  0.0022  1.1838
10142TIP3    H251918   2.595   1.315   5.645  1.2409 -0.4292  0.3297
10143TIP3   OH251919   3.445   5.115   0.008  0.3550  0.0880  0.0512
10143TIP3    H151920   3.359   5.149   0.034  0.4357 -0.4158  1.0274
10143TIP3    H251921   3.433   5.020   0.007  0.5800  0.0649 -1.0158
10144TIP3   OH251922   4.902   3.364   1.976  0.1848 -0.0869 -0.6099
10144TIP3    H151923   4.977   3.334   2.027 -0.3525  0.3969  0.4837
10144TIP3    H251924   4.872   3.443   2.020 -2.2701 -1.3895  0.2523
10145TIP3   OH251925   5.984   1.262   1.657  0.0674  0.6222 -0.2426
10145TIP3    H151926   6.053   1.248   1.722 -0.0027 -0.3579 -0.3777
10145TIP3    H251927   5.908   1.216   1.692 -0.4335  1.4105 -0.2631
10146TIP3   OH251928   6.170   3.638   0.125 -0.6073  0.2985  0.5470
10146TIP3    H151929   6.114   3.593   0.062 -0.4663  1.2488 -0.2881
10146TIP3    H251930   6.221   3.569   0.167 -1.5774 -0.4665  0.4974
10147TIP3   OH251931   5.714   0.455  11.586  0.1556  0.3232 -0.0788
10147TIP3    H151932   5.621   0.449  11.605  0.4433  0.5591  1.5932
10147TIP3    H251933   5.756   0.408  11.658  1.3170 -0.1604 -1.0389
10148TIP3   OH251934   5.969   1.137   2.494 -0.5115  0.1301 -0.4079
10148TIP3    H151935   5.974   1.098   2.581  1.4065  2.0762  0.4345
10148TIP3    H251936   6.030   1.085   2.441 -1.6805 -1.0568 -0.6426
10149TIP3   OH251937   6.278   3.945   0.825  0.1319  0.6004  0.0848
10149TIP3    H151938   6.190   3.971   0.852  0.2270 -0.9039  2.1136
10149TIP3    H251939   6.336   4.004   0.872  0.2408 -0.3785  1.2214
10150TIP3   OH251940   6.514   0.471   2.725  0.2262 -0.7016 -0.0208
10150TIP3    H151941   6.496   0.421   2.805 -2.2581 -0.1290 -0.1320
10150TIP3    H251942   6.439   0.454   2.669 -0.1818  2.1722 -0.5317
10151TIP3   OH251943   4.083   2.879   1.720 -0.2793  0.2059 -0.1112
10151TIP3    H151944   4.001   2.831   1.719  0.6020 -1.3701  0.0345
10151TIP3    H251945   4.104   2.894   1.628 -0.9571  1.0514 -0.1373
10152TIP3   OH251946   4.148   3.557  13.007 -0.0630 -0.2161 -0.6921
10152TIP3    H151947   4.166   3.563  12.914  0.9705 -0.9797 -0.5662
10152TIP3    H251948   4.059   3.588  13.017 -0.6646 -1.3784 -2.1262
10153TIP3   OH251949   5.849   1.507   2.808 -0.1773  0.2339 -0.7285
10153TIP3    H151950   5.783   1.477   2.871 -0.0150 -0.2074 -0.7679
10153TIP3    H251951   5.842   1.445   2.735  0.0469  0.3899 -0.8824
10154TIP3   OH251952   5.520   4.249  14.120 -0.2844  0.1824 -0.0514
10154TIP3    H151953   5.432   4.225  14.147  0.3089 -0.1201  1.7245
10154TIP3    H251954   5.567   4.266  14.202  2.0592 -2.2806 -0.7543
10155TIP3   OH251955   5.763   5.065  17.347 -0.5016  0.9417 -0.3135
10155TIP3    H151956   5.668   5.076  17.342 -0.4040  1.5045 -1.3041
10155TIP3    H251957   5.797   5.114  17.271  0.4397 -0.9386 -1.1848
10156TIP3   OH251958   3.188   3.366  11.737 -0.4446  0.2298 -0.8880
10156TIP3    H151959   3.236   3.449  11.735 -0.9394  0.5900  0.7550
10156TIP3    H251960   3.257   3.299  11.742 -0.0667  0.6512 -0.2383
10157TIP3   OH251961   6.202   0.563  13.426  0.2796 -0.2094 -0.3750
10157TIP3    H151962   6.152   0.524  13.354 -0.2436 -0.4881  0.1358
10157TIP3    H251963   6.265   0.621  13.382  1.5293 -2.0869 -1.1976
10158TIP3   OH251964   4.921   1.348   0.399  0.0050  0.1003 -0.3101
10158TIP3    H151965   4.982   1.403   0.448  0.1260 -0.3483  0.0493
10158TIP3    H251966   4.919   1.265   0.448 -0.0609 -0.2642 -0.9284
10159TIP3   OH251967   3.143   0.354   0.537  0.1154 -0.4260 -0.5108
10159TIP3    H151968   3.229   0.383   0.507 -1.0308  1.2116 -2.4610
10159TIP3    H251969   3.157   0.264   0.566  2.8668  0.4102  1.1538
10160TIP3   OH251970   3.700   1.359  16.643 -0.0285 -0.3574 -0.3172
10160TIP3    H151971   3.615   1.317  16.657 -0.1593  0.0673  0.1987
10160TIP3    H251972   3.701   1.378  16.549 -0.5630 -0.2414 -0.3050
10161TIP3   OH251973   4.817   3.621  15.763 -0.3079 -0.2737  1.2631
10161TIP3    H151974   4.807   3.652  15.673 -1.4740  1.1820  1.8530
10161TIP3    H251975   4.754   3.672  15.813  1.6729  0.3793  3.2502
10162TIP3   OH251976   3.690   0.506   6.728  0.9648 -0.0198 -0.0756
10162TIP3    H151977   3.747   0.532   6.800 -0.8254  1.1304  0.9844
10162TIP3    H251978   3.643   0.429   6.760 -1.4134  1.7342  0.9377
10163TIP3   OH251979   0.196   1.171  15.980 -0.2160 -0.2311  0.0707
10163TIP3    H151980   0.238   1.226  16.046  0.0048  0.8749 -0.9564
10163TIP3    H251981   0.184   1.086  16.024  1.8247 -0.1755  0.8531
10164TIP3   OH251982   2.964   0.394   1.092 -0.6180  0.2561  0.2420
10164TIP3    H151983   2.884   0.436   1.124 -0.2013  3.0996 -2.0041
10164TIP3    H251984   2.934   0.324   1.034 -1.4370  0.3256  0.5765
10165TIP3   OH251985   4.697   3.673  17.523 -0.0697  0.4012 -0.6733
10165TIP3    H151986   4.612   3.668  17.567 -0.7957 -0.6338 -2.0833
10165TIP3    H251987   4.749   3.733  17.576  0.1510 -2.8308  3.2140
10166TIP3   OH251988   4.838   2.894   5.988 -0.4830 -0.3365 -0.2845
10166TIP3    H151989   4.804   2.805   5.994 -2.4270  0.4780  2.0550
10166TIP3    H251990   4.820   2.920   5.898 -1.2898 -1.7566 -0.5704
10167TIP3   OH251991   2.413   6.639  11.796  0.0177  0.0288  0.2367
10167TIP3    H151992   2.359   6.639  11.875  1.3757  0.1029  1.2079
10167TIP3    H251993   2.469   6.561  11.805 -0.0033 -0.1137 -0.7911
10168TIP3   OH251994   6.365   0.204   0.581  0.6101  0.0072  0.4368
10168TIP3    H151995   6.302   0.233   0.647  0.8219 -0.4874  0.8546
10168TIP3    H251996   6.347   0.111   0.569  0.4370  0.1289 -0.3533
10169TIP3   OH251997   3.853   6.167   2.972  0.3652  0.0620  0.3212
10169TIP3    H151998   3.839   6.135   2.883  0.2653 -1.8687  0.9808
10169TIP3    H251999   3.780   6.130   3.023  1.6684 -0.8047  1.6309
10170TIP3   OH252000   1.458   1.735   3.967  0.3422 -0.0243 -0.0820
10170TIP3    H152001   1.449   1.643   3.941 -0.6696  0.5113 -1.8183
10170TIP3    H252002   1.368   1.769   3.966  0.9144  1.8116 -3.0241
10171TIP3   OH252003   4.650   0.988  14.158  0.1500 -0.2047  0.0695
10171TIP3    H152004   4.618   0.907  14.198 -1.5079  0.3014 -0.1225
10171TIP3    H252005   4.705   1.029  14.225 -1.0668 -0.2722  1.1504
10172TIP3   OH252006   4.699   1.706   3.350 -0.1209 -0.4794 -0.8074
10172TIP3    H152007   4.604   1.711   3.363 -0.1201  0.2803 -1.0608
10172TIP3    H252008   4.710   1.637   3.284 -0.5117 -0.4147 -0.9428
10173TIP3   OH252009   5.837   0.511  10.838  0.0124 -0.0538  0.2272
10173TIP3    H152010   5.897   0.506  10.764  1.1734  0.6455  1.0763
10173TIP3    H252011   5.806   0.422  10.850  1.2181 -0.5187  0.0188
10174TIP3   OH252012   2.333   6.507   6.745  0.7361 -0.0820  1.0973
10174TIP3    H152013   2.359   6.421   6.778  0.3895  0.0720  1.7953
10174TIP3    H252014   2.291   6.489   6.661  2.5287 -0.3815  0.2235
10175TIP3   OH252015   3.738   0.569   5.236 -0.0415 -0.4580 -0.2190
10175TIP3    H152016   3.762   0.491   5.285  2.4631 -0.3468 -1.1399
10175TIP3    H252017   3.688   0.537   5.161 -1.0526 -0.9199  0.6326
10176TIP3   OH252018   3.907   0.663  15.903  0.3161  0.3249 -0.1014
10176TIP3    H152019   3.918   0.756  15.884 -0.9440  0.2612 -1.2221
10176TIP3    H252020   3.904   0.659  15.999 -0.7829  1.5847 -0.0635
10177TIP3   OH252021   5.108   3.932   0.184  0.3136  0.2934  0.2183
10177TIP3    H152022   5.130   3.846   0.147  1.3489  0.9689 -0.8208
10177TIP3    H252023   5.035   3.915   0.243  1.6229 -1.5949  1.4281
10178TIP3   OH252024   3.267   2.446   3.039 -0.5870 -0.2230  0.1826
10178TIP3    H152025   3.350   2.442   2.991 -0.1672  1.2922  0.7418
10178TIP3    H252026   3.208   2.495   2.981 -0.3602  0.7874  0.7871
10179TIP3   OH252027   2.245   0.924   0.227  0.8638 -0.1441 -0.0433
10179TIP3    H152028   2.298   0.991   0.184  0.5925 -0.3278 -0.6644
10179TIP3    H252029   2.301   0.890   0.297  1.4298 -0.0786 -0.4635
10180TIP3   OH252030   0.583   4.472   4.229  0.1444  0.4614 -0.2261
10180TIP3    H152031   0.620   4.519   4.155  0.2901  0.8283  0.0737
10180TIP3    H252032   0.636   4.501   4.304  0.2539 -0.1973 -0.0404
10181TIP3   OH252033   2.617   1.309  16.521  0.3781  0.0082  0.3917
10181TIP3    H152034   2.649   1.220  16.539  1.6087  0.3198 -0.2150
10181TIP3    H252035   2.654   1.363  16.590 -1.6847 -0.1757  1.7267
10182TIP3   OH252036   2.520   1.928   5.310  0.4543 -0.1759  0.4627
10182TIP3    H152037   2.430   1.900   5.294 -0.1775  0.5349  2.5300
10182TIP3    H252038   2.564   1.851   5.346 -0.5768  0.5595  3.6170
10183TIP3   OH252039   5.948   1.197  12.357  0.1854 -0.3324  0.3084
10183TIP3    H152040   5.979   1.286  12.374  0.5301 -0.7053  1.7646
10183TIP3    H252041   5.889   1.206  12.283  1.8147  0.7909 -0.9113
10184TIP3   OH252042   0.728   3.290  14.949 -0.1069  0.0251 -0.2976
10184TIP3    H152043   0.779   3.335  14.881 -2.0540  0.9137 -1.2624
10184TIP3    H252044   0.686   3.217  14.903 -2.4773  1.3867 -0.4629
10185TIP3   OH252045   3.914   2.724   2.248  0.7231 -0.1349  0.1779
10185TIP3    H152046   4.009   2.715   2.256  0.9205  1.2094 -0.4679
10185TIP3    H252047   3.895   2.812   2.282 -0.5466 -1.0703  2.1068
10186TIP3   OH252048   2.238   0.835  10.851 -0.4433 -0.7716 -0.4748
10186TIP3    H152049   2.300   0.779  10.898  1.4129  0.3680 -1.4201
10186TIP3    H252050   2.188   0.878  10.921 -0.3828 -1.9281  0.3176
10187TIP3   OH252051   0.093   0.449   0.364 -0.6401 -0.1066  0.4670
10187TIP3    H152052   0.113   0.389   0.436  0.2124  0.3550  0.6379
10187TIP3    H252053   0.047   0.396   0.299  0.1719 -0.9579  0.5728
10188TIP3   OH252054   2.500   4.194   5.161 -0.3287 -0.8429  0.2893
10188TIP3    H152055   2.551   4.229   5.088 -0.8651  0.7560  0.6471
10188TIP3    H252056   2.430   4.144   5.119 -1.1335  0.7640 -0.3514
10189TIP3   OH252057   2.593   4.154   6.387  0.0505 -0.0998 -0.3487
10189TIP3    H152058   2.684   4.126   6.373  0.2044  0.6398 -0.8433
10189TIP3    H252059   2.542   4.100   6.327  0.3309  0.5679 -1.1934
10190TIP3   OH252060   2.456   1.755  15.403 -0.2447 -0.1935  0.6333
10190TIP3    H152061   2.445   1.676  15.349  0.6869  0.2720 -0.2714
10190TIP3    H252062   2.532   1.737  15.457 -0.1904 -0.0231  0.6149
10191TIP3   OH252063   0.743   6.723  15.442 -0.0827 -0.1128 -0.0487
10191TIP3    H152064   0.714   6.651  15.386 -1.3783  0.2543  0.1150
10191TIP3    H252065   0.692   6.713  15.522  1.4024 -0.3520  0.9262
10192TIP3   OH252066   3.451   0.563   0.763  0.2542 -0.2708  0.1946
10192TIP3    H152067   3.479   0.635   0.706  0.4401  0.0784  0.7152
10192TIP3    H252068   3.369   0.533   0.725 -0.4613  1.0224  0.6383
10193TIP3   OH252069   1.451   5.418   5.018  0.8856  0.1704  0.2390
10193TIP3    H152070   1.444   5.513   5.028 -0.4699  0.1346 -0.2249
10193TIP3    H252071   1.545   5.401   5.025  1.1686  1.5606  0.1941
10194TIP3   OH252072   6.546   0.786  11.615  0.4571  0.1658 -0.7088
10194TIP3    H152073   6.620   0.836  11.580  0.0205  1.9491  0.7918
10194TIP3    H252074   6.585   0.723  11.674  0.8224  0.9179 -0.1327
10195TIP3   OH252075   3.283   1.268   4.423 -0.5633  0.5628  0.0889
10195TIP3    H152076   3.272   1.350   4.471  0.0132  0.8715 -0.3055
10195TIP3    H252077   3.222   1.208   4.466  1.6290  0.0911  2.8857
10196TIP3   OH252078   3.625   0.237   4.956 -0.2995 -0.7227 -0.3134
10196TIP3    H152079   3.537   0.200   4.959 -0.7436  0.3129 -0.2587
10196TIP3    H252080   3.614   0.321   4.911  0.8286 -1.0338 -1.2202
10197TIP3   OH252081   2.793   0.470   2.297 -0.1276 -0.3111  0.0463
10197TIP3    H152082   2.808   0.384   2.259 -0.2522 -0.1112 -0.4642
10197TIP3    H252083   2.877   0.515   2.290  0.2344 -0.7625  1.3031
10198TIP3   OH252084   1.037   0.892   2.061  0.0857 -0.4191  0.0302
10198TIP3    H152085   1.105   0.959   2.065 -1.6552  1.4309  0.8498
10198TIP3    H252086   1.047   0.842   2.142  0.0420  0.3061  0.4930
10199TIP3   OH252087   2.581   3.683  16.767 -0.2622 -0.1727  0.7387
10199TIP3    H152088   2.535   3.613  16.812 -0.3652 -0.0334  0.8532
10199TIP3    H252089   2.535   3.763  16.794  0.6409  0.0730  1.6453
10200TIP3   OH252090   1.240   5.170   3.466 -1.2457  0.2371  0.6113
10200TIP3    H152091   1.264   5.087   3.425 -2.1986  0.0548  0.4086
10200TIP3    H252092   1.321   5.223   3.463 -1.3481  0.3435 -1.7646
10201TIP3   OH252093   2.255   2.994  12.660 -0.2915 -0.1939  0.3190
10201TIP3    H152094   2.273   3.044  12.580 -2.2341 -0.6683 -0.4682
10201TIP3    H252095   2.301   3.042  12.729  1.9446 -0.1181 -1.1300
10202TIP3   OH252096   0.379   0.304  11.833 -0.2830 -0.2287 -0.3684
10202TIP3    H152097   0.324   0.371  11.793 -0.5545 -0.2034  0.0398
10202TIP3    H252098   0.407   0.249  11.760 -0.1718  0.2486 -0.6856
10203TIP3   OH252099   2.544   3.119   0.882  0.2616 -0.0301  0.9451
10203TIP3    H152100   2.636   3.125   0.907  0.6127 -1.3813  0.0778
10203TIP3    H252101   2.522   3.026   0.892 -0.8132  0.1560  0.4871
10204TIP3   OH252102   2.199   5.026   3.404  0.0472  0.1247 -0.2505
10204TIP3    H152103   2.117   5.009   3.358 -0.2743 -1.4119  0.8170
10204TIP3    H252104   2.262   5.047   3.334 -0.8023 -0.5480 -1.2480
10205TIP3   OH252105   2.207   0.420  10.605  0.4377  0.2341 -0.6689
10205TIP3    H152106   2.274   0.428  10.672 -0.2241  0.3422  0.0019
10205TIP3    H252107   2.230   0.485  10.539  1.3557 -0.1986 -0.7845
10206TIP3   OH252108   1.465   3.029  12.177 -0.4160  0.1005 -1.0648
10206TIP3    H152109   1.471   3.122  12.154 -0.1172 -0.0342 -1.5307
10206TIP3    H252110   1.372   3.015  12.195 -0.3358  0.7085 -0.0625
10207TIP3   OH252111   1.786   1.041  12.770 -0.5821 -0.8055 -0.2654
10207TIP3    H152112   1.825   1.004  12.850  1.0225 -0.5618 -0.8951
10207TIP3    H252113   1.714   0.982  12.749 -0.2233 -1.5968  0.6568
10208TIP3   OH252114   4.283   0.074   4.243 -0.0856 -0.3159 -0.0681
10208TIP3    H152115   4.366   0.032   4.262  0.6057  0.4366 -1.2406
10208TIP3    H252116   4.229   0.005   4.204  0.2980 -0.6135 -0.0729
10209TIP3   OH252117   0.168   1.894  13.870 -0.3674  0.0822  0.3257
10209TIP3    H152118   0.243   1.859  13.823  0.1701  0.8419  0.5978
10209TIP3    H252119   0.181   1.869  13.961 -0.9930 -0.6913  0.2123
10210TIP3   OH252120   4.636   1.797   2.527  0.3014 -0.2000  0.0936
10210TIP3    H152121   4.571   1.860   2.558  0.6478 -0.0184  0.4460
10210TIP3    H252122   4.592   1.712   2.535 -0.0560 -0.0383 -0.1012
10211TIP3   OH252123   3.115   3.984   5.086  0.0098 -0.0258  0.5567
10211TIP3    H152124   3.173   3.918   5.124 -0.1681  1.1573  3.1415
10211TIP3    H252125   3.146   4.067   5.122 -1.4202  0.9878 -0.4168
10212TIP3   OH252126   5.455   2.290   3.519 -0.0922  0.6905 -0.0663
10212TIP3    H152127   5.486   2.202   3.543  1.9276  1.4170  0.1483
10212TIP3    H252128   5.360   2.281   3.514 -0.0420 -1.1632  1.3673
10213TIP3   OH252129   6.627   3.920   5.016  0.6571  0.0945  0.1413
10213TIP3    H152130   6.623   4.001   5.067 -0.9090  0.3956 -0.3906
10213TIP3    H252131   6.564   3.862   5.060  3.0894 -1.5849  1.6576
10214TIP3   OH252132   4.262   0.197   0.411  0.5946 -0.9126  0.3887
10214TIP3    H152133   4.219   0.250   0.344  1.5802  0.0962  0.5207
10214TIP3    H252134   4.326   0.145   0.363  0.5781 -0.9591  0.4172
10215TIP3   OH252135   6.293   3.132   4.188 -0.4685 -0.3349  0.3183
10215TIP3    H152136   6.386   3.111   4.181  0.1930  1.2788  2.8911
10215TIP3    H252137   6.272   3.178   4.107  0.4427 -2.2281 -1.0875
10216TIP3   OH252138   3.794   3.943  15.190  0.1142  0.2341 -0.0200
10216TIP3    H152139   3.709   3.942  15.235  0.0856  1.2692 -0.0132
10216TIP3    H252140   3.857   3.914  15.256 -0.1380  0.2188  0.2158
10217TIP3   OH252141   5.408   3.005  13.251  0.2022 -0.3421  0.0633
10217TIP3    H152142   5.478   2.944  13.227  1.0251  0.1827  1.0245
10217TIP3    H252143   5.376   2.973  13.336 -2.2178 -1.8020 -1.2824
10218TIP3   OH252144   3.781   2.495   2.664 -0.1576  0.3227  0.2793
10218TIP3    H152145   3.869   2.496   2.702  0.1205  0.6605 -0.3529
10218TIP3    H252146   3.783   2.423   2.601 -0.3074  0.3879  0.2005
10219TIP3   OH252147   4.660   2.198  13.099 -0.1098 -0.2246 -0.1477
10219TIP3    H152148   4.572   2.207  13.135 -0.2374  2.1405 -0.9054
10219TIP3    H252149   4.718   2.204  13.175 -0.4886  2.0581  0.0269
10220TIP3   OH252150   6.641   4.608  13.551 -0.2531  0.3616 -0.0272
10220TIP3    H152151   6.699   4.532  13.546  0.7174  1.0560  0.3665
10220TIP3    H252152   6.670   4.664  13.479 -1.5847 -0.0319 -0.9169
10221TIP3   OH252153   4.157   5.397  14.361  0.1241 -0.1605  0.0393
10221TIP3    H152154   4.186   5.487  14.344 -0.2882 -0.4394 -2.3536
10221TIP3    H252155   4.065   5.406  14.386  0.3095  0.1231  0.6610
10222TIP3   OH252156   3.121   1.941  13.438  0.1891  0.3599  0.2188
10222TIP3    H152157   3.075   2.025  13.447 -0.3963  0.0729 -0.0245
10222TIP3    H252158   3.117   1.902  13.526  0.0653  0.3865  0.2244
10223TIP3   OH252159   3.718   2.806   5.276  0.1181  0.6117  0.1105
10223TIP3    H152160   3.680   2.854   5.203 -0.7083  1.6355  1.1677
10223TIP3    H252161   3.689   2.853   5.354  0.8547 -0.5184  1.1202
10224TIP3   OH252162   4.618   0.904  10.734 -0.5273  0.2541 -0.2468
10224TIP3    H152163   4.535   0.856  10.736 -0.7119  0.5932  0.7281
10224TIP3    H252164   4.677   0.854  10.790 -0.7780  1.2348  0.9345
10225TIP3   OH252165   5.089   6.111   0.240  0.1699 -0.7175 -0.1461
10225TIP3    H152166   5.072   6.023   0.273 -1.3741 -0.1285  0.7300
10225TIP3    H252167   5.037   6.118   0.160 -0.6880 -0.2306  0.4305
10226TIP3   OH252168   6.323   6.556  15.992  0.1935 -0.2662 -0.5234
10226TIP3    H152169   6.346   6.551  15.899  1.3203  1.6734 -0.3963
10226TIP3    H252170   6.405   6.538  16.038  0.4050  1.8470  0.0224
10227TIP3   OH252171   4.504   0.352   5.690 -0.0764  0.1361  0.1695
10227TIP3    H152172   4.547   0.383   5.770  0.2147  1.5593 -0.5054
10227TIP3    H252173   4.542   0.265   5.675  1.2127  0.5934  0.6030
10228TIP3   OH252174   0.988   3.954   3.211  0.1143  0.3075  0.1478
10228TIP3    H152175   1.082   3.942   3.220 -0.0982 -1.8196  0.1091
10228TIP3    H252176   0.972   4.044   3.239  1.7458 -0.2400  3.2762
10229TIP3   OH252177   5.293   3.216  12.157  0.3818  0.4874 -0.4058
10229TIP3    H152178   5.293   3.227  12.252  0.5194 -0.7722 -0.2375
10229TIP3    H252179   5.297   3.305  12.122 -1.0986  1.0419  0.7446
10230TIP3   OH252180   1.548   2.287  13.257  0.4380  0.6060 -0.1257
10230TIP3    H152181   1.532   2.273  13.350 -2.1894  1.7754 -0.2881
10230TIP3    H252182   1.518   2.207  13.215  4.2293 -1.1094  0.0774
10231TIP3   OH252183   0.582   4.351  12.661  0.0409 -0.0242 -0.1055
10231TIP3    H152184   0.540   4.410  12.598  0.4453  1.0003  0.5724
10231TIP3    H252185   0.550   4.379  12.746  0.4713 -0.5882  0.2492
10232TIP3   OH252186   6.310   5.636   3.318 -0.1183 -0.2926 -0.1139
10232TIP3    H152187   6.394   5.595   3.336  0.4555  0.9743  0.1974
10232TIP3    H252188   6.250   5.598   3.382  0.6097  0.0103  0.7615
10233TIP3   OH252189   3.693   1.416  11.272  0.0237 -0.5465  0.1109
10233TIP3    H152190   3.698   1.410  11.177  0.7119  1.6413 -0.0482
10233TIP3    H252191   3.602   1.397  11.292 -0.0611 -1.3516 -0.9460
10234TIP3   OH252192   0.751   4.276  13.537  0.0115 -0.5008  0.2182
10234TIP3    H152193   0.783   4.344  13.597  0.3980 -2.1677  1.9937
10234TIP3    H252194   0.686   4.321  13.483  0.0536  1.2233  1.5057
10235TIP3   OH252195   6.662   2.455  12.694 -0.0033  0.2193 -0.3114
10235TIP3    H152196   6.621   2.447  12.608 -0.4187 -0.2914 -0.0732
10235TIP3    H252197   6.621   2.386  12.746 -1.2238  1.7692  0.8835
10236TIP3   OH252198   5.103   2.500  14.213  0.3874 -0.1497 -0.2152
10236TIP3    H152199   5.042   2.523  14.282  0.0287  1.5778 -1.0506
10236TIP3    H252200   5.108   2.578  14.158  1.2456 -1.2006 -1.7123
10237TIP3   OH252201   5.871   4.519   3.352  0.2474 -0.0466 -0.0597
10237TIP3    H152202   5.871   4.599   3.300  0.9257 -0.5576 -0.8725
10237TIP3    H252203   5.927   4.538   3.426  0.1195  0.3442 -0.0605
10238TIP3   OH252204   5.061   6.500  13.197 -0.7524  0.6533 -0.1562
10238TIP3    H152205   4.970   6.525  13.185 -0.8885  0.7513  0.9678
10238TIP3    H252206   5.104   6.523  13.114 -1.8678 -0.0442 -0.9579
10239TIP3   OH252207   1.212   1.496   6.275 -0.5809  0.0657  0.1835
10239TIP3    H152208   1.141   1.476   6.337 -0.0312 -0.2797  0.7051
10239TIP3    H252209   1.240   1.584   6.299 -0.7662  0.1667  0.0354
10240TIP3   OH252210   5.050   0.495   5.414  0.3342  0.1050  0.5326
10240TIP3    H152211   5.070   0.448   5.334 -0.5357  1.5338 -0.5823
10240TIP3    H252212   5.128   0.547   5.432 -0.0822  1.0884 -0.3934
10241TIP3   OH252213   1.416   5.687  10.915 -0.0979  0.5635  0.2183
10241TIP3    H152214   1.418   5.738  10.997  0.9226 -0.3812  0.8130
10241TIP3    H252215   1.328   5.650  10.912  0.1839 -0.2654  1.4641
10242TIP3   OH252216   5.328   6.349   3.261 -0.1165 -0.6488  0.7891
10242TIP3    H152217   5.406   6.386   3.301  0.6148 -1.7684  0.4530
10242TIP3    H252218   5.280   6.309   3.334  0.0559 -0.7114  0.8664
10243TIP3   OH252219   3.587   3.859   1.822 -0.1533 -0.1627 -0.0986
10243TIP3    H152220   3.593   3.905   1.739  0.1177 -0.3930 -0.2085
10243TIP3    H252221   3.495   3.834   1.829 -0.5806  1.5123  0.5771
10244TIP3   OH252222   3.704   3.829   2.597 -0.1121  0.0596 -0.8086
10244TIP3    H152223   3.747   3.749   2.566 -1.0628 -0.9441  0.3900
10244TIP3    H252224   3.642   3.850   2.527 -2.1470 -2.1154  0.2191
10245TIP3   OH252225   2.680   0.221  14.394 -0.1134  0.0960  0.7344
10245TIP3    H152226   2.600   0.263  14.363 -0.0856  0.0975  0.6647
10245TIP3    H252227   2.703   0.269  14.474  0.2394  0.5963  0.3367
10246TIP3   OH252228   2.397   5.718  17.665  0.3666  0.5290  0.2808
10246TIP3    H152229   2.477   5.669  17.683  1.3854  1.7170 -0.7883
10246TIP3    H252230   2.327   5.654  17.674  1.4684 -0.6308  0.8872
10247TIP3   OH252231   2.799   5.969  12.566  0.9805  0.1899 -0.4219
10247TIP3    H152232   2.774   5.877  12.575 -1.2625  0.8914  1.9178
10247TIP3    H252233   2.779   5.991  12.475  0.4287 -1.3405 -0.7019
10248TIP3   OH252234   1.662   3.139  13.309  0.0265  0.0356  0.0205
10248TIP3    H152235   1.678   3.045  13.305 -2.6503 -0.4886 -0.4793
10248TIP3    H252236   1.610   3.151  13.389 -0.4572  0.9186 -0.4079
10249TIP3   OH252237   1.410   3.798  15.858 -0.3119 -0.4087  0.2478
10249TIP3    H152238   1.497   3.801  15.899 -0.2045  1.1395 -0.0269
10249TIP3    H252239   1.389   3.889  15.840 -3.0275 -0.4839  2.4084
10250TIP3   OH252240   0.033   1.695  12.375  0.0978  0.4782  0.3278
10250TIP3    H152241   0.066   1.768  12.324 -1.5498  1.8235  1.1086
10250TIP3    H252242   0.061   1.713  12.465  1.7636 -1.1387  0.1832
10251TIP3   OH252243   5.383   3.845  17.483 -0.3947  0.1752 -0.7935
10251TIP3    H152244   5.422   3.765  17.448 -0.3147  0.8292 -2.2832
10251TIP3    H252245   5.408   3.913  17.420 -1.3464  1.1744 -0.1241
10252TIP3   OH252246   2.325   3.669  16.939 -0.4803 -0.4418 -0.6084
10252TIP3    H152247   2.267   3.720  16.882 -0.6585 -0.4566 -0.4407
10252TIP3    H252248   2.270   3.597  16.971 -0.4719 -0.2522 -0.1624
10253TIP3   OH252249   6.347   5.927  16.960 -0.3611 -0.2997 -0.2420
10253TIP3    H152250   6.389   5.964  17.038  0.0752  1.4393 -1.2553
10253TIP3    H252251   6.266   5.888  16.994 -1.2635  2.2695  0.9000
10254TIP3   OH252252   3.590   5.867   2.480  0.0688  0.1716 -0.0279
10254TIP3    H152253   3.511   5.825   2.513 -1.4653  2.4579 -0.5200
10254TIP3    H252254   3.575   5.961   2.496  2.3699  0.7288 -0.8027
10255TIP3   OH252255   1.584   2.263   3.259  0.2997  0.0572 -0.2187
10255TIP3    H152256   1.505   2.221   3.293 -0.1189  0.9788 -0.0107
10255TIP3    H252257   1.636   2.282   3.337 -0.6820  2.2174  0.0130
10256TIP3   OH252258   1.759   4.195   5.386  0.0422  0.2121  0.2007
10256TIP3    H152259   1.810   4.244   5.451  1.3972 -0.0538 -0.6294
10256TIP3    H252260   1.733   4.115   5.430 -1.2732  1.1634  1.2287
10257TIP3   OH252261   3.289   3.453  16.074 -0.0895 -0.2391  0.1022
10257TIP3    H152262   3.225   3.384  16.086 -0.2314  0.1186  1.5654
10257TIP3    H252263   3.363   3.428  16.130  0.6458 -0.1513 -0.8025
10258TIP3   OH252264   0.582   4.061  14.950  0.0276 -0.4546 -0.0007
10258TIP3    H152265   0.607   4.153  14.960 -2.4076  0.6344 -2.4790
10258TIP3    H252266   0.659   4.019  14.914  0.2964  1.4110 -1.8514
10259TIP3   OH252267   4.039   0.091   4.913 -0.1937  0.3429 -0.9505
10259TIP3    H152268   4.125   0.109   4.952 -0.3221  1.3830 -1.1177
10259TIP3    H252269   4.050   0.110   4.820 -0.0868 -1.4362 -1.3412
10260TIP3   OH252270   3.911   1.906  12.785  0.3508  0.3051 -0.0782
10260TIP3    H152271   3.837   1.851  12.759  0.6263  0.8135 -2.1307
10260TIP3    H252272   3.874   1.993  12.797  0.0830 -0.0645  2.2403
10261TIP3   OH252273   4.565   3.285  16.864  0.1605  0.6765  0.3065
10261TIP3    H152274   4.470   3.271  16.864  0.3946 -1.2744  1.2816
10261TIP3    H252275   4.598   3.226  16.931  2.2148  0.4065 -0.8561
10262TIP3   OH252276   5.287   6.630   1.467 -0.3216  0.7307 -0.0803
10262TIP3    H152277   5.291   6.689   1.542  0.2004  1.8552 -0.9718
10262TIP3    H252278   5.206   6.581   1.480 -0.0235  0.5946  1.4360
10263TIP3   OH252279   2.499   2.622   3.940 -0.0887  0.2525 -0.1845
10263TIP3    H152280   2.473   2.701   3.892 -1.0654  0.9082  1.3606
10263TIP3    H252281   2.551   2.655   4.013  1.5224 -0.7460 -0.8268
10264TIP3   OH252282   1.974   5.573  15.595  0.5405 -0.2531  0.7412
10264TIP3    H152283   2.040   5.510  15.624  0.8245 -0.1540  0.3199
10264TIP3    H252284   2.022   5.655  15.587  0.5218 -0.3297 -0.2340
10265TIP3   OH252285   2.939   1.318  16.165 -0.1810  0.3340 -0.2725
10265TIP3    H152286   2.917   1.315  16.071 -0.1274 -0.6539 -0.2586
10265TIP3    H252287   2.858   1.293  16.209  0.1683 -0.5618 -0.1166
10266TIP3   OH252288   2.609   4.415   6.332 -0.0565 -0.2753 -0.2312
10266TIP3    H152289   2.655   4.414   6.416  1.2326  0.0743 -0.9231
10266TIP3    H252290   2.569   4.328   6.326 -0.5659 -0.1542  0.9380
10267TIP3   OH252291   1.341   3.596  15.701 -0.1539  0.2196 -0.3423
10267TIP3    H152292   1.335   3.613  15.607 -0.2817  0.5056 -0.2842
10267TIP3    H252293   1.362   3.682  15.739  0.8090 -0.0638 -0.2041
10268TIP3   OH252294   0.101   1.791   5.141  0.0476  0.1836 -0.5516
10268TIP3    H152295   0.073   1.709   5.101  1.8357  0.5150 -2.6806
10268TIP3    H252296   0.022   1.844   5.143 -0.9937 -1.3240  0.2527
10269TIP3   OH252297   5.296   3.790   3.009 -0.6382 -0.2203 -0.1852
10269TIP3    H152298   5.309   3.857   2.942  0.2961 -0.2159 -0.0196
10269TIP3    H252299   5.340   3.826   3.087  0.5922 -1.3623 -0.3170
10270TIP3   OH252300   2.471   1.785   6.042  0.1949 -0.3287  0.0486
10270TIP3    H152301   2.497   1.734   6.119  1.7225 -0.3821 -0.4656
10270TIP3    H252302   2.406   1.847   6.075 -0.8652 -1.8284  0.9223
10271TIP3   OH252303   1.380   1.341  12.100 -0.4718 -0.3726 -0.6146
10271TIP3    H152304   1.345   1.430  12.108 -0.2956 -0.3744  0.2364
10271TIP3    H252305   1.329   1.289  12.162 -0.8148 -0.9518 -1.3594
10272TIP3   OH252306   5.650   4.957   3.595 -0.6117 -0.0150  0.9761
10272TIP3    H152307   5.600   5.001   3.664  0.8018  0.6334  1.6266
10272TIP3    H252308   5.724   4.918   3.640  0.8273  1.1720 -0.2492
10273TIP3   OH252309   4.456   2.931   4.835  0.3913 -0.2512 -0.5108
10273TIP3    H152310   4.470   3.003   4.774 -1.0973  0.5935  0.0816
10273TIP3    H252311   4.512   2.951   4.910 -0.8183  0.9476  0.1320
10274TIP3   OH252312   2.093   1.229   1.248  0.3291  0.0668 -0.1719
10274TIP3    H152313   2.151   1.302   1.268 -0.0128  0.3869 -0.3391
10274TIP3    H252314   2.084   1.182   1.331 -0.7819  1.1710  0.3566
10275TIP3   OH252315   0.942   5.020   0.122  0.1283 -0.1311  0.0326
10275TIP3    H152316   0.965   5.056   0.208  0.6767 -1.1765  0.3436
10275TIP3    H252317   1.027   4.998   0.083 -0.2047 -1.4083  0.0099
10276TIP3   OH252318   3.317   6.336   4.198 -0.0175  0.3624 -0.4407
10276TIP3    H152319   3.242   6.278   4.184  0.0101  0.2167  0.0030
10276TIP3    H252320   3.279   6.415   4.237  0.1910 -0.1496  0.8347
10277TIP3   OH252321   2.768   5.468  16.499  0.2770  0.3557 -0.6485
10277TIP3    H152322   2.688   5.420  16.478  0.7649 -1.0510  0.5234
10277TIP3    H252323   2.762   5.487  16.592  1.4774 -0.1321 -0.4490
10278TIP3   OH252324   6.498   5.474  16.611  0.7289 -0.1194 -0.3499
10278TIP3    H152325   6.585   5.514  16.606 -0.4760  2.7672 -0.1043
10278TIP3    H252326   6.441   5.544  16.642 -2.0427 -1.3269 -2.2847
10279TIP3   OH252327   2.775   1.715   3.591 -0.4211  0.2715  0.2657
10279TIP3    H152328   2.732   1.794   3.624  0.4169  1.3253 -1.0215
10279TIP3    H252329   2.737   1.702   3.504  0.3488  0.0079 -0.0415
10280TIP3   OH252330   1.744   2.134   5.522 -0.1658 -0.3544  0.6249
10280TIP3    H152331   1.820   2.090   5.560  1.1076  2.3714  1.4979
10280TIP3    H252332   1.710   2.188   5.594 -2.0998 -0.4638 -0.1621
10281TIP3   OH252333   2.500   3.532  17.164  0.2212 -0.0327 -0.3592
10281TIP3    H152334   2.531   3.508  17.077  0.9545 -0.7546  0.0779
10281TIP3    H252335   2.472   3.623  17.156 -1.6104 -0.6554 -1.8330
10282TIP3   OH252336   0.381   5.942  15.227 -0.1819 -0.4407  0.0282
10282TIP3    H152337   0.470   5.920  15.254 -0.0091 -2.9075 -2.1758
10282TIP3    H252338   0.391   5.979  15.139 -1.2672  0.5872  0.3095
10283TIP3   OH252339   4.081   3.039  16.105  0.6538  0.2506  0.0585
10283TIP3    H152340   4.160   3.062  16.152  0.3929  0.6116  0.3220
10283TIP3    H252341   4.012   3.091  16.146  0.2522 -0.1755 -0.0636
10284TIP3   OH252342   5.027   1.952   6.329  0.2034 -0.0741 -0.6688
10284TIP3    H152343   5.105   2.007   6.332  1.9169 -2.3760  0.8010
10284TIP3    H252344   5.014   1.924   6.419 -3.2049  1.2661 -0.6266
10285TIP3   OH252345   2.918   2.060  13.074  0.1047 -0.5072 -0.4101
10285TIP3    H152346   2.949   2.005  13.003  0.3887 -0.0279 -0.6633
10285TIP3    H252347   2.897   2.144  13.033  0.7705 -0.0562  0.1474
10286TIP3   OH252348   3.564   3.612   0.337 -0.1863 -0.2547 -0.3312
10286TIP3    H152349   3.503   3.657   0.395 -0.2956  1.7821 -1.9113
10286TIP3    H252350   3.577   3.526   0.377 -2.8449 -0.1689  0.8930
10287TIP3   OH252351   2.123   6.573  14.740  0.0746  0.0158  0.0029
10287TIP3    H152352   2.151   6.497  14.687 -0.9654 -0.5982  0.3103
10287TIP3    H252353   2.163   6.558  14.825  1.4357  0.8099 -0.4624
10288TIP3   OH252354   2.440   2.762  15.476 -0.6982  0.6724  0.8074
10288TIP3    H152355   2.458   2.856  15.467 -0.8480  0.5360 -1.2192
10288TIP3    H252356   2.385   2.740  15.401  1.0810 -1.4794  0.0338
10289TIP3   OH252357   3.781   1.110   5.059  0.8157  0.1455  0.5148
10289TIP3    H152358   3.744   1.158   5.133 -0.9859 -0.5739  0.1380
10289TIP3    H252359   3.763   1.018   5.079 -0.9363  0.0011 -1.3992
10290TIP3   OH252360   6.698   4.568  14.182 -0.0776  0.6921 -0.5132
10290TIP3    H152361   6.790   4.563  14.156 -0.3618 -1.1243 -1.3880
10290TIP3    H252362   6.650   4.568  14.099 -0.8954  0.8140 -0.0555
10291TIP3   OH252363   1.336   3.218   1.328 -0.1944 -0.1200  0.1614
10291TIP3    H152364   1.355   3.281   1.398  1.7370  0.4917 -0.8243
10291TIP3    H252365   1.418   3.170   1.317  0.0513  0.7552 -2.5872
10292TIP3   OH252366   0.505   2.009  12.835 -0.3134  0.0837  0.0520
10292TIP3    H152367   0.455   2.077  12.881 -1.0414 -0.7097  0.4604
10292TIP3    H252368   0.448   1.932  12.837 -1.2327  0.4724 -3.8841
10293TIP3   OH252369   0.613   1.939   3.575 -0.1586 -0.4643 -0.1090
10293TIP3    H152370   0.625   2.016   3.631  1.2464  1.0841 -2.3739
10293TIP3    H252371   0.526   1.950   3.537  0.0990  0.1059 -0.5429
10294TIP3   OH252372   2.721   0.508  11.881 -0.2548  0.7415  0.4386
10294TIP3    H152373   2.762   0.429  11.916 -1.0413  0.2969  0.3851
10294TIP3    H252374   2.759   0.519  11.794 -1.3630 -0.5744 -0.2633
10295TIP3   OH252375   3.967   1.397   1.420 -0.0072  0.5496 -0.6425
10295TIP3    H152376   3.992   1.306   1.429 -0.9798  0.4285  1.3176
10295TIP3    H252377   3.872   1.395   1.407  0.2402  1.2091 -3.3022
10296TIP3   OH252378   6.695   6.229   4.911  0.3602 -0.0109 -0.4676
10296TIP3    H152379   6.786   6.225   4.942  0.6438  0.0203 -1.2700
10296TIP3    H252380   6.702   6.230   4.816 -0.4371  1.0745 -0.5373
10297TIP3   OH252381   4.081   4.535   4.876  0.3900 -0.5457  0.2260
10297TIP3    H152382   4.071   4.447   4.912  0.7698 -0.5425  0.3485
10297TIP3    H252383   4.163   4.567   4.913  1.3036 -0.9032 -1.3792
10298TIP3   OH252384   5.698   5.111  16.381  0.0568  0.7469  0.2265
10298TIP3    H152385   5.726   5.183  16.437 -0.6730  1.3970 -0.2312
10298TIP3    H252386   5.603   5.121  16.373  0.1178  0.5558 -0.9703
10299TIP3   OH252387   5.688   4.670   3.993 -0.2392 -0.0907 -0.6474
10299TIP3    H152388   5.697   4.575   3.999 -1.2631 -0.1588  0.1143
10299TIP3    H252389   5.681   4.700   4.084  0.2897  0.7368 -0.8702
10300TIP3   OH252390   0.806   6.303  16.232 -0.3179 -0.0070  0.0216
10300TIP3    H152391   0.711   6.309  16.239 -0.2313  1.1016  0.4548
10300TIP3    H252392   0.824   6.311  16.138 -0.6705 -0.5275 -0.0906
10301TIP3   OH252393   5.423   4.704  17.513 -0.0865 -0.4430 -0.1911
10301TIP3    H152394   5.501   4.677  17.561 -0.5599 -0.4710  0.5849
10301TIP3    H252395   5.355   4.641  17.540 -0.8798  0.7277  0.6913
10302TIP3   OH252396   4.710   6.465  12.213  0.1738 -0.6553  0.4221
10302TIP3    H152397   4.769   6.430  12.146  1.2365 -1.0918  1.5503
10302TIP3    H252398   4.699   6.557  12.189  1.3058 -0.5697  0.1774
10303TIP3   OH252399   0.162   4.082  11.715 -0.2379  0.3782  0.4250
10303TIP3    H152400   0.071   4.054  11.730  0.2649 -0.3749  2.4890
10303TIP3    H252401   0.165   4.108  11.623 -2.0779 -1.3638 -0.1909
10304TIP3   OH252402   4.545   3.026  13.533 -0.0679 -0.3228 -0.3232
10304TIP3    H152403   4.516   3.117  13.538 -1.4488 -0.7583  0.0099
10304TIP3    H252404   4.537   3.003  13.440 -2.5424 -0.9428 -0.0194
10305TIP3   OH252405   6.343   3.250   4.693 -0.8301  0.1657 -0.3850
10305TIP3    H152406   6.283   3.200   4.749  0.1047  1.0042  1.4741
10305TIP3    H252407   6.337   3.340   4.727  3.0738 -0.0782  1.4413
10306TIP3   OH252408   3.204   1.454  14.881  0.1328  0.0603  0.4173
10306TIP3    H152409   3.212   1.546  14.856  2.4799  0.4507  2.3212
10306TIP3    H252410   3.218   1.406  14.799 -3.2271  1.2800 -1.0698
10307TIP3   OH252411   0.497   3.332   0.288  0.4421  0.5257  0.0399
10307TIP3    H152412   0.555   3.364   0.356 -0.8024 -1.2905  2.0626
10307TIP3    H252413   0.408   3.345   0.323 -0.3785  1.6694 -2.2395
10308TIP3   OH252414   2.971   5.218  14.897  0.5046  0.3825 -0.5218
10308TIP3    H152415   2.944   5.126  14.902  0.4153  0.3902 -0.8380
10308TIP3    H252416   2.961   5.251  14.986  0.8621 -0.0053 -0.3344
10309TIP3   OH252417   5.428   0.197   2.520  0.2254 -0.2527 -0.1773
10309TIP3    H152418   5.345   0.237   2.495 -0.1048  0.2634  1.6425
10309TIP3    H252419   5.417   0.172   2.611  1.4633 -1.8450 -0.4178
10310TIP3   OH252420   2.582   4.579   4.240  0.8399 -0.2191 -0.4301
10310TIP3    H152421   2.564   4.673   4.237  1.1879 -0.1157  0.4227
10310TIP3    H252422   2.624   4.565   4.325 -0.8893 -1.4381  0.2738
10311TIP3   OH252423   5.650   0.834  16.921 -0.4327 -0.4930 -0.1340
10311TIP3    H152424   5.670   0.747  16.954  0.3305 -0.1026  0.4438
10311TIP3    H252425   5.726   0.859  16.869 -0.2138  0.2215  0.5061
10312TIP3   OH252426   2.848   2.275   4.750  0.9559 -0.1433 -0.4253
10312TIP3    H152427   2.925   2.272   4.693  0.9638  2.1054 -0.6308
10312TIP3    H252428   2.784   2.217   4.708  2.8436 -3.0040  0.3711
10313TIP3   OH252429   6.465   4.858  16.515 -0.5272 -0.6916  0.2134
10313TIP3    H152430   6.399   4.790  16.535 -2.1797  0.8446  0.2453
10313TIP3    H252431   6.522   4.858  16.592 -0.8208 -1.6685  0.4523
10314TIP3   OH252432   3.791   3.237  16.901 -0.4436  0.4851 -0.5136
10314TIP3    H152433   3.869   3.291  16.886 -0.2149  0.4023  0.3723
10314TIP3    H252434   3.743   3.282  16.970 -1.1301  0.4682 -0.9622
10315TIP3   OH252435   6.100   6.116  16.645 -0.5236 -0.0793  0.1014
10315TIP3    H152436   6.083   6.027  16.612 -2.3090  1.1985 -2.9142
10315TIP3    H252437   6.013   6.155  16.654  0.2307  1.4815  1.0052
10316TIP3   OH252438   4.383   5.907  13.951 -0.2610  0.3859 -0.0754
10316TIP3    H152439   4.350   5.980  14.003  2.5157  1.3336  0.5224
10316TIP3    H252440   4.335   5.913  13.868 -1.9843  1.2250  0.9356
10317TIP3   OH252441   0.316   5.179  16.924  0.3440  1.0114  1.0828
10317TIP3    H152442   0.313   5.224  16.839 -0.5539  0.2197  0.6683
10317TIP3    H252443   0.286   5.090  16.904  1.3584  0.4379  2.0131
10318TIP3   OH252444   2.636   2.778  13.813  0.3548  0.4569 -0.2291
10318TIP3    H152445   2.546   2.807  13.825 -0.1669 -0.0226 -2.5446
10318TIP3    H252446   2.681   2.853  13.774  0.2594 -0.1556 -1.5595
10319TIP3   OH252447   0.220   3.275  14.822 -0.3210 -0.3744 -0.3342
10319TIP3    H152448   0.266   3.214  14.879 -0.6985 -0.8183 -0.4913
10319TIP3    H252449   0.273   3.354  14.823 -1.3957  0.4223  2.3335
10320TIP3   OH252450   6.084   0.639   4.503  0.0411  0.5976  0.6780
10320TIP3    H152451   6.003   0.627   4.551 -0.2765  0.1194  0.0279
10320TIP3    H252452   6.073   0.589   4.422  0.1396  2.2243 -0.3940
10321TIP3   OH252453   2.060   3.198  14.207  0.3311  0.1171  0.8049
10321TIP3    H152454   2.086   3.279  14.162 -0.6308  0.5997  1.1034
10321TIP3    H252455   2.023   3.143  14.138  2.5703 -0.8143  0.2572
10322TIP3   OH252456   0.738   5.139   2.693 -0.3661  0.1170 -0.1655
10322TIP3    H152457   0.681   5.186   2.754 -1.9512 -1.7907 -0.0662
10322TIP3    H252458   0.773   5.065   2.744 -0.1277 -0.3832 -1.0267
10323TIP3   OH252459   0.535   3.468   4.831 -0.2865 -0.0686  0.0444
10323TIP3    H152460   0.609   3.419   4.796 -0.5418 -0.4036 -0.0252
10323TIP3    H252461   0.569   3.557   4.844  0.0617 -0.1672 -0.1957
10324TIP3   OH252462   1.780   3.663   6.504  0.2310 -0.0911  0.2765
10324TIP3    H152463   1.710   3.610   6.544 -1.0899  1.5138  0.2015
10324TIP3    H252464   1.860   3.613   6.521 -0.4790 -0.4385  3.3100
10325TIP3   OH252465   3.049   4.971   2.301  0.2139  0.3634  0.4196
10325TIP3    H152466   3.128   4.940   2.346 -0.2141  0.7906  1.5113
10325TIP3    H252467   3.078   4.992   2.213  1.4869  1.2188  1.0164
10326TIP3   OH252468   3.490   2.557  14.345 -0.3823 -0.3296  0.3846
10326TIP3    H152469   3.585   2.554  14.332 -0.1200  3.4064  0.3623
10326TIP3    H252470   3.476   2.514  14.430  1.2798 -1.0423  0.3415
10327TIP3   OH252471   1.606   2.459  14.977 -0.6089 -0.0241 -0.0430
10327TIP3    H152472   1.545   2.420  15.040  0.8108 -1.7297  0.3622
10327TIP3    H252473   1.622   2.547  15.011 -1.9814  0.0518  0.4430
10328TIP3   OH252474   3.327   6.495  16.137 -0.2695 -0.5447  0.0346
10328TIP3    H152475   3.232   6.492  16.141 -0.3167  0.5188  0.1099
10328TIP3    H252476   3.354   6.530  16.222  0.0246  1.4043 -0.7921
10329TIP3   OH252477   5.893   6.672  12.574 -0.1769 -0.1892  0.2601
10329TIP3    H152478   5.863   6.753  12.615  1.0626  0.0008  0.8297
10329TIP3    H252479   5.892   6.690  12.480 -0.5858  0.2363  0.3454
10330TIP3   OH252480   2.830   6.153   5.519  0.1196  0.4753 -0.1331
10330TIP3    H152481   2.909   6.202   5.497  0.8698 -0.5460  0.2143
10330TIP3    H252482   2.777   6.155   5.439  1.1385 -0.0331 -0.8469
10331TIP3   OH252483   4.616   5.965  12.705 -0.0877 -0.1579 -0.0131
10331TIP3    H152484   4.573   5.994  12.624 -1.1938 -0.1108  0.5659
10331TIP3    H252485   4.614   5.870  12.701 -0.1257 -0.1556 -0.0545
10332TIP3   OH252486   6.151   3.860  14.143  0.2717 -0.0536 -0.1717
10332TIP3    H152487   6.174   3.953  14.154  0.0174 -0.0229  0.1074
10332TIP3    H252488   6.228   3.812  14.173 -1.0711 -0.0491  3.8136
10333TIP3   OH252489   1.583   6.169  15.476  0.2375 -0.2153  0.2917
10333TIP3    H152490   1.670   6.156  15.438  0.2086  0.3003  0.0462
10333TIP3    H252491   1.593   6.243  15.535  0.2909 -1.0330  1.3441
10334TIP3   OH252492   4.457   0.096   6.055  0.2992  0.5816  0.5966
10334TIP3    H152493   4.552   0.097   6.066  0.5376 -0.3381 -1.1074
10334TIP3    H252494   4.428   0.016   6.098  0.2468  0.9165  1.2124
10335TIP3   OH252495   1.163   3.845   4.048 -0.1367  0.0044  0.4452
10335TIP3    H152496   1.072   3.816   4.062 -0.0910  0.0526  0.8501
10335TIP3    H252497   1.164   3.936   4.078  0.0709 -0.0292  0.5406
10336TIP3   OH252498   3.565   3.319   3.336  0.1432 -0.4640  0.2769
10336TIP3    H152499   3.609   3.240   3.304 -0.5027 -1.3068  1.4140
10336TIP3    H252500   3.544   3.368   3.257  1.6338 -0.8239 -0.3855
10337TIP3   OH252501   2.761   6.150  16.738 -0.3827  0.0025 -0.2477
10337TIP3    H152502   2.805   6.130  16.655 -1.0472 -1.7756 -0.2255
10337TIP3    H252503   2.820   6.116  16.805 -0.0479  1.0498  0.0008
10338TIP3   OH252504   6.482   2.455  17.273 -0.0676 -0.0225  0.0839
10338TIP3    H152505   6.415   2.518  17.300  0.4007  0.6610 -0.3187
10338TIP3    H252506   6.565   2.499  17.293  0.3299 -1.8344  2.9298
10339TIP3   OH252507   3.772   5.984   3.767  0.3474 -0.1232 -0.1273
10339TIP3    H152508   3.811   6.043   3.703  0.5240 -1.5692 -1.4310
10339TIP3    H252509   3.795   5.896   3.735 -0.9327 -0.9232  1.0410
10340TIP3   OH252510   6.200   0.497  12.407 -0.2099  0.2057 -0.3479
10340TIP3    H152511   6.216   0.434  12.477 -1.4361  0.8154  0.5282
10340TIP3    H252512   6.191   0.581  12.452 -1.5794  0.5206 -1.1576
10341TIP3   OH252513   5.365   4.877  12.664 -0.3912 -0.1461 -0.0076
10341TIP3    H152514   5.373   4.845  12.754 -0.6345  0.1657  0.1239
10341TIP3    H252515   5.273   4.902  12.655 -0.3304 -0.0231 -0.2942
10342TIP3   OH252516   4.791   3.401   5.391  0.7985  0.2823 -0.7332
10342TIP3    H152517   4.792   3.463   5.463 -0.7368 -2.2276  1.6302
10342TIP3    H252518   4.737   3.442   5.324  1.3807  2.2322 -0.0632
10343TIP3   OH252519   2.950   1.449  12.504  0.5561  0.0871  0.0481
10343TIP3    H152520   2.868   1.499  12.499  0.7533  0.4745  0.6377
10343TIP3    H252521   2.922   1.358  12.498 -0.0788  0.1328  1.6893
10344TIP3   OH252522   4.091   1.426   4.299  0.2538 -0.2754 -0.1773
10344TIP3    H152523   4.182   1.404   4.321  0.4993 -0.6422 -1.4711
10344TIP3    H252524   4.058   1.347   4.255 -0.6865 -0.1338  0.2699
10345TIP3   OH252525   5.590   5.012   4.077 -0.9112  0.0164  0.3359
10345TIP3    H152526   5.634   4.938   4.118  0.6408  0.4362 -0.4580
10345TIP3    H252527   5.542   5.054   4.148  0.3715 -0.2092  1.3882
10346TIP3   OH252528   2.684   2.710  12.431 -0.2828  0.0234 -0.2759
10346TIP3    H152529   2.613   2.658  12.394 -0.6207 -0.5339  1.1207
10346TIP3    H252530   2.755   2.701  12.366 -0.6560 -1.4035 -0.5327
10347TIP3   OH252531   2.282   4.269   5.854  0.0207 -0.0416  0.0542
10347TIP3    H152532   2.231   4.205   5.904  1.6630 -1.2704  0.2704
10347TIP3    H252533   2.296   4.227   5.769  2.3656 -0.7171  0.6947
10348TIP3   OH252534   5.903   2.794  13.768 -0.2217  0.4025 -0.6586
10348TIP3    H152535   5.922   2.847  13.845 -0.6352  0.1017 -0.3482
10348TIP3    H252536   5.973   2.816  13.706  0.2387  0.4691 -0.1187
10349TIP3   OH252537   3.439   3.628  17.441  0.4958  0.3008  0.4743
10349TIP3    H152538   3.454   3.700  17.380  1.9483 -0.9708 -0.7676
10349TIP3    H252539   3.419   3.553  17.384 -1.2381 -0.2501  1.7350
10350TIP3   OH252540   6.273   0.381  11.888 -0.7295  0.5948  0.2532
10350TIP3    H152541   6.325   0.300  11.890  1.8573  2.1528  1.5037
10350TIP3    H252542   6.258   0.402  11.980 -2.8856  0.7176 -0.0717
10351TIP3   OH252543   5.051   6.126  13.965  0.4484 -0.1521 -0.2561
10351TIP3    H152544   4.984   6.162  13.907 -0.3800  0.6605  1.1537
10351TIP3    H252545   5.030   6.033  13.972 -0.1809 -0.0156 -0.2969
10352TIP3   OH252546   1.413   5.370   4.543 -0.2755 -0.3139  0.2073
10352TIP3    H152547   1.494   5.326   4.518 -0.3241  0.6549 -1.8887
10352TIP3    H252548   1.441   5.458   4.571 -0.6317  0.3905 -1.5296
10353TIP3   OH252549   4.711   1.968  15.443  0.2909 -0.5158  0.0762
10353TIP3    H152550   4.653   2.044  15.438  2.2188  0.9702 -1.0910
10353TIP3    H252551   4.688   1.915  15.367 -0.5038 -0.6997  0.4348
10354TIP3   OH252552   6.477   3.105   3.810 -0.2400  0.4097 -0.1588
10354TIP3    H152553   6.528   3.078   3.734 -0.5358 -0.2774 -0.1193
10354TIP3    H252554   6.493   3.199   3.817 -0.2395  0.4939 -1.0995
10355TIP3   OH252555   3.866   2.862   4.234 -0.1399  0.0657  0.2938
10355TIP3    H152556   3.783   2.904   4.255  0.0649  1.3964 -1.4059
10355TIP3    H252557   3.851   2.769   4.254 -1.5497  0.4803  1.3251
10356TIP3   OH252558   1.710   0.017   3.233  0.0380 -0.0829 -0.8018
10356TIP3    H152559   1.691   0.076   3.161  0.5854  0.2224 -0.7029
10356TIP3    H252560   1.786   0.056   3.277 -1.3352  0.6967  0.9954
10357TIP3   OH252561   2.357   4.798   3.890 -0.1937  0.2907 -0.3146
10357TIP3    H152562   2.319   4.787   3.803  0.2260  2.5952 -0.8768
10357TIP3    H252563   2.286   4.836   3.942 -0.1765 -0.2322  0.0890
10358TIP3   OH252564   3.252   2.029   5.596 -0.5025  0.2832 -0.3485
10358TIP3    H152565   3.314   1.967   5.557 -1.9029 -0.4698 -1.4815
10358TIP3    H252566   3.304   2.079   5.659  0.5968 -2.3965  1.0354
10359TIP3   OH252567   3.499   4.521  15.808 -0.8046  0.1975  1.0148
10359TIP3    H152568   3.591   4.509  15.834  0.0387  1.3441 -1.1819
10359TIP3    H252569   3.501   4.519  15.712 -3.2431 -0.6502  0.9285
10360TIP3   OH252570   0.566   2.655   2.887  0.7728 -0.5783 -0.7244
10360TIP3    H152571   0.629   2.585   2.902 -0.3138 -0.9717  2.9240
10360TIP3    H252572   0.613   2.735   2.913  0.9172 -0.3566 -1.6254
10361TIP3   OH252573   1.959   0.835  10.670 -0.3233  0.3879  0.2424
10361TIP3    H152574   2.046   0.851  10.633  0.3795 -0.7366  1.3177
10361TIP3    H252575   1.956   0.740  10.683 -1.9173  0.3486 -0.2225
10362TIP3   OH252576   5.370   5.701  14.794  0.4693  0.0631  0.2710
10362TIP3    H152577   5.308   5.737  14.731 -0.4013 -0.6798  0.6946
10362TIP3    H252578   5.386   5.773  14.856 -2.4700 -0.6426  2.0237
10363TIP3   OH252579   5.743   3.099   0.398 -0.4325 -0.3152 -0.0921
10363TIP3    H152580   5.742   3.194   0.415 -0.7430 -0.4883  0.8965
10363TIP3    H252581   5.691   3.061   0.468  0.4262 -1.3081  0.0377
10364TIP3   OH252582   2.673   5.270   6.690 -0.2258  0.0219  0.1145
10364TIP3    H152583   2.615   5.195   6.708 -0.7529  0.2479 -0.6091
10364TIP3    H252584   2.740   5.234   6.632 -1.9709  0.6539 -2.4911
10365TIP3   OH252585   1.277   3.588  13.397  0.2383  0.0437 -0.1167
10365TIP3    H152586   1.320   3.545  13.471 -0.4282  0.2252  0.3777
10365TIP3    H252587   1.255   3.676  13.429 -1.1715 -0.2978 -0.1223
10366TIP3   OH252588   0.003   4.624  17.159 -0.2992  0.1542 -0.2436
10366TIP3    H152589   0.098   4.631  17.169  0.0737 -1.0157 -2.4054
10366TIP3    H252590  -0.030   4.616  17.248  1.7272 -0.4375  0.4981
10367TIP3   OH252591   4.576   0.872   6.297  0.1279 -0.4757 -0.5613
10367TIP3    H152592   4.536   0.931   6.361 -0.9640 -1.7945  0.0466
10367TIP3    H252593   4.651   0.920   6.263  1.0136  0.1384  2.0271
10368TIP3   OH252594   5.523   5.360   6.000 -0.4282  0.1037  0.2738
10368TIP3    H152595   5.481   5.277   6.026 -2.7774  1.5049  1.3103
10368TIP3    H252596   5.496   5.373   5.909 -0.2445 -0.1447  0.1821
10369TIP3   OH252597   5.689   3.968  11.332 -0.1683 -0.0936 -0.0391
10369TIP3    H152598   5.733   4.041  11.376 -0.4643 -1.6017  2.9716
10369TIP3    H252599   5.604   4.004  11.305 -0.7969  0.4743  2.4295
10370TIP3   OH252600   1.658   4.094  17.512  0.0540 -0.1619  0.4416
10370TIP3    H152601   1.680   4.013  17.466 -0.7275 -0.6329  0.8664
10370TIP3    H252602   1.719   4.098  17.585  0.2417 -0.2438  0.2916
10371TIP3   OH252603   5.084   5.196  12.807 -0.2750  0.2430  0.4579
10371TIP3    H152604   5.062   5.226  12.895  0.5672 -1.3750  1.2671
10371TIP3    H252605   5.179   5.193  12.806 -0.2722 -2.5853  0.5818
10372TIP3   OH252606   6.594   1.251  12.018 -0.4753 -0.4434 -0.0636
10372TIP3    H152607   6.671   1.295  11.983  1.4633 -2.2528  1.6466
10372TIP3    H252608   6.553   1.316  12.076  1.3670 -0.2591  1.1279
10373TIP3   OH252609   3.106   3.771  12.444  0.3383 -0.0950  0.2633
10373TIP3    H152610   3.088   3.858  12.409 -1.3444 -0.5777 -0.1662
10373TIP3    H252611   3.181   3.783  12.502  1.3317  1.2607 -1.2588
10374TIP3   OH252612   5.053   6.405   6.567 -0.3683 -0.1427  0.0580
10374TIP3    H152613   4.974   6.436   6.612  0.0776  1.1846 -0.0237
10374TIP3    H252614   5.101   6.356   6.634 -0.8265 -0.1787  0.3633
10375TIP3   OH252615   5.047   6.416   4.930  0.3199  0.7087 -0.0170
10375TIP3    H152616   5.109   6.344   4.921 -0.6711  0.0735 -2.5835
10375TIP3    H252617   4.986   6.387   4.998  1.6512  0.4865  1.1208
10376TIP3   OH252618   5.034   6.685   4.505 -0.0219 -0.3992  0.4961
10376TIP3    H152619   4.991   6.624   4.563  0.5877  0.9831  2.5094
10376TIP3    H252620   5.127   6.673   4.522  0.1827 -0.0946 -0.3453
10377TIP3   OH252621   0.787   4.238   0.832 -0.1943 -0.0800  0.5388
10377TIP3    H152622   0.812   4.148   0.809 -2.2011 -0.5541  0.0223
10377TIP3    H252623   0.745   4.230   0.918 -1.8040  0.0612 -0.1946
10378TIP3   OH252624   6.270   2.952   6.192 -0.0302 -0.0932  0.5761
10378TIP3    H152625   6.176   2.963   6.176  0.1754  0.5386 -0.2533
10378TIP3    H252626   6.276   2.874   6.248 -1.0565 -0.0103  0.8184
10379TIP3   OH252627   5.924   5.530   6.401 -0.3355 -0.2063  0.2019
10379TIP3    H152628   5.914   5.477   6.479 -1.4741 -0.2869  0.0091
10379TIP3    H252629   6.012   5.508   6.368 -1.0259 -2.5153 -0.2674
10380TIP3   OH252630   3.650   4.722   5.642  0.2279  0.0798  0.7973
10380TIP3    H152631   3.682   4.729   5.732  1.1589  0.3412  0.4690
10380TIP3    H252632   3.654   4.629   5.622  0.7734  0.0980  0.7834
10381TIP3   OH252633   4.648   4.953  13.142 -0.0062  0.0288 -0.4792
10381TIP3    H152634   4.579   4.990  13.196  0.7821  1.8230 -0.6267
10381TIP3    H252635   4.705   4.907  13.203  0.1428  0.8777  0.0268
10382TIP3   OH252636   5.823   4.908  17.637  0.4098 -0.7071  0.5026
10382TIP3    H152637   5.852   4.939  17.551 -2.4890  0.2483 -0.2557
10382TIP3    H252638   5.784   4.823  17.620 -0.3143 -0.4445  0.8205
10383TIP3   OH252639   0.984   2.462  15.609  0.0217 -0.0175 -0.5433
10383TIP3    H152640   0.954   2.546  15.573  0.1990  0.8454  1.2304
10383TIP3    H252641   0.948   2.459  15.697  0.6633 -1.4789 -0.3028
10384TIP3   OH252642   4.562   4.688  16.668  0.6557  0.3119  0.1567
10384TIP3    H152643   4.484   4.647  16.707  1.7672 -1.7034  0.4205
10384TIP3    H252644   4.572   4.771  16.714 -2.4307  1.6162 -1.2401
10385TIP3   OH252645   1.680   4.229  14.473 -0.3214  0.3598  0.0592
10385TIP3    H152646   1.689   4.152  14.416  0.5142  0.6661 -0.2386
10385TIP3    H252647   1.642   4.195  14.553 -2.0817 -0.0003 -0.8756
10386TIP3   OH252648   5.577   1.913   4.208 -0.0280 -0.3282 -0.9160
10386TIP3    H152649   5.582   1.973   4.282  0.8844 -0.2879 -1.0018
10386TIP3    H252650   5.526   1.839   4.241  1.2786 -0.8044  0.1107
10387TIP3   OH252651   3.317   2.916  13.399  0.8173  0.9734  1.0085
10387TIP3    H152652   3.297   2.973  13.325 -2.3940 -0.4284  0.6259
10387TIP3    H252653   3.408   2.889  13.384  0.3164  0.6985 -2.5271
10388TIP3   OH252654   4.799   2.667  10.719  0.8348  0.4379 -0.0827
10388TIP3    H152655   4.815   2.573  10.717 -0.2582  0.2520 -1.7122
10388TIP3    H252656   4.859   2.703  10.654 -0.5333  0.5332 -1.3321
10389TIP3   OH252657   1.991   5.130  14.798  0.0628  0.0495  0.1510
10389TIP3    H152658   2.008   5.155  14.888  1.1121 -0.1774  0.0251
10389TIP3    H252659   1.913   5.180  14.773 -3.3231 -3.3063  2.6942
10390TIP3   OH252660   6.454   6.360  11.763 -0.1763  0.2424 -1.0023
10390TIP3    H152661   6.417   6.395  11.845 -1.4643  0.5506 -1.6828
10390TIP3    H252662   6.441   6.266  11.769 -0.0131  0.2353 -0.7364
10391TIP3   OH252663   4.396   0.326   6.243  0.1114  0.1462  0.7496
10391TIP3    H152664   4.427   0.261   6.181  1.1002  0.7691  0.5662
10391TIP3    H252665   4.301   0.314   6.245  0.1699 -0.5610 -0.1054
10392TIP3   OH252666   1.877   4.599  11.837 -0.3383 -0.0726  0.1570
10392TIP3    H152667   1.788   4.563  11.844 -0.1161 -0.3631  2.2822
10392TIP3    H252668   1.893   4.608  11.743 -2.2331 -0.9564 -0.2847
10393TIP3   OH252669   1.867   2.300   2.326  0.0275  0.1454 -1.2044
10393TIP3    H152670   1.904   2.243   2.260  1.5149  0.9125 -1.0730
10393TIP3    H252671   1.875   2.388   2.290 -0.7761  0.4298 -0.7360
10394TIP3   OH252672   3.429   0.460  17.362 -0.4351 -0.0533  0.6298
10394TIP3    H152673   3.342   0.500  17.351  0.8733  2.9851  0.3277
10394TIP3    H252674   3.446   0.467  17.456  0.9329  3.0265  0.2827
10395TIP3   OH252675   0.796   6.099  17.517 -0.1914  0.3785 -0.1972
10395TIP3    H152676   0.758   6.115  17.603 -0.2275 -2.4488  0.4364
10395TIP3    H252677   0.749   6.022  17.484  1.6513 -0.2668 -1.5201
10396TIP3   OH252678   0.996   0.145   2.729 -0.3474 -0.3531 -0.1938
10396TIP3    H152679   0.969   0.218   2.784 -0.9863  0.5859 -1.6976
10396TIP3    H252680   1.046   0.186   2.658  2.9539 -1.7798  1.0947
10397TIP3   OH252681   1.035   4.607  13.691 -0.2547 -0.0388 -0.2020
10397TIP3    H152682   1.068   4.643  13.608 -0.6205 -3.1758 -1.8415
10397TIP3    H252683   0.945   4.580  13.672  0.1756 -2.2966  0.6670
10398TIP3   OH252684   2.176   1.359   1.981  0.1944 -0.0965  0.3133
10398TIP3    H152685   2.224   1.381   1.901  0.7411  0.3120  0.7401
10398TIP3    H252686   2.210   1.273   2.007  1.1793  0.4514  0.9445
10399TIP3   OH252687   5.929   2.617   2.877 -0.0558 -0.1077  0.2004
10399TIP3    H152688   6.024   2.606   2.865 -0.0667  2.0957 -3.2931
10399TIP3    H252689   5.919   2.710   2.894 -1.6699  0.0549 -1.4048
10400TIP3   OH252690   0.210   1.528   3.627 -0.7648 -0.6339  0.0530
10400TIP3    H152691   0.288   1.507   3.576 -1.5894  0.2671 -1.6731
10400TIP3    H252692   0.233   1.610   3.671 -0.5277 -0.6925  0.0425
10401TIP3   OH252693   3.998   3.167   2.879 -0.2572  0.6561  0.3382
10401TIP3    H152694   4.078   3.164   2.827  0.0466  0.2572  0.8266
10401TIP3    H252695   3.948   3.239   2.841  0.3422  0.9251  0.0474
10402TIP3   OH252696   0.360   5.159  13.490 -0.0973  0.4924  0.2752
10402TIP3    H152697   0.405   5.165  13.406 -0.8273 -0.5217 -0.2093
10402TIP3    H252698   0.364   5.066  13.513  0.8609  0.8802  1.8064
10403TIP3   OH252699   0.551   4.498  12.426 -0.4389  0.3739  0.1178
10403TIP3    H152700   0.512   4.443  12.358 -0.4659  1.0245 -0.4040
10403TIP3    H252701   0.642   4.509  12.400 -0.9164  2.2282 -0.8865
10404TIP3   OH252702   5.726   3.823   3.734 -0.4437 -0.0241 -0.2375
10404TIP3    H152703   5.737   3.731   3.712  0.6905  0.1175 -0.3017
10404TIP3    H252704   5.786   3.838   3.807 -0.7867  0.6167 -0.0782
10405TIP3   OH252705   2.337   2.826  14.973  0.2755  0.3846  0.3878
10405TIP3    H152706   2.326   2.736  14.944  2.3960 -0.0462  0.7274
10405TIP3    H252707   2.272   2.876  14.924  1.5321 -0.7816 -2.6926
10406TIP3   OH252708   5.643   3.458   6.040  0.8626  0.8669  0.2911
10406TIP3    H152709   5.631   3.405   5.961 -0.4789  1.3249  0.1513
10406TIP3    H252710   5.645   3.394   6.111  1.8892  0.4610 -0.0884
10407TIP3   OH252711   0.206   0.985   3.832  0.0651  0.4714 -0.6341
10407TIP3    H152712   0.283   0.996   3.777  2.3682  1.0152  2.4249
10407TIP3    H252713   0.171   1.074   3.842  0.9122  0.7216  0.3502
10408TIP3   OH252714   2.671   2.832  14.837 -0.1037  0.1686  0.2180
10408TIP3    H152715   2.710   2.920  14.844  0.2005  0.2163 -1.5706
10408TIP3    H252716   2.705   2.798  14.754  0.5634 -2.0488  1.3276
10409TIP3   OH252717   4.944   1.765  16.802 -0.0902 -0.0560  0.2702
10409TIP3    H152718   4.933   1.713  16.722  0.8386 -0.1745  0.2140
10409TIP3    H252719   5.036   1.754  16.826  0.2145  1.7581  0.1063
10410TIP3   OH252720   4.968   4.260   3.658 -0.5719  0.5031 -0.3440
10410TIP3    H152721   4.957   4.183   3.602 -2.7857  0.7121 -0.3115
10410TIP3    H252722   5.010   4.227   3.737 -1.5201 -0.7189 -0.3103
10411TIP3   OH252723   6.082   1.445  12.397  0.1914 -0.6017  0.1828
10411TIP3    H152724   6.170   1.483  12.402  0.2590 -0.5388 -1.1496
10411TIP3    H252725   6.044   1.483  12.317 -1.5636  0.4206  1.4426
10412TIP3   OH252726   1.227   4.374   2.000 -0.6956 -0.8392  0.2416
10412TIP3    H152727   1.225   4.460   1.958 -2.0413 -0.9436  0.0396
10412TIP3    H252728   1.267   4.316   1.935  1.3590 -0.1736  0.8382
10413TIP3   OH252729   4.779   0.672   5.521 -0.1716  0.3773 -0.2438
10413TIP3    H152730   4.768   0.761   5.487 -0.6711  0.2776 -0.3584
10413TIP3    H252731   4.870   0.649   5.500 -0.4670  0.3040 -1.5669
10414TIP3   OH252732   4.324   5.844  13.689  0.0694  0.0299 -0.4386
10414TIP3    H152733   4.347   5.881  13.604 -0.0647  1.0970 -0.0273
10414TIP3    H252734   4.229   5.839  13.689  0.1099 -1.3347 -0.8847
10415TIP3   OH252735   4.643   5.730  12.459 -0.0123  0.3154 -0.1469
10415TIP3    H152736   4.612   5.807  12.412  0.9447 -0.6653 -2.4959
10415TIP3    H252737   4.629   5.657  12.399  2.2589 -0.8640  0.6413
10416TIP3   OH252738   3.737   4.927  12.140 -0.1763 -0.2051  0.6004
10416TIP3    H152739   3.648   4.915  12.107  0.2676 -0.2721 -0.6073
10416TIP3    H252740   3.754   5.021  12.130 -0.7059  0.1249  2.4342
10417TIP3   OH252741   5.303   2.827  16.398  0.3937 -0.2184  0.4302
10417TIP3    H152742   5.211   2.847  16.382  0.3607 -1.0178 -0.4716
10417TIP3    H252743   5.351   2.904  16.366  0.1271 -0.4795 -0.6312
10418TIP3   OH252744   0.426   1.353  14.233  0.0254 -0.1825  0.4409
10418TIP3    H152745   0.380   1.343  14.150 -0.4632 -0.0748  0.6985
10418TIP3    H252746   0.518   1.342  14.210 -0.1557 -0.8626  0.0023
10419TIP3   OH252747   5.958   4.946  14.781 -0.4496 -0.1809 -0.0874
10419TIP3    H152748   5.952   4.992  14.864 -1.7317 -0.8065  0.1966
10419TIP3    H252749   5.939   5.012  14.715  2.4523  0.7928 -0.1048
10420TIP3   OH252750   6.508   5.914  12.039 -1.0234 -0.2300  0.1241
10420TIP3    H152751   6.590   5.866  12.050 -0.8466 -0.1880 -0.9081
10420TIP3    H252752   6.440   5.851  12.062 -0.7491 -0.6686 -0.2427
10421TIP3   OH252753   1.001   1.944  12.622  0.4963 -0.4401  0.0737
10421TIP3    H152754   1.016   1.991  12.704 -0.2774 -0.2791  0.1318
10421TIP3    H252755   0.916   1.975  12.592  0.5537 -0.8606 -0.5461
10422TIP3   OH252756   5.115   4.056  15.476 -0.1765  0.3066  0.0286
10422TIP3    H152757   5.126   4.130  15.415 -2.3921 -1.1698 -2.3586
10422TIP3    H252758   5.203   4.018  15.483  0.2249  0.6725 -2.1454
10423TIP3   OH252759   3.073   0.665   1.370 -0.6428 -0.3499 -0.2212
10423TIP3    H152760   3.081   0.752   1.332  1.3795 -0.5903 -0.4959
10423TIP3    H252761   3.164   0.635   1.381 -1.2678 -2.7712 -0.9686
10424TIP3   OH252762   2.731   2.157  15.518 -0.1277 -0.3883  0.1918
10424TIP3    H152763   2.753   2.070  15.552 -1.2687 -0.2996  1.2629
10424TIP3    H252764   2.815   2.199  15.502  0.4431 -1.5627 -0.0063
10425TIP3   OH252765   6.065   4.803   3.165  0.4095  0.0310  0.8186
10425TIP3    H152766   6.062   4.854   3.246  0.2001 -0.0440  0.8602
10425TIP3    H252767   5.973   4.789   3.143  0.4256 -1.5638  1.5895
10426TIP3   OH252768   3.543   1.521   5.797  0.1619 -0.3507  0.3372
10426TIP3    H152769   3.545   1.475   5.881 -1.8949 -0.0473  0.6171
10426TIP3    H252770   3.549   1.613   5.820  2.0829 -0.3393 -0.0683
10427TIP3   OH252771   1.513   2.564  14.010 -0.4740  0.2622 -0.1288
10427TIP3    H152772   1.421   2.542  13.996  0.2527 -3.3400 -0.2561
10427TIP3    H252773   1.529   2.544  14.103  0.1438  1.0135 -0.0641
10428TIP3   OH252774   1.682   3.721  15.195  0.4771 -0.2606 -0.6342
10428TIP3    H152775   1.717   3.710  15.283  0.2854 -0.5388 -0.5896
10428TIP3    H252776   1.664   3.814  15.187 -1.7194 -0.5230  0.4665
10429TIP3   OH252777   4.056   1.799   5.256 -0.0146  0.7535 -0.4027
10429TIP3    H152778   4.007   1.858   5.199  0.8818  2.1025  0.1677
10429TIP3    H252779   4.138   1.783   5.209  0.6020  1.6334  0.3409
10430TIP3   OH252780   1.900   5.273  17.119  0.4359 -0.0047 -0.3761
10430TIP3    H152781   1.889   5.274  17.024 -0.1975  0.0265 -0.3059
10430TIP3    H252782   1.995   5.278  17.132  0.6289 -1.5585 -1.0229
10431TIP3   OH252783   4.932   4.606  15.362  0.0589 -0.2602 -0.0398
10431TIP3    H152784   4.867   4.558  15.415  2.0072 -1.1201  1.7002
10431TIP3    H252785   5.013   4.557  15.373  1.2391  1.2768 -1.4165
10432TIP3   OH252786   4.502   2.315   0.354  0.0789  0.1632  0.3771
10432TIP3    H152787   4.598   2.309   0.359  0.1102  0.0275 -0.3350
10432TIP3    H252788   4.471   2.246   0.412  0.3928  1.1806  1.8184
10433TIP3   OH252789   0.288   2.540   4.802  0.6901 -0.0497 -0.0339
10433TIP3    H152790   0.341   2.616   4.778 -1.6733  1.6492 -0.2644
10433TIP3    H252791   0.254   2.507   4.718  1.1133 -0.9410  0.1298
10434TIP3   OH252792   2.374   0.365   3.145  0.4945 -0.4240 -0.0853
10434TIP3    H152793   2.316   0.344   3.218 -0.8215  0.4404 -0.8599
10434TIP3    H252794   2.355   0.299   3.078  0.2986 -0.0554 -0.3958
10435TIP3   OH252795   3.047   1.609   4.401 -0.2365 -0.0221  0.4709
10435TIP3    H152796   3.084   1.685   4.445 -1.0754  0.4402  0.4032
10435TIP3    H252797   3.014   1.643   4.318 -0.7596 -0.4291  0.5053
10436TIP3   OH252798   2.051   4.733  17.240 -0.3886  0.2324 -0.2024
10436TIP3    H152799   1.985   4.679  17.196 -1.5366  1.6938 -0.3662
10436TIP3    H252800   2.035   4.822  17.208  2.2260  0.5450 -0.8741
10437TIP3   OH252801   6.099   0.760   1.278 -0.5813  0.0950  0.5480
10437TIP3    H152802   6.187   0.788   1.305 -1.0286  0.9202  1.1784
10437TIP3    H252803   6.114   0.677   1.233  0.7172  0.9947 -0.7946
10438TIP3   OH252804   1.760   3.810  16.479  0.6726  0.1199 -0.0999
10438TIP3    H152805   1.747   3.883  16.540 -0.6466 -0.9188  0.9191
10438TIP3    H252806   1.855   3.796  16.479  0.8608  1.2654  0.3524
10439TIP3   OH252807   2.612   5.571   1.015 -0.0621  0.4991 -0.2361
10439TIP3    H152808   2.563   5.508   1.068  1.0827 -0.9367 -0.8102
10439TIP3    H252809   2.699   5.574   1.056  0.1812  1.0010 -0.7744
10440TIP3   OH252810   0.221   2.642  16.733 -0.1727 -0.3282  0.2832
10440TIP3    H152811   0.147   2.588  16.703 -0.2951  1.2524 -2.6171
10440TIP3    H252812   0.294   2.613  16.679  0.3911  0.6743  0.4979
10441TIP3   OH252813   3.156   4.589  12.318  0.1909 -0.2440 -0.1780
10441TIP3    H152814   3.132   4.602  12.227 -1.7387 -0.1759  0.3156
10441TIP3    H252815   3.225   4.654  12.334  0.1743  0.1048 -1.4113
10442TIP3   OH252816   1.106   4.300  11.445 -0.0520 -0.2347  0.5511
10442TIP3    H152817   1.138   4.325  11.358  0.0938  1.5751  1.0829
10442TIP3    H252818   1.034   4.360  11.462 -0.0064 -0.4975  1.7270
10443TIP3   OH252819   5.901   5.461  13.260 -0.1112  0.3685 -0.0810
10443TIP3    H152820   5.882   5.377  13.218  0.1628  0.9572 -1.4500
10443TIP3    H252821   5.922   5.439  13.350  0.9536 -1.1447 -0.6628
10444TIP3   OH252822   4.532   1.122   3.990 -0.0966  0.0454  0.0706
10444TIP3    H152823   4.503   1.178   3.918  0.5772  0.1016 -0.1696
10444TIP3    H252824   4.454   1.073   4.016 -0.5298  0.5945 -0.1776
10445TIP3   OH252825   4.882   6.519  12.629  0.9540  0.1729  0.0287
10445TIP3    H152826   4.917   6.489  12.713  1.5026 -1.2057 -0.6503
10445TIP3    H252827   4.788   6.526  12.642  1.2206  2.0555  1.3387
10446TIP3   OH252828   0.865   4.490  11.552 -0.3094 -0.1710 -0.0290
10446TIP3    H152829   0.785   4.455  11.513  0.0910 -0.5220 -0.5494
10446TIP3    H252830   0.899   4.552  11.488 -2.3652  3.3195  1.9046
10447TIP3   OH252831   1.124   2.662  14.224 -0.1158 -0.0491 -0.1952
10447TIP3    H152832   1.034   2.645  14.199 -0.1868  1.2692 -0.9700
10447TIP3    H252833   1.119   2.737  14.284  0.4647  0.1029 -0.3280
10448TIP3   OH252834   3.618   6.714   3.098 -0.2330 -0.0292  0.2293
10448TIP3    H152835   3.542   6.762   3.063  0.5505  1.5926  0.6261
10448TIP3    H252836   3.692   6.748   3.049  0.4333 -0.3867  0.9683
10449TIP3   OH252837   5.629   0.088   5.321  0.2008 -0.1504 -0.2490
10449TIP3    H152838   5.574   0.165   5.326  0.7647  0.2020  0.6433
10449TIP3    H252839   5.573   0.021   5.282 -0.8716  0.1906  0.6604
10450TIP3   OH252840   1.517   0.254  15.364 -0.2324 -0.8313 -0.3542
10450TIP3    H152841   1.426   0.251  15.394 -0.0679  0.3887  0.3417
10450TIP3    H252842   1.517   0.320  15.295  0.5546  1.1371  1.4222
10451TIP3   OH252843   4.576   4.083  13.043  0.0689 -0.3527 -0.1126
10451TIP3    H152844   4.561   4.126  13.127  1.4986 -0.3235  0.1632
10451TIP3    H252845   4.512   4.012  13.040 -2.3242  1.7103 -0.5804
10452TIP3   OH252846   0.120   2.924  12.750 -0.2247 -0.2473  0.0944
10452TIP3    H152847   0.136   2.974  12.670  1.8791  0.2515  0.7673
10452TIP3    H252848   0.042   2.872  12.730 -3.0210  3.6770 -0.4560
10453TIP3   OH252849   4.869   2.752  15.957 -0.0858 -0.3093 -0.0846
10453TIP3    H152850   4.792   2.696  15.963  1.9375 -3.3779 -0.4246
10453TIP3    H252851   4.916   2.721  15.880  1.8093  1.0224  0.4594
10454TIP3   OH252852   2.616   3.545  13.382  0.1948 -0.3670  0.1084
10454TIP3    H152853   2.646   3.517  13.469  1.2173 -0.2334 -0.1802
10454TIP3    H252854   2.535   3.496  13.368 -1.3509  1.4261  2.1482
10455TIP3   OH252855   4.729   1.365   3.810 -0.2207 -0.2991 -0.1591
10455TIP3    H152856   4.791   1.307   3.765  0.3335 -0.6336  0.9886
10455TIP3    H252857   4.643   1.334   3.783  0.0888 -0.6020 -0.8351
10456TIP3   OH252858   0.224   3.707  11.538 -0.2730  0.3822  0.1475
10456TIP3    H152859   0.205   3.644  11.469  1.9057  0.2388 -0.3942
10456TIP3    H252860   0.195   3.665  11.619 -2.5385  0.4141 -0.5799
10457TIP3   OH252861   0.316   2.161  14.611 -0.4533 -0.3007 -0.3315
10457TIP3    H152862   0.360   2.246  14.621 -0.5384 -0.3936  0.9966
10457TIP3    H252863   0.318   2.123  14.698 -2.2966 -0.7447 -0.4498
10458TIP3   OH252864   5.660   5.951  16.268 -0.3900  0.7733  0.1018
10458TIP3    H152865   5.579   5.976  16.224 -0.4307  0.0568 -0.2347
10458TIP3    H252866   5.725   5.946  16.198 -0.6887 -1.4204 -0.0778
10459TIP3   OH252867   0.612   5.136  15.020 -0.0143  0.2455 -0.1527
10459TIP3    H152868   0.618   5.086  14.939  0.9971 -0.5111  0.3602
10459TIP3    H252869   0.544   5.201  15.004 -0.6849 -0.6749 -1.1795
10460TIP3   OH252870   5.142   4.483  15.519 -0.1940  0.5750 -0.3096
10460TIP3    H152871   5.172   4.400  15.484 -0.4279  0.6183 -0.6216
10460TIP3    H252872   5.220   4.523  15.557  0.0358  0.4625 -0.6526
10461TIP3   OH252873   3.749   5.864   1.305 -0.0360  0.2724  0.1787
10461TIP3    H152874   3.729   5.904   1.220  2.4085  0.8999 -0.1794
10461TIP3    H252875   3.668   5.872   1.355 -1.1803  0.9411 -1.7008
10462TIP3   OH252876   5.480   6.347  15.158 -0.5752  0.8954  0.0063
10462TIP3    H152877   5.483   6.326  15.251 -1.2773 -2.7441 -0.6817
10462TIP3    H252878   5.406   6.407  15.149 -1.5090  0.0217  1.5690
10463TIP3   OH252879   3.300   4.997   3.011 -0.3537  0.0099  0.4033
10463TIP3    H152880   3.296   5.045   2.928  0.1927 -0.5204  0.0596
10463TIP3    H252881   3.235   5.039   3.067 -0.6761  0.4160 -0.2736
10464TIP3   OH252882   5.889   2.567  13.485 -0.3865 -0.1422  0.0358
10464TIP3    H152883   5.831   2.539  13.556  1.1488 -0.9758  1.0286
10464TIP3    H252884   5.946   2.632  13.526 -2.3272  2.8509 -1.6300
10465TIP3   OH252885   4.563   1.736  17.273 -0.4342 -0.6353 -0.6394
10465TIP3    H152886   4.641   1.788  17.254 -1.5055  2.1750  1.8208
10465TIP3    H252887   4.594   1.645  17.273  2.4469  0.2512 -1.3530
10466TIP3   OH252888   1.134   0.233   2.517  0.1817 -0.6429 -0.3210
10466TIP3    H152889   1.217   0.193   2.493 -0.3158 -1.6629 -0.3760
10466TIP3    H252890   1.099   0.266   2.434 -0.0929 -1.4083 -0.5109
10467TIP3   OH252891   3.590   4.272  14.129 -0.9728  0.1262  0.0527
10467TIP3    H152892   3.664   4.262  14.189  0.1011  0.3716 -1.1925
10467TIP3    H252893   3.534   4.337  14.172  0.6180  1.5844  0.0179
10468TIP3   OH252894   0.519   6.179   5.526 -0.3779 -0.4399  0.1374
10468TIP3    H152895   0.456   6.180   5.599  0.4238 -0.1805  0.8442
10468TIP3    H252896   0.538   6.086   5.513 -0.4066 -0.4816  0.3758
10469TIP3   OH252897   5.923   4.591  16.476 -0.0856  0.4025 -0.1749
10469TIP3    H152898   5.955   4.643  16.402  2.9612  1.0792  1.4572
10469TIP3    H252899   5.916   4.502  16.440  0.0253  0.9372 -1.5963
10470TIP3   OH252900   3.168   6.090   4.104 -0.0994 -0.8349  0.7050
10470TIP3    H152901   3.089   6.043   4.131  0.3062 -1.9604  0.0071
10470TIP3    H252902   3.209   6.032   4.040 -0.0798  0.8844 -0.9317
10471TIP3   OH252903   1.047   3.751   4.436 -0.1030  0.5530 -0.3812
10471TIP3    H152904   0.960   3.721   4.460 -0.6454  0.1230 -2.6285
10471TIP3    H252905   1.077   3.803   4.511 -1.9730  0.1148  0.7215
10472TIP3   OH252906   2.620   3.756   1.175 -0.3256 -0.1350  0.3153
10472TIP3    H152907   2.705   3.714   1.164 -0.2972  0.1165 -0.4412
10472TIP3    H252908   2.622   3.790   1.265  0.3408 -0.2007  0.3322
10473TIP3   OH252909   5.873   0.865   1.766 -0.6317  0.6519  0.4835
10473TIP3    H152910   5.813   0.842   1.696  0.6329 -0.5391 -0.2585
10473TIP3    H252911   5.955   0.823   1.742 -0.0394  0.5871  2.4633
10474TIP3   OH252912   0.492   5.107  13.228 -0.2081 -0.2850 -0.1644
10474TIP3    H152913   0.469   5.152  13.146 -4.3479 -1.4380  0.1530
10474TIP3    H252914   0.506   5.016  13.202  0.9812 -0.1879  0.1145
10475TIP3   OH252915   2.296   5.113  15.338  0.3684  0.0472  0.1716
10475TIP3    H152916   2.366   5.155  15.388  0.4428  1.6381 -1.1894
10475TIP3    H252917   2.313   5.138  15.247 -1.9125  0.4030 -0.2086
10476TIP3   OH252918   5.366   3.952  15.519 -0.2874 -0.3830 -0.4353
10476TIP3    H152919   5.396   3.889  15.454  1.0252 -1.2608  0.9670
10476TIP3    H252920   5.374   3.906  15.603 -1.9881  0.6904  0.3669
10477TIP3   OH252921   5.643   6.135  16.841  0.3771 -0.3847  0.1239
10477TIP3    H152922   5.620   6.072  16.909  1.2888 -1.7181 -0.7368
10477TIP3    H252923   5.587   6.111  16.767 -2.2876  2.4940  0.9973
10478TIP3   OH252924   6.490   1.625  14.295 -0.0229 -0.6519  0.2489
10478TIP3    H152925   6.436   1.627  14.374 -1.6154  1.6838 -0.7512
10478TIP3    H252926   6.439   1.674  14.231  2.9040  0.9268 -1.0753
10479TIP3   OH252927   3.981   2.606   4.969 -0.6379  0.0908  0.5544
10479TIP3    H152928   3.927   2.528   4.958  2.1751 -2.1220  1.3223
10479TIP3    H252929   4.010   2.627   4.880 -1.6394  0.5076  0.3088
10480TIP3   OH252930   0.179   5.847   4.809 -0.3963  0.3659 -0.6212
10480TIP3    H152931   0.255   5.795   4.836  0.0131  1.5161  0.5579
10480TIP3    H252932   0.106   5.808   4.856 -0.2467  0.2816 -0.4558
10481TIP3   OH252933   0.543   6.287   6.906 -0.5479  0.3643 -0.2796
10481TIP3    H152934   0.625   6.326   6.877  0.2326  0.1823  1.5384
10481TIP3    H252935   0.529   6.324   6.994 -1.6039 -0.7788  0.0546
10482TIP3   OH252936   0.807   1.082  15.043 -0.6596  0.2239  0.6447
10482TIP3    H152937   0.759   1.153  15.087  0.5085  1.1777  0.4233
10482TIP3    H252938   0.799   1.008  15.102 -1.4866  0.6763  1.1230
10483TIP3   OH252939   1.479   5.493  13.099 -0.1392 -0.0133  0.0967
10483TIP3    H152940   1.497   5.587  13.108 -0.3128 -0.0662  1.0732
10483TIP3    H252941   1.537   5.451  13.162  1.9103 -0.8177 -2.1459
10484TIP3   OH252942   6.319   4.602  13.546  0.0684 -0.0883 -0.3017
10484TIP3    H152943   6.381   4.531  13.533  1.3969  0.9285  0.1983
10484TIP3    H252944   6.301   4.634  13.457  0.0210 -0.5905 -0.4758
10485TIP3   OH252945   2.631   1.817   0.941  0.4254 -0.1933 -0.0731
10485TIP3    H152946   2.580   1.821   0.860  0.9049  0.0440 -0.3671
10485TIP3    H252947   2.666   1.906   0.951  3.3840 -1.0448 -1.5855
10486TIP3   OH252948   0.416   0.245   1.816 -0.4464 -0.5004  0.4104
10486TIP3    H152949   0.444   0.334   1.838  0.3299 -0.1073 -1.9547
10486TIP3    H252950   0.334   0.256   1.768 -0.1363 -1.0131 -0.2593
10487TIP3   OH252951   3.436   6.553  15.389  0.4501  0.2980  0.1684
10487TIP3    H152952   3.345   6.564  15.416  0.4328 -1.8321  1.2036
10487TIP3    H252953   3.431   6.516  15.301  0.2993  0.1773  0.2261
10488TIP3   OH252954   2.806   0.198   0.465 -0.1813 -0.0997 -0.2181
10488TIP3    H152955   2.832   0.167   0.552 -0.5583  2.0311  0.7303
10488TIP3    H252956   2.714   0.173   0.457 -2.1827  4.7900  2.7719
10489TIP3   OH252957   3.694   6.401  12.306  0.5349 -0.3342  0.5237
10489TIP3    H152958   3.679   6.413  12.212  1.0993 -1.1581  0.3159
10489TIP3    H252959   3.626   6.454  12.348 -0.9626 -1.4412 -0.3656
10490TIP3   OH252960   6.606   5.923  12.822 -0.0191 -0.3599 -0.1005
10490TIP3    H152961   6.519   5.884  12.825 -0.7603  1.1143 -1.4036
10490TIP3    H252962   6.612   5.965  12.736  0.8749  1.9545  0.9785
10491TIP3   OH252963   0.359   0.951  12.634  0.1474  0.4255  0.4315
10491TIP3    H152964   0.337   0.871  12.681  2.7782  0.4782  1.9388
10491TIP3    H252965   0.309   1.020  12.678  0.4066  0.0545  1.3205
10492TIP3   OH252966   3.073   1.680  15.356 -0.3787 -0.3694  0.1002
10492TIP3    H152967   3.107   1.724  15.434 -1.1505  1.1129 -0.3553
10492TIP3    H252968   3.051   1.752  15.296 -1.0448 -1.4183 -0.9494
10493TIP3   OH252969   3.354   3.626  17.054 -0.4711 -0.2821 -0.2329
10493TIP3    H152970   3.387   3.694  17.113 -1.4720  1.2571 -1.3801
10493TIP3    H252971   3.421   3.619  16.986 -0.6141 -0.0642 -0.3965
10494TIP3   OH252972   5.297   6.217  13.439 -0.0202 -0.2350 -0.0701
10494TIP3    H152973   5.338   6.230  13.525  0.4672  0.6591 -0.4286
10494TIP3    H252974   5.366   6.181  13.384 -0.5396 -1.5442  0.0939
10495TIP3   OH252975   1.774   4.585   3.998 -0.0933 -0.5389 -0.1084
10495TIP3    H152976   1.712   4.615   4.064  0.5337 -1.2468  0.8308
10495TIP3    H252977   1.853   4.562   4.047  0.5439 -0.6765 -1.1526
10496TIP3   OH252978   5.198   1.778  12.121 -0.1473  0.2839 -0.1144
10496TIP3    H152979   5.153   1.745  12.043  0.1179 -2.9966  0.9785
10496TIP3    H252980   5.129   1.820  12.172 -0.7268  0.6449 -1.1442
10497TIP3   OH252981   3.646   6.189  16.593 -0.5008 -0.4219 -0.1474
10497TIP3    H152982   3.726   6.192  16.540 -0.1845 -0.9473  0.2870
10497TIP3    H252983   3.673   6.145  16.674 -0.9379  0.5074  0.5192
10498TIP3   OH252984   3.124   1.438  11.400  0.5319  0.0062  0.4353
10498TIP3    H152985   3.158   1.434  11.311  2.3252 -2.8374  1.1311
10498TIP3    H252986   3.090   1.350  11.417 -1.1909  0.9054  2.0951
10499TIP3   OH252987   5.557   2.979  13.604  0.6624  0.0432  0.0553
10499TIP3    H152988   5.634   2.992  13.549  0.9029 -1.5289 -0.0262
10499TIP3    H252989   5.568   3.041  13.676  1.5363  0.4785 -0.4353
10500TIP3   OH252990   1.466   2.136  12.322 -0.3641  0.5791  0.1600
10500TIP3    H152991   1.460   2.041  12.330 -0.6406  0.6856  1.5013
10500TIP3    H252992   1.535   2.161  12.385 -0.2987  1.2635 -0.1716
10501TIP3   OH252993   5.789   1.555   1.082 -0.1811  0.2038 -0.1447
10501TIP3    H152994   5.816   1.594   1.164  1.4576  2.4470 -1.6470
10501TIP3    H252995   5.793   1.461   1.098 -0.2322  0.5686  2.3973
10502TIP3   OH252996   1.987   1.368   5.524 -0.2116 -0.6832 -0.5521
10502TIP3    H152997   2.025   1.448   5.563  0.9536 -1.7114  0.5141
10502TIP3    H252998   1.905   1.397   5.486 -0.1602  0.9058  0.4413
10503TIP3   OH252999   2.106   2.218   1.604  0.2765 -0.0213  0.8996
10503TIP3    H153000   2.158   2.294   1.631  1.6937 -1.1383  1.4461
10503TIP3    H253001   2.111   2.217   1.509  1.2524 -0.1001  0.9473
10504TIP3   OH253002   5.547   1.657  11.619 -0.2855  0.1897  0.1152
10504TIP3    H153003   5.518   1.580  11.668 -0.3494  1.7499  2.7336
10504TIP3    H253004   5.490   1.659  11.542 -0.9764 -1.7902  0.5177
10505TIP3   OH253005   2.604   1.765   2.972  0.5265 -0.3148  0.5537
10505TIP3    H153006   2.643   1.852   2.974 -0.8556  0.3966 -0.6979
10505TIP3    H253007   2.597   1.745   2.878 -0.7331 -1.0138  0.7768
10506TIP3   OH253008   1.001   2.551  12.893  0.0830  0.3694 -0.0427
10506TIP3    H153009   1.092   2.525  12.877  0.0651  0.2930 -0.0174
10506TIP3    H253010   0.984   2.524  12.983 -0.2771 -0.4913 -0.3638
10507TIP3   OH253011   4.928   1.833  15.597  0.4565 -0.8247  0.0574
10507TIP3    H153012   4.921   1.888  15.675  2.7744 -0.0038 -0.2187
10507TIP3    H253013   4.847   1.849  15.549 -0.5224 -0.4835  1.7207
10508TIP3   OH253014   0.475   0.905   4.612 -0.0159  0.3793  0.0441
10508TIP3    H153015   0.511   0.943   4.532  0.5093 -0.2380 -0.0204
10508TIP3    H253016   0.550   0.900   4.671  0.0467 -1.0701 -0.1397
10509TIP3   OH253017   5.915   6.381  13.881 -0.0632 -0.0462  0.2179
10509TIP3    H153018   5.986   6.378  13.816  0.2848 -0.7274  0.6148
10509TIP3    H253019   5.886   6.290  13.888 -0.3284  0.0808  0.7713
10510TIP3   OH253020   4.418   4.431  15.420 -0.0388  0.0262 -0.8416
10510TIP3    H153021   4.356   4.487  15.468  0.9308 -0.3817  0.9974
10510TIP3    H253022   4.469   4.491  15.367  0.9411  0.9501  1.0508
10511TIP3   OH253023   4.181   0.573  11.741  0.1876  0.0242 -0.1382
10511TIP3    H153024   4.225   0.526  11.670 -1.4083 -1.2751 -0.3214
10511TIP3    H253025   4.089   0.547  11.733  0.0083 -0.4323  2.6285
10512TIP3   OH253026   1.881   3.790   1.397  0.1899  0.7093  0.3399
10512TIP3    H153027   1.813   3.726   1.380  2.7297 -2.0859 -0.2317
10512TIP3    H253028   1.947   3.742   1.447  1.6447  3.3295  1.1454
10513TIP3   OH253029   0.016   0.731  17.559 -0.0453  0.2738  0.9659
10513TIP3    H153030  -0.019   0.657  17.608  0.6730 -0.3032  0.6262
10513TIP3    H253031  -0.041   0.805  17.582 -1.7774 -0.7252  0.0694
10514TIP3   OH253032   4.249   2.495   1.121 -0.1453 -0.2836 -0.0613
10514TIP3    H153033   4.214   2.584   1.119  1.8389  0.6972  2.7685
10514TIP3    H253034   4.317   2.494   1.054 -1.4715 -0.3628 -1.4624
10515TIP3   OH253035   2.538   3.135   0.292  0.5647 -0.2688  0.1811
10515TIP3    H153036   2.556   3.188   0.215  0.9627 -0.4231  0.1619
10515TIP3    H253037   2.561   3.192   0.366 -0.6787  0.1981  0.2214
10516TIP3   OH253038   3.208   4.550   0.114  0.3473  0.3342  0.3461
10516TIP3    H153039   3.221   4.458   0.139  0.9869  0.5904  0.9853
10516TIP3    H253040   3.257   4.600   0.180  1.9180  1.0540 -1.2898
10517TIP3   OH253041   4.041   4.265   5.008 -0.3700 -0.1035 -0.3708
10517TIP3    H153042   4.070   4.190   5.060 -0.9145 -1.8199 -2.3783
10517TIP3    H253043   3.950   4.280   5.034  0.0395  0.5453  0.7422
10518TIP3   OH253044   1.907   0.954   0.377 -0.1861 -0.3021  0.4567
10518TIP3    H153045   1.936   1.039   0.412  0.2671 -0.6759  1.0140
10518TIP3    H253046   1.982   0.896   0.390  0.3628 -0.2553 -2.0134
10519TIP3   OH253047   0.533   0.736  17.139 -0.3990 -0.5603  0.2887
10519TIP3    H153048   0.520   0.662  17.080 -2.1921 -1.4573  1.7324
10519TIP3    H253049   0.471   0.802  17.109 -0.8371 -0.7584  0.7555
10520TIP3   OH253050   2.452   4.391  12.006  0.4377  0.7248 -0.8092
10520TIP3    H153051   2.539   4.395  12.046 -0.2969 -0.8103  1.1738
10520TIP3    H253052   2.468   4.374  11.914  2.2314  2.1581 -0.8253
10521TIP3   OH253053   4.916   5.600   4.901 -0.1076  0.5794  0.7857
10521TIP3    H153054   4.927   5.508   4.926 -1.1328 -0.2245 -1.4336
10521TIP3    H253055   4.860   5.637   4.970  0.1389 -0.5035  1.5997
10522TIP3   OH253056   6.210   5.213  14.392 -0.1214  0.6814 -0.1915
10522TIP3    H153057   6.153   5.136  14.390 -0.0219  0.6133 -0.3741
10522TIP3    H253058   6.241   5.222  14.302 -0.3752  1.1137 -0.2391
10523TIP3   OH253059   4.898   4.382   6.621  0.5080  0.1215  0.0398
10523TIP3    H153060   4.953   4.452   6.584  0.4151 -0.1404 -0.6032
10523TIP3    H253061   4.867   4.333   6.545 -0.8115  0.4030  0.3685
10524TIP3   OH253062   1.060   4.649  12.013 -0.4188  0.2296 -0.1043
10524TIP3    H153063   1.034   4.587  11.944 -0.2166 -0.6477  0.5951
10524TIP3    H253064   1.149   4.674  11.989 -0.4016  0.0434 -0.2428
10525TIP3   OH253065   4.570   5.322  15.049  0.6780  0.4001 -0.6416
10525TIP3    H153066   4.486   5.293  15.085  1.2769 -0.3890  0.1707
10525TIP3    H253067   4.548   5.363  14.966 -0.5560  0.6024 -0.2310
10526TIP3   OH253068   4.860   1.934   0.058  0.8628 -0.8299  0.0370
10526TIP3    H153069   4.776   1.930   0.012 -0.5173  1.9920  1.9746
10526TIP3    H253070   4.901   2.015   0.026  0.6134  0.3184  2.3804
10527TIP3   OH253071   3.570   5.757   3.771  0.6165  0.9889 -0.1656
10527TIP3    H153072   3.605   5.772   3.858 -3.1883  1.7023  1.4641
10527TIP3    H253073   3.580   5.662   3.757 -0.3593  0.5057  1.9552
10528TIP3   OH253074   4.529   3.054   3.838 -0.2735 -0.5437 -0.5173
10528TIP3    H153075   4.543   2.979   3.897 -0.6591 -0.1669  0.0638
10528TIP3    H253076   4.615   3.094   3.829 -0.6127  0.8670  1.8070
10529TIP3   OH253077   5.034   3.081  11.710 -0.2792  0.1584 -0.2028
10529TIP3    H153078   5.023   3.039  11.796 -1.9913 -0.1990 -0.5487
10529TIP3    H253079   5.021   3.009  11.647  0.9187  0.4242 -0.7809
10530TIP3   OH253080   4.734   2.082   6.319  0.8388 -0.1689  0.2467
10530TIP3    H153081   4.798   2.084   6.391  0.1232  0.6233  0.8919
10530TIP3    H253082   4.784   2.054   6.243  1.8069 -0.2146  0.8815
10531TIP3   OH253083   3.878   6.442   1.751  0.0278  0.0448 -0.7569
10531TIP3    H153084   3.911   6.407   1.834  0.0052  1.3123 -0.1834
10531TIP3    H253085   3.785   6.459   1.768  0.3007  1.5364 -0.5767
10532TIP3   OH253086   5.006   5.629  12.914  0.0493  0.4137  0.1986
10532TIP3    H153087   5.058   5.621  12.834 -1.2420  0.0845 -0.6477
10532TIP3    H253088   5.003   5.540  12.949  0.1340  0.4502  0.2988
10533TIP3   OH253089   0.965   2.398   2.458 -0.3394  0.6115 -0.1689
10533TIP3    H153090   0.951   2.491   2.440  0.2664  0.6101 -0.6423
10533TIP3    H253091   0.935   2.354   2.379  0.0979  0.4514 -0.2427
10534TIP3   OH253092   0.730   2.321   4.608  0.2004 -0.4893 -0.3054
10534TIP3    H153093   0.701   2.257   4.672 -0.2225  0.6695  0.6991
10534TIP3    H253094   0.800   2.370   4.652  1.2728 -0.9395 -1.4411
10535TIP3   OH253095   5.540   0.107   4.574 -0.3009 -0.2638  0.4576
10535TIP3    H153096   5.520   0.055   4.652 -0.3519 -0.3525  0.3858
10535TIP3    H253097   5.631   0.133   4.585 -1.1555  2.4653  2.1535
10536TIP3   OH253098   6.301   1.203  16.547 -0.1196  0.2563 -0.8435
10536TIP3    H153099   6.211   1.178  16.571  0.2383  0.0185  0.3171
10536TIP3    H253100   6.291   1.290  16.508 -0.6439  1.2719  1.3885
10537TIP3   OH253101   5.778   4.857   0.429 -0.1429 -0.5223 -0.5890
10537TIP3    H153102   5.805   4.925   0.490  2.4814 -0.1411 -1.9830
10537TIP3    H253103   5.741   4.788   0.483  1.6371 -0.0155  1.4013
10538TIP3   OH253104   6.503   3.777  16.096  0.2150  0.1490 -0.3788
10538TIP3    H153105   6.494   3.751  16.188 -0.6122 -0.7913 -0.7063
10538TIP3    H253106   6.415   3.768  16.060  0.4745  0.7958 -1.1988
10539TIP3   OH253107   3.419   0.196  14.153 -0.0636  0.5239  0.2403
10539TIP3    H153108   3.438   0.108  14.119 -0.6389  1.1118 -1.7180
10539TIP3    H253109   3.471   0.202  14.233  1.1504 -1.0679 -0.3746
10540TIP3   OH253110   6.535   2.560  16.084  0.0056  0.4404 -0.0193
10540TIP3    H153111   6.536   2.496  16.013  1.1460  1.3094 -0.8297
10540TIP3    H253112   6.454   2.608  16.072  0.0832  0.4311 -0.6091
10541TIP3   OH253113   4.172   4.973   5.809 -0.8364 -0.5391  0.0349
10541TIP3    H153114   4.088   4.987   5.766 -0.1202 -0.9917 -1.5726
10541TIP3    H253115   4.190   4.880   5.797  0.8848 -0.0643 -1.6200
10542TIP3   OH253116   0.542   5.487   1.628  0.1884 -0.4940 -0.1193
10542TIP3    H153117   0.459   5.455   1.593 -1.9752  1.8470  2.3760
10542TIP3    H253118   0.562   5.427   1.700 -1.8235  1.2841  2.0889
10543TIP3   OH253119   6.716   2.797   0.580  0.3930  0.8905 -0.1583
10543TIP3    H153120   6.719   2.825   0.488  0.1133 -0.4962 -0.6162
10543TIP3    H253121   6.774   2.858   0.626  1.5541  0.8176 -1.4692
10544TIP3   OH253122   5.909   0.380   4.455 -0.5304 -0.2951 -0.0305
10544TIP3    H153123   5.847   0.319   4.494  1.0179 -1.9706 -0.0465
10544TIP3    H253124   5.911   0.357   4.362  0.2917 -0.4694  0.0158
10545TIP3   OH253125   4.182   5.972   2.700 -0.2430 -0.7212  0.3406
10545TIP3    H153126   4.238   5.943   2.628  0.1211  1.1699 -0.1852
10545TIP3    H253127   4.097   5.989   2.659  0.6357  2.8663 -0.2725
10546TIP3   OH253128   3.645   0.708  16.179  0.1950 -0.3123 -0.6506
10546TIP3    H153129   3.647   0.665  16.264  1.7904 -3.0285 -1.9265
10546TIP3    H253130   3.620   0.798  16.198  0.0646 -0.9301  2.6078
10547TIP3   OH253131   1.692   1.642   4.532  0.6126 -0.2274  0.7884
10547TIP3    H153132   1.746   1.681   4.601  0.4361 -0.6961  1.1972
10547TIP3    H253133   1.638   1.577   4.578  1.0714 -1.1140  0.0825
10548TIP3   OH253134   2.263   4.654   3.283 -0.1549  0.8740 -0.4876
10548TIP3    H153135   2.176   4.625   3.309  0.6578 -0.6414  0.6605
10548TIP3    H253136   2.253   4.679   3.191 -1.5143 -0.4993 -0.7491
10549TIP3   OH253137   3.169   2.049  13.891 -0.1121  0.5346 -0.1944
10549TIP3    H153138   3.102   2.104  13.849 -0.0069 -0.5977 -1.9906
10549TIP3    H253139   3.251   2.097  13.877  0.0832 -0.2896 -2.3790
10550TIP3   OH253140   4.553   1.600   3.631 -0.2423 -0.0966 -0.2246
10550TIP3    H153141   4.604   1.656   3.572  0.1207  0.4446  0.5803
10550TIP3    H253142   4.613   1.528   3.653 -0.6050 -0.6499 -1.0233
10551TIP3   OH253143   5.093   3.553   0.383  0.0858 -0.2217  0.2504
10551TIP3    H153144   5.179   3.594   0.382 -0.1325  0.2413  0.0940
10551TIP3    H253145   5.079   3.529   0.475  1.4171 -2.5552 -0.0761
10552TIP3   OH253146   2.244   4.874  15.845 -0.0813 -0.4558 -0.3622
10552TIP3    H153147   2.246   4.907  15.756 -0.3129  0.0318 -0.1905
10552TIP3    H253148   2.259   4.780  15.836 -1.4464 -0.6451 -1.0475
10553TIP3   OH253149   4.293   0.873  15.831  0.0335  0.4817 -0.1978
10553TIP3    H153150   4.282   0.783  15.801 -0.1690 -0.2732  2.0193
10553TIP3    H253151   4.375   0.902  15.791  0.1287 -0.6891 -0.8788
10554TIP3   OH253152   2.654   3.463   4.128  0.1759 -0.0874  0.2750
10554TIP3    H153153   2.587   3.517   4.170 -2.3504 -1.3131 -1.8725
10554TIP3    H253154   2.699   3.420   4.200 -2.3166 -0.2750  1.8447
10555TIP3   OH253155   3.392   4.460   6.718 -0.1020  0.3966 -0.0603
10555TIP3    H153156   3.474   4.508   6.727 -0.5924  1.9415 -2.8425
10555TIP3    H253157   3.376   4.424   6.805  2.8482  1.1072  0.8842
10556TIP3   OH253158   3.569   5.555  13.694  0.2557 -0.1603 -0.4648
10556TIP3    H153159   3.519   5.473  13.698 -0.0005  0.0147 -0.1342
10556TIP3    H253160   3.518   5.617  13.745  0.4855  0.1917 -0.6623
10557TIP3   OH253161   0.582   5.519   3.228  0.0123  0.5109  0.0154
10557TIP3    H153162   0.490   5.533   3.253  0.0856 -1.2307  1.4773
10557TIP3    H253163   0.631   5.580   3.283 -0.1799  0.4764  0.2270
10558TIP3   OH253164   5.104   6.048  16.504 -0.1467  0.1741  0.2092
10558TIP3    H153165   5.024   6.014  16.465  0.0542  1.7455 -1.7283
10558TIP3    H253166   5.081   6.135  16.535  0.8925  0.8460 -0.8104
10559TIP3   OH253167   2.280   2.479  14.577 -0.6867 -0.2548 -0.0472
10559TIP3    H153168   2.261   2.534  14.501  0.4564  0.0156 -0.1625
10559TIP3    H253169   2.307   2.540  14.646 -1.3434 -0.5258  0.4615
10560TIP3   OH253170   4.690   1.397  15.227 -0.3522  0.3746 -0.3570
10560TIP3    H153171   4.694   1.343  15.148 -0.1738  1.1044 -0.8469
10560TIP3    H253172   4.772   1.447  15.227 -1.5907  2.5243 -1.2583
10561TIP3   OH253173   2.403   6.478   0.699  0.0504  0.4579 -0.2215
10561TIP3    H153174   2.496   6.479   0.722 -0.1060  0.8647  0.4238
10561TIP3    H253175   2.401   6.467   0.604  0.7436 -0.4615 -0.1413
10562TIP3   OH253176   3.312   4.307   4.111  0.2066 -0.5937  0.1596
10562TIP3    H153177   3.363   4.325   4.032  1.0505  0.4967  0.9207
10562TIP3    H253178   3.221   4.308   4.081  0.3905  1.5699 -0.5311
10563TIP3   OH253179   3.217   0.013  10.743  0.2586 -0.4756  0.1789
10563TIP3    H153180   3.278   0.087  10.742  0.2688 -0.4619  0.9155
10563TIP3    H253181   3.136   0.048  10.707  0.5001 -0.3258 -0.2281
10564TIP3   OH253182   2.716   3.306  13.885  0.6690 -0.1576  0.4774
10564TIP3    H153183   2.776   3.352  13.944 -0.7995  1.5461  0.7552
10564TIP3    H253184   2.688   3.229  13.935  2.8222 -1.1999  0.1944
10565TIP3   OH253185   5.104   6.250   6.251  0.1016 -0.0520 -0.2278
10565TIP3    H153186   5.089   6.169   6.203  1.4234 -0.5415  0.1363
10565TIP3    H253187   5.195   6.273   6.230 -0.5668  1.9111 -1.1518
10566TIP3   OH253188   3.865   5.831  15.743 -0.2396  0.3602  0.3538
10566TIP3    H153189   3.916   5.910  15.729 -1.3246  1.3202  1.5480
10566TIP3    H253190   3.866   5.786  15.658  0.7898  1.4011 -0.2088
10567TIP3   OH253191   4.999   4.250  17.046 -0.6757  0.0471 -0.0974
10567TIP3    H153192   4.998   4.260  17.141 -0.3023 -0.4897 -0.0377
10567TIP3    H253193   4.907   4.260  17.020 -0.4312  4.1780 -0.1268
10568TIP3   OH253194   4.920   5.183   4.559 -0.6059  0.1105 -0.5625
10568TIP3    H153195   4.970   5.102   4.558 -1.1267 -0.3428  2.3734
10568TIP3    H253196   4.947   5.228   4.639 -3.2158  0.9144 -0.0261
10569TIP3   OH253197   4.802   6.736   5.737  0.3457 -0.8884 -0.0462
10569TIP3    H153198   4.732   6.670   5.744 -0.1502 -0.3130  0.5917
10569TIP3    H253199   4.794   6.771   5.648 -1.3869  0.4543  0.5773
10570TIP3   OH253200   2.499   4.085   4.315 -0.0477 -0.4570  0.1308
10570TIP3    H153201   2.459   4.172   4.312 -0.8057 -0.8114 -2.1053
10570TIP3    H253202   2.592   4.101   4.330  0.0422  0.8559 -1.5392
10571TIP3   OH253203   5.628   1.753  12.608 -0.4220 -0.0968  0.0919
10571TIP3    H153204   5.573   1.675  12.609 -0.6161 -0.0123 -1.2736
10571TIP3    H253205   5.704   1.727  12.555  0.0505  0.2957  0.5708
10572TIP3   OH253206   3.323   2.536   1.862 -0.2615  0.4781  0.2512
10572TIP3    H153207   3.310   2.631   1.860  0.4909  0.5940  0.2500
10572TIP3    H253208   3.242   2.501   1.897  0.0244  1.2519  1.7850
10573TIP3   OH253209   2.931   0.197  15.002 -0.5591  0.2549  0.0841
10573TIP3    H153210   2.864   0.188  14.934  0.4428 -1.2164 -0.7654
10573TIP3    H253211   2.887   0.245  15.073 -2.2480  0.0496 -0.7727
10574TIP3   OH253212   3.446   6.269  15.687 -0.2424 -0.0456  0.3610
10574TIP3    H153213   3.438   6.174  15.692 -2.5743  0.0316 -0.4939
10574TIP3    H253214   3.504   6.293  15.759 -0.4378 -2.0257  1.2322
10575TIP3   OH253215   6.090   2.744  15.935 -0.2351  0.5098 -0.8477
10575TIP3    H153216   6.026   2.802  15.976 -2.5102 -0.9150 -2.1071
10575TIP3    H253217   6.038   2.670  15.903  2.1373 -0.9631 -1.6122
10576TIP3   OH253218   0.552   4.874   5.092 -0.1845 -0.5452  0.4140
10576TIP3    H153219   0.527   4.782   5.084 -0.6387 -0.4693  0.9448
10576TIP3    H253220   0.638   4.871   5.135 -0.5063 -0.7031  1.0650
10577TIP3   OH253221   0.674   0.400  15.322 -0.3560 -0.5176  0.0295
10577TIP3    H153222   0.657   0.332  15.257 -0.4238 -1.6301  1.1693
10577TIP3    H253223   0.624   0.373  15.399  0.6115  0.1622  0.9339
10578TIP3   OH253224   4.995   2.685  15.391 -0.3417 -0.2351 -0.1437
10578TIP3    H153225   4.901   2.685  15.406 -0.0349  0.9158  2.1842
10578TIP3    H253226   5.022   2.776  15.403  1.4504 -0.9993  2.6219
10579TIP3   OH253227   4.535   3.982  14.553 -0.0252 -0.2745 -0.1123
10579TIP3    H153228   4.476   4.057  14.544 -0.1492 -0.3898 -0.2906
10579TIP3    H253229   4.610   4.004  14.498 -0.2312 -0.4429 -0.4693
10580TIP3   OH253230   2.456   4.427   0.780 -0.1518 -0.1022 -0.4310
10580TIP3    H153231   2.461   4.487   0.705  0.4266 -0.4184 -0.6518
10580TIP3    H253232   2.531   4.452   0.834 -0.4797  0.0213 -0.0301
10581TIP3   OH253233   4.070   1.795  17.572 -0.3813 -0.0585 -0.0893
10581TIP3    H153234   4.155   1.787  17.527  0.0734  0.1165  0.7233
10581TIP3    H253235   4.045   1.704  17.592 -1.3230 -0.2770 -1.9900
10582TIP3   OH253236   6.410   0.992  13.125  0.0649  0.1992  0.4833
10582TIP3    H153237   6.338   1.047  13.092  0.6009  1.4260  1.2794
10582TIP3    H253238   6.479   1.001  13.059 -0.3420 -0.6512 -0.0757
10583TIP3   OH253239   4.095   5.747   2.506  0.0005 -0.2333  0.2970
10583TIP3    H153240   4.001   5.748   2.524 -0.1040  0.2959 -0.2252
10583TIP3    H253241   4.111   5.829   2.459  0.4524 -0.9913 -0.9242
10584TIP3   OH253242   4.388   2.524  11.795 -0.0334 -0.2607  0.1800
10584TIP3    H153243   4.456   2.516  11.862  0.4416  1.1499 -0.1065
10584TIP3    H253244   4.395   2.443  11.744  0.9887 -0.4308  0.5654
10585TIP3   OH253245   4.753   4.095   5.237 -0.2994  0.0465 -0.5661
10585TIP3    H153246   4.833   4.060   5.199  0.2658 -0.0253  0.6525
10585TIP3    H253247   4.685   4.032   5.213  0.2769 -0.6504 -0.3957
10586TIP3   OH253248   0.474   3.264   5.942 -0.0209  0.0882  0.1355
10586TIP3    H153249   0.475   3.176   5.981 -0.4417 -0.6375 -1.3730
10586TIP3    H253250   0.508   3.250   5.853  0.1303  1.5026 -0.0412
10587TIP3   OH253251   6.414   3.025  14.226  0.3721  0.2625  0.2599
10587TIP3    H153252   6.420   3.069  14.141 -1.8698  1.3466  0.6084
10587TIP3    H253253   6.345   2.960  14.214  2.4617 -2.1144  0.2738
10588TIP3   OH253254   0.523   3.026   0.372  0.3527 -0.1527  0.4991
10588TIP3    H153255   0.449   2.998   0.426  1.4530  0.9325  2.6831
10588TIP3    H253256   0.501   3.115   0.345 -0.2278 -0.7163 -0.9922
10589TIP3   OH253257   6.386   4.366   1.894  0.2173  0.0177  0.7648
10589TIP3    H153258   6.316   4.365   1.829  0.1378 -0.6434  0.8603
10589TIP3    H253259   6.391   4.458   1.922 -0.8853  0.0051  1.0496
10590TIP3   OH253260   0.457   6.507  17.055 -0.0760 -0.0480 -0.0284
10590TIP3    H153261   0.457   6.423  17.101  1.5345  0.7134  1.5138
10590TIP3    H253262   0.528   6.557  17.097  0.1982  1.4284 -2.1012
10591TIP3   OH253263   4.955   1.327  13.604 -0.3828 -0.2180 -0.2728
10591TIP3    H153264   4.915   1.412  13.584  1.0472  0.2928 -1.1472
10591TIP3    H253265   5.041   1.349  13.641  1.1349 -1.1954 -2.8653
10592TIP3   OH253266   2.896   1.251  11.418 -0.3552  0.4806  0.1648
10592TIP3    H153267   2.855   1.197  11.486 -1.0812 -1.4841 -1.7210
10592TIP3    H253268   2.824   1.273  11.359  0.6116  0.2725 -1.1227
10593TIP3   OH253269   6.658   2.651  15.816  0.1911  0.3078  0.0782
10593TIP3    H153270   6.621   2.691  15.895 -0.3103  2.2072 -1.0390
10593TIP3    H253271   6.583   2.609  15.774  0.1974  0.3750 -0.0008
10594TIP3   OH253272   6.734   2.189  12.462  0.1240  0.7056  0.6246
10594TIP3    H153273   6.799   2.180  12.392 -0.3232  2.0126  0.0163
10594TIP3    H253274   6.786   2.209  12.540  0.5458  0.3293  0.4483
10595TIP3   OH253275   2.385   6.044   0.368 -0.1789  0.0102  0.6987
10595TIP3    H153276   2.437   6.121   0.392 -0.5053  0.1415  0.9772
10595TIP3    H253277   2.402   6.034   0.274 -1.0885  1.1545  0.3905
10596TIP3   OH253278   3.550   6.622   4.459 -0.0371 -0.2058 -0.3454
10596TIP3    H153279   3.550   6.607   4.365 -1.9336  0.7689 -0.5439
10596TIP3    H253280   3.524   6.713   4.470 -0.9823 -0.6174  1.1437
10597TIP3   OH253281   0.466   0.093   2.042  0.5513 -0.5971 -0.3608
10597TIP3    H153282   0.519   0.148   2.099  0.4060 -2.0616  1.2806
10597TIP3    H253283   0.441   0.150   1.970  1.6148  1.0396  0.4985
10598TIP3   OH253284   6.171   2.971   1.945  0.3131 -0.6708 -0.5156
10598TIP3    H153285   6.094   3.019   1.913 -0.0990  0.4601  1.9376
10598TIP3    H253286   6.167   2.887   1.900 -2.0774 -0.4486 -0.8673
10599TIP3   OH253287   4.240   1.403   4.927 -0.2077 -0.0262 -0.0457
10599TIP3    H153288   4.159   1.405   4.978 -0.6837  2.5605 -0.7902
10599TIP3    H253289   4.211   1.401   4.836  0.6487 -3.0871 -0.3826
10600TIP3   OH253290   6.683   6.418   3.087  0.1418 -0.2597  0.3080
10600TIP3    H153291   6.697   6.485   3.154 -0.1402 -0.1741  0.2796
10600TIP3    H253292   6.651   6.342   3.135  0.5780 -0.4156  0.3562
10601TIP3   OH253293   0.319   1.970   5.694  0.2741  0.0853  0.4631
10601TIP3    H153294   0.324   1.927   5.780 -0.0768  0.5250  0.7108
10601TIP3    H253295   0.286   1.902   5.635 -0.6362  0.1002  0.9280
10602TIP3   OH253296   5.027   6.483   3.712  0.2034 -0.0035 -0.4303
10602TIP3    H153297   5.031   6.578   3.704 -1.2329 -0.0177 -1.8252
10602TIP3    H253298   5.001   6.452   3.625  1.3145 -1.7411 -0.2112
10603TIP3   OH253299   2.912   6.418  16.804 -0.1891  0.5197  0.3701
10603TIP3    H153300   2.916   6.363  16.882 -0.3520 -0.6716 -0.4502
10603TIP3    H253301   2.941   6.361  16.733 -2.7244  0.7117 -0.9210
10604TIP3   OH253302   5.765   5.665  13.481  0.6956 -0.0920 -0.2612
10604TIP3    H153303   5.684   5.614  13.476  1.2083 -1.0295  0.5354
10604TIP3    H253304   5.739   5.754  13.457 -0.5905 -0.3482  0.0933
10605TIP3   OH253305   0.200   5.633  17.613 -0.3709 -0.1910  0.0757
10605TIP3    H153306   0.258   5.654  17.687  0.6015  0.4505 -0.8446
10605TIP3    H253307   0.223   5.543  17.590  2.8196  1.0555 -2.4316
10606TIP3   OH253308   4.316   0.860  12.379 -0.0691  0.0289  0.1790
10606TIP3    H153309   4.321   0.945  12.336 -1.2773 -0.2767 -0.6011
10606TIP3    H253310   4.265   0.877  12.458 -0.2574  0.0320  0.0559
10607TIP3   OH253311   2.637   6.262   6.438  0.0386 -0.3863  0.7198
10607TIP3    H153312   2.573   6.331   6.419 -0.2434 -0.7243  0.3995
10607TIP3    H253313   2.586   6.194   6.483  0.3333 -0.3421  1.1246
10608TIP3   OH253314   6.481   2.422  12.492 -0.5336  0.2163 -0.0987
10608TIP3    H153315   6.396   2.424  12.536 -0.3511 -1.5311  0.4200
10608TIP3    H253316   6.468   2.364  12.417  0.5417 -1.4105  0.8931
10609TIP3   OH253317   0.880   5.042   5.206 -0.0821 -0.5457  0.8053
10609TIP3    H153318   0.960   5.042   5.153 -0.4080 -1.8294  0.2673
10609TIP3    H253319   0.854   4.950   5.209 -0.0243 -0.5356  3.3062
10610TIP3   OH253320   6.073   0.685  12.772 -0.1206 -0.6078  0.0615
10610TIP3    H153321   6.006   0.619  12.752  0.3614 -0.8458 -0.8443
10610TIP3    H253322   6.098   0.666  12.862 -0.8794 -0.8656  0.2333
10611TIP3   OH253323   0.061   1.437  16.311  0.2537  0.8290  0.2817
10611TIP3    H153324   0.087   1.483  16.391 -0.6535  1.0414  0.4707
10611TIP3    H253325  -0.008   1.376  16.340  1.3149 -0.5560  0.0108
10612TIP3   OH253326   2.691   3.677  17.361 -0.0554  0.1929 -0.0078
10612TIP3    H153327   2.695   3.659  17.455 -1.9054 -0.4758 -0.0210
10612TIP3    H253328   2.656   3.766  17.356  1.1117  0.6666 -0.0738
10613TIP3   OH253329   4.791   3.118   6.153 -0.7610  0.0937  0.4425
10613TIP3    H153330   4.789   3.025   6.132  0.5043  0.4305 -1.3630
10613TIP3    H253331   4.851   3.125   6.228  0.7477 -0.3547 -0.6795
10614TIP3   OH253332   3.977   0.970  16.166 -0.0622 -0.6489  0.0602
10614TIP3    H153333   4.002   0.985  16.075  2.2936 -0.5193  0.6690
10614TIP3    H253334   4.016   0.886  16.189  0.6053 -0.0281  1.3364
10615TIP3   OH253335   1.240   2.015  16.760 -0.3211 -0.5358  0.0291
10615TIP3    H153336   1.220   2.031  16.668  0.7373 -1.7641 -0.4544
10615TIP3    H253337   1.184   2.075  16.809 -0.2658  0.7536 -1.4465
10616TIP3   OH253338   2.821   2.249   3.666 -0.3967  0.0350  0.8406
10616TIP3    H153339   2.891   2.186   3.650  0.7223  1.4225  0.0247
10616TIP3    H253340   2.748   2.218   3.612  0.8177  0.4887 -1.1662
10617TIP3   OH253341   2.925   0.638  16.857 -0.7866  0.1904 -0.1731
10617TIP3    H153342   2.859   0.703  16.877 -2.3690 -1.6094  0.7486
10617TIP3    H253343   2.890   0.591  16.781 -1.6796 -2.1561  1.5996
10618TIP3   OH253344   4.351   0.496  11.997  0.0689  0.4075  0.2702
10618TIP3    H153345   4.421   0.524  12.056 -0.0983 -0.3763  0.8565
10618TIP3    H253346   4.297   0.574  11.985 -0.9906  0.1277  2.7257
10619TIP3   OH253347   4.849   0.056   2.092 -0.4536 -0.1903 -0.4088
10619TIP3    H153348   4.856  -0.021   2.147  1.6777  0.7036  0.6634
10619TIP3    H253349   4.853   0.022   2.002  2.1985 -1.2327  0.0413
10620TIP3   OH253350   1.792   3.670   5.585 -0.2009  0.3848 -0.0812
10620TIP3    H153351   1.821   3.633   5.668 -0.3200 -2.3675 -1.1406
10620TIP3    H253352   1.697   3.654   5.584  0.0189 -1.1562 -1.3569
10621TIP3   OH253353   1.135   6.498   1.491 -0.1187 -0.0469 -0.1029
10621TIP3    H153354   1.047   6.484   1.525  0.6199  0.2965  2.0948
10621TIP3    H253355   1.175   6.562   1.550  1.8134 -0.6412 -0.6618
10622TIP3   OH253356   0.664   1.219   1.720 -0.2052  0.3594  0.5432
10622TIP3    H153357   0.626   1.151   1.665  0.0059 -0.0429  0.8895
10622TIP3    H253358   0.590   1.253   1.771 -0.3811  0.6581  0.1037
10623TIP3   OH253359   2.805   4.410   1.407 -0.2740  0.2962 -0.6915
10623TIP3    H153360   2.712   4.389   1.414 -0.1355  0.2659  2.7209
10623TIP3    H253361   2.809   4.506   1.410 -0.1882  0.2795  1.5673
10624TIP3   OH253362   2.856   0.766  12.060 -0.7763  0.2123 -0.2177
10624TIP3    H153363   2.845   0.860  12.046  1.2050  0.3852 -0.9999
10624TIP3    H253364   2.826   0.727  11.977 -4.0659 -0.1602  0.9836
10625TIP3   OH253365   2.520   5.256  13.860 -0.7943  0.0178 -0.6738
10625TIP3    H153366   2.522   5.313  13.783 -0.5333  0.9885  0.0288
10625TIP3    H253367   2.611   5.239  13.880 -0.8807 -1.5053 -1.4726
10626TIP3   OH253368   0.402   1.971  16.824 -0.4957  0.1332 -1.2219
10626TIP3    H153369   0.464   2.009  16.887 -0.4541  1.0416 -1.7978
10626TIP3    H253370   0.327   1.946  16.877 -0.2850  0.4936 -0.7453
10627TIP3   OH253371   4.550   5.414   2.860  0.7805 -0.7623 -0.1294
10627TIP3    H153372   4.479   5.461   2.904  0.8728 -1.4830  0.8250
10627TIP3    H253373   4.540   5.436   2.767  0.0958  0.1610  0.1540
10628TIP3   OH253374   6.278   2.945   3.633 -0.1260  0.2284 -0.0346
10628TIP3    H153375   6.274   2.887   3.708 -0.8081  0.6110  0.2261
10628TIP3    H253376   6.357   2.998   3.648 -0.0635  0.0636  0.2249
10629TIP3   OH253377   4.341   6.576  13.548 -0.2680 -0.4494 -0.3187
10629TIP3    H153378   4.261   6.524  13.558  0.9157 -2.0721  1.4590
10629TIP3    H253379   4.407   6.514  13.518  0.7591  0.4371  0.0231
10630TIP3   OH253380   3.711   6.126   2.737 -0.0098 -0.2785  0.3935
10630TIP3    H153381   3.711   6.198   2.673  0.4455 -1.3397 -0.8394
10630TIP3    H253382   3.623   6.128   2.774 -0.6548 -0.2936 -1.0592
10631TIP3   OH253383   2.601   6.651  13.686 -0.1456 -0.0186 -0.2789
10631TIP3    H153384   2.568   6.738  13.662  0.3021 -0.1108 -1.2734
10631TIP3    H253385   2.551   6.628  13.764  0.8566  1.8245  1.0049
10632TIP3   OH253386   3.742   1.071   5.393 -0.6031  0.4738 -0.4681
10632TIP3    H153387   3.727   0.979   5.370 -0.8225  0.7490 -1.4635
10632TIP3    H253388   3.782   1.068   5.480 -0.1794 -0.5863 -0.6874
10633TIP3   OH253389   2.063   1.235  17.106 -0.0157  0.1632 -0.6073
10633TIP3    H153390   2.104   1.155  17.074 -0.0958 -0.0223 -0.2490
10633TIP3    H253391   1.987   1.205  17.156 -0.4450  0.4908 -1.0523
10634TIP3   OH253392   1.491   4.499  13.000 -0.3386 -0.1138  0.2296
10634TIP3    H153393   1.403   4.475  12.972 -0.3205  0.3908 -0.2868
10634TIP3    H253394   1.516   4.571  12.942  1.1622 -1.4730 -0.8799
10635TIP3   OH253395   0.446   1.995   1.457  0.4896 -0.0440 -0.1363
10635TIP3    H153396   0.517   1.980   1.519 -0.0593 -1.8377  0.1064
10635TIP3    H253397   0.479   1.958   1.374  0.0840 -0.3250 -0.1744
10636TIP3   OH253398   4.502   5.507  13.984  0.4839  0.1812 -0.3441
10636TIP3    H153399   4.536   5.530  13.898  0.2353  1.7327 -0.0640
10636TIP3    H253400   4.507   5.588  14.035  2.2481 -1.0915  1.6772
10637TIP3   OH253401   3.942   1.094   1.723  0.3751  0.3000  0.4277
10637TIP3    H153402   3.878   1.161   1.700  0.6714  0.4578  0.0452
10637TIP3    H253403   4.021   1.142   1.746  0.2252  0.1205  1.3360
10638TIP3   OH253404   5.134   4.886   2.870  0.5083  0.7114  0.1204
10638TIP3    H153405   5.170   4.822   2.932 -3.1585  0.1398  1.9997
10638TIP3    H253406   5.167   4.971   2.901  3.2676  0.0634 -0.7600
10639TIP3   OH253407   5.506   3.719   2.346 -0.1515 -0.0432 -1.0010
10639TIP3    H153408   5.469   3.722   2.258 -1.6940 -1.7121 -0.4805
10639TIP3    H253409   5.553   3.636   2.350 -0.4836 -0.2073 -0.1347
10640TIP3   OH253410   6.570   2.567   5.801  0.7819 -0.2788 -0.6516
10640TIP3    H153411   6.499   2.523   5.755  1.1412 -0.8680 -0.6518
10640TIP3    H253412   6.650   2.523   5.771  1.0631 -0.3442  0.1475
10641TIP3   OH253413   2.632   0.075   6.165  0.1766 -0.4017 -0.3330
10641TIP3    H153414   2.696   0.050   6.232 -0.2618 -0.7074 -0.0203
10641TIP3    H253415   2.586   0.149   6.203  1.2388  0.7079 -1.1146
10642TIP3   OH253416   3.709   0.013   5.705  0.0033  0.0498  0.0952
10642TIP3    H153417   3.706  -0.005   5.799  1.4255  0.5394  0.2576
10642TIP3    H253418   3.781  -0.041   5.673  0.2770  0.7531 -0.5030
10643TIP3   OH253419   4.605   3.873  14.789 -0.0377  0.6034 -0.3773
10643TIP3    H153420   4.569   3.913  14.868  2.1682  2.4495 -0.1864
10643TIP3    H253421   4.557   3.914  14.717 -1.3331 -0.3092 -0.0648
10644TIP3   OH253422   3.113   1.705  15.861  0.3414  0.2765 -0.2486
10644TIP3    H153423   3.174   1.742  15.924 -1.0835  1.2594  0.6079
10644TIP3    H253424   3.027   1.727  15.895 -0.5772 -2.3719 -0.6154
10645TIP3   OH253425   1.147   2.510  12.422  0.1965 -0.3931  0.1936
10645TIP3    H153426   1.176   2.504  12.513  0.0168 -1.9691  0.1833
10645TIP3    H253427   1.146   2.419  12.391 -0.0348  0.0790 -1.2981
10646TIP3   OH253428   1.542   4.996  12.660 -0.1491 -0.3403  0.4818
10646TIP3    H153429   1.466   4.963  12.614  0.1503 -0.8551  0.3487
10646TIP3    H253430   1.617   4.952  12.619  0.1087 -1.0244  1.6219
10647TIP3   OH253431   6.664   5.236   5.316 -0.2683  0.2962  0.0123
10647TIP3    H153432   6.582   5.265   5.277 -0.2312  1.1841  0.5757
10647TIP3    H253433   6.717   5.206   5.242 -0.7574  0.5620 -0.4440
10648TIP3   OH253434   4.526   3.650   6.539 -0.1638  0.2806 -0.1337
10648TIP3    H153435   4.478   3.724   6.501 -0.8461  0.7207  1.5261
10648TIP3    H253436   4.467   3.614   6.605  1.6043  0.6394  1.7556
10649TIP3   OH253437   5.663   3.894  13.709  0.2691  0.5026 -0.2101
10649TIP3    H153438   5.627   3.810  13.680  3.2342 -0.6239 -0.9250
10649TIP3    H253439   5.673   3.885  13.803 -1.6629  1.0397  0.0925
10650TIP3   OH253440   4.018   3.173  11.603 -0.2348 -0.0049 -0.2159
10650TIP3    H153441   4.113   3.166  11.594 -0.3932 -4.3813 -0.7549
10650TIP3    H253442   4.004   3.200  11.694  1.5488 -0.3986  0.2059
10651TIP3   OH253443   1.610   6.134   3.437 -0.1953 -0.2784  0.2650
10651TIP3    H153444   1.586   6.195   3.507 -1.0751  0.5981 -0.7695
10651TIP3    H253445   1.697   6.163   3.410 -0.8948  1.0063 -0.6966
10652TIP3   OH253446   1.110   1.297  16.906 -0.2319  0.4768  0.0785
10652TIP3    H153447   1.109   1.377  16.853 -0.7255  0.3455 -0.1117
10652TIP3    H253448   1.079   1.325  16.992  2.3257  1.0841  0.8926
10653TIP3   OH253449   6.367   0.473  15.921 -0.3768 -0.3766  0.0805
10653TIP3    H153450   6.421   0.477  15.842 -0.5798  0.3534 -0.0271
10653TIP3    H253451   6.394   0.392  15.964 -1.9875 -2.1130 -1.9455
10654TIP3   OH253452   4.754   2.920   2.327  0.5475 -0.6809 -0.1274
10654TIP3    H153453   4.747   2.972   2.246 -3.6741 -0.3071  0.2255
10654TIP3    H253454   4.773   2.831   2.296  1.3122 -0.1484 -1.2926
10655TIP3   OH253455   2.014   6.581  15.154  0.1463 -0.3890 -0.4125
10655TIP3    H153456   2.045   6.665  15.188 -0.5979 -0.7621  1.2586
10655TIP3    H253457   1.985   6.601  15.065  0.6552  0.9657 -0.2931
10656TIP3   OH253458   0.143   4.642  14.890  0.0598 -0.2645  0.1804
10656TIP3    H153459   0.079   4.701  14.849 -0.2168 -1.2301 -0.8426
10656TIP3    H253460   0.200   4.617  14.818  0.5346 -0.7719  0.7325
10657TIP3   OH253461   1.933   6.570   6.814  0.0875  0.7635  0.5693
10657TIP3    H153462   1.942   6.480   6.848 -0.4646 -0.1892 -1.6225
10657TIP3    H253463   1.840   6.591   6.827 -0.2023  0.2669 -0.5290
10658TIP3   OH253464   5.033   2.978   0.970 -0.5746  0.7175  0.1625
10658TIP3    H153465   4.950   2.946   1.004  0.1840 -1.0742  0.4816
10658TIP3    H253466   5.045   2.932   0.887  0.1416  0.8460  0.1855
10659TIP3   OH253467   2.121   0.896   1.374  0.4599  0.1032 -0.7832
10659TIP3    H153468   2.140   0.969   1.433 -1.2674 -1.0053  1.2583
10659TIP3    H253469   2.048   0.927   1.320  1.1739  0.6252 -1.4936
10660TIP3   OH253470   6.443   1.808   3.036  0.1480  0.0529 -0.8827
10660TIP3    H153471   6.523   1.758   3.055  0.3019  0.4865 -0.3671
10660TIP3    H253472   6.467   1.899   3.052 -0.5924  0.1424 -0.2069
10661TIP3   OH253473   0.869   6.370   5.213  0.0720  0.2389 -0.7122
10661TIP3    H153474   0.941   6.433   5.216  0.7986 -0.6021  0.3442
10661TIP3    H253475   0.820   6.386   5.294 -1.6249  1.5446 -1.9281
10662TIP3   OH253476   0.521   4.842   0.480 -0.0069 -0.5884 -0.4767
10662TIP3    H153477   0.544   4.781   0.410  0.5745  0.3646 -1.1373
10662TIP3    H253478   0.537   4.929   0.443 -0.6209 -0.0283  0.5104
10663TIP3   OH253479   5.400   0.081   2.111  0.1686 -0.5782  0.0694
10663TIP3    H153480   5.378   0.108   2.022  0.5502 -0.4378  0.0157
10663TIP3    H253481   5.489   0.114   2.125  0.2955 -1.0245  0.3281
10664TIP3   OH253482   3.590   5.511  12.867  0.5097 -0.4241  0.6530
10664TIP3    H153483   3.626   5.489  12.781 -0.9161 -0.1384 -0.0577
10664TIP3    H253484   3.508   5.460  12.873  0.8436 -0.8507  2.0808
10665TIP3   OH253485   6.691   6.067  13.246  0.0800  0.0639 -0.0367
10665TIP3    H153486   6.768   6.105  13.290  1.5018 -1.7157 -0.8345
10665TIP3    H253487   6.672   6.127  13.174  1.6169 -0.1361 -0.6502
10666TIP3   OH253488   0.144   0.689  15.298 -0.4508  0.1226 -0.2333
10666TIP3    H153489   0.180   0.775  15.321 -0.8537 -0.0923  1.3172
10666TIP3    H253490   0.219   0.641  15.262 -0.0606  0.8742 -0.4578
10667TIP3   OH253491   5.328   6.490  16.410  0.4437  0.2390  0.6144
10667TIP3    H153492   5.383   6.420  16.375 -1.0360 -1.1187  0.9046
10667TIP3    H253493   5.312   6.465  16.501 -0.1823  0.9095  0.6974
10668TIP3   OH253494   3.663   4.974   1.414 -0.2456  0.2553  0.2034
10668TIP3    H153495   3.669   4.885   1.379  1.0836 -0.4547  2.0614
10668TIP3    H253496   3.712   5.028   1.352  0.4583 -0.6330 -0.0413
10669TIP3   OH253497   4.472   5.573   3.357 -0.1687 -0.5957 -0.0388
10669TIP3    H153498   4.425   5.618   3.287  1.7152  3.4749  1.0000
10669TIP3    H253499   4.418   5.587   3.435  0.6236  0.3541  0.3677
10670TIP3   OH253500   1.176   2.992   2.344  0.4096 -0.5335  0.0489
10670TIP3    H153501   1.239   3.063   2.326  0.8054 -1.3024 -1.7785
10670TIP3    H253502   1.225   2.912   2.327  0.1145 -1.3339  2.5715
10671TIP3   OH253503   4.677   1.922   1.538  0.0546 -0.1310 -0.3765
10671TIP3    H153504   4.731   1.948   1.612  0.4468  0.9430 -1.0085
10671TIP3    H253505   4.722   1.960   1.462 -0.1836 -1.4248 -1.2013
10672TIP3   OH253506   4.617   4.285   4.513 -0.0065  0.6266  0.5290
10672TIP3    H153507   4.599   4.270   4.420  1.9983 -0.3522  0.2541
10672TIP3    H253508   4.628   4.197   4.549  1.1269  1.0693  1.2723
10673TIP3   OH253509   3.805   6.008  17.466  0.0572  0.3808 -0.7012
10673TIP3    H153510   3.739   5.977  17.405  0.1271 -0.2227 -0.4751
10673TIP3    H253511   3.876   5.944  17.459 -0.5856 -0.6166  1.1611
10674TIP3   OH253512   0.955   4.297   0.490 -0.4740  0.2003  0.0998
10674TIP3    H153513   0.869   4.270   0.522 -1.1109 -0.6767 -2.1678
10674TIP3    H253514   0.937   4.375   0.437 -0.0273 -0.4568 -1.0546
10675TIP3   OH253515   0.474   6.667   5.232 -0.1751  0.0623 -0.0858
10675TIP3    H153516   0.497   6.760   5.222  0.3786  0.0905  1.2752
10675TIP3    H253517   0.407   6.667   5.301 -1.3061 -0.4286 -1.1369
10676TIP3   OH253518   3.864   5.006  16.670  0.1778  0.6978  0.4055
10676TIP3    H153519   3.800   5.026  16.737 -1.0251  1.2784 -0.8679
10676TIP3    H253520   3.844   5.066  16.598  1.1170 -0.2100 -0.6615
10677TIP3   OH253521   3.123   5.078   3.579 -0.1879 -0.0092 -0.3861
10677TIP3    H153522   3.191   5.024   3.537 -0.1220 -0.5612  0.4155
10677TIP3    H253523   3.099   5.141   3.512 -0.9124 -1.5817 -1.6928
10678TIP3   OH253524   1.255   5.210  11.893  0.6738 -0.5188 -0.2972
10678TIP3    H153525   1.318   5.274  11.924  0.6612 -0.9791  0.6944
10678TIP3    H253526   1.223   5.246  11.810 -0.8160  1.7672  1.1698
10679TIP3   OH253527   0.890   3.726   2.336  0.4867 -0.2212  0.1203
10679TIP3    H153528   0.961   3.663   2.321  1.0425  0.1520  1.0929
10679TIP3    H253529   0.927   3.811   2.313  0.5913  0.0616  1.2709
10680TIP3   OH253530   5.158   5.130   1.640  0.0197 -0.1065 -0.2655
10680TIP3    H153531   5.228   5.183   1.602  0.5228 -0.4147  0.2085
10680TIP3    H253532   5.181   5.040   1.618  0.1036 -0.2551  0.3983
10681TIP3   OH253533   0.549   0.642  15.051 -0.3325 -0.4608  0.0874
10681TIP3    H153534   0.610   0.614  15.119  0.4391 -0.7150 -0.6902
10681TIP3    H253535   0.500   0.564  15.028  1.2555 -1.0624 -1.5032
10682TIP3   OH253536   2.301   2.987  12.137 -0.6347  0.3488  0.3781
10682TIP3    H153537   2.297   3.000  12.042  0.1711  2.6363  0.6120
10682TIP3    H253538   2.220   2.941  12.158 -1.4317  0.9377 -1.2475
10683TIP3   OH253539   6.456   5.607   1.929 -0.5809 -0.6046 -0.6191
10683TIP3    H153540   6.364   5.612   1.956 -0.4122 -1.5296  0.1823
10683TIP3    H253541   6.505   5.599   2.011  0.2797  0.4501 -0.9986
10684TIP3   OH253542   4.763   1.327  11.360 -0.4207  0.5262 -0.2397
10684TIP3    H153543   4.670   1.350  11.350 -0.3329  0.1803 -2.3947
10684TIP3    H253544   4.762   1.239  11.398 -0.9969  0.3977 -0.5381
10685TIP3   OH253545   2.918   3.366   5.281  0.4310 -0.3052  0.0761
10685TIP3    H153546   2.894   3.456   5.305 -0.3548 -0.4910  0.0328
10685TIP3    H253547   2.841   3.333   5.234  0.7287 -0.9884  0.0585
10686TIP3   OH253548   1.901   3.078   3.270  0.0300  0.0831 -0.7356
10686TIP3    H153549   1.853   3.001   3.303  1.9728 -0.6560  0.5978
10686TIP3    H253550   1.948   3.046   3.193 -0.3397  0.3505 -1.0721
10687TIP3   OH253551   6.569   4.724  15.759  0.2723 -0.0592 -0.5077
10687TIP3    H153552   6.497   4.763  15.809 -0.1016  0.1406 -1.1943
10687TIP3    H253553   6.533   4.641  15.728  0.3187  0.0630 -0.8924
10688TIP3   OH253554   6.217   1.036   3.219 -0.3048  0.4200 -0.9637
10688TIP3    H153555   6.265   1.061   3.298 -0.8045  0.7447 -0.7595
10688TIP3    H253556   6.153   1.106   3.206 -1.4105 -0.4931 -0.6443
10689TIP3   OH253557   2.311   2.876  11.622 -0.5696  0.5105 -0.5843
10689TIP3    H153558   2.321   2.954  11.567 -1.7349  1.6474  0.7149
10689TIP3    H253559   2.243   2.824  11.579  0.5285 -0.0368 -1.6979
10690TIP3   OH253560   0.436   5.389  16.164  0.5753 -0.4075 -0.0759
10690TIP3    H153561   0.382   5.326  16.117 -2.0024 -0.3636  2.6116
10690TIP3    H253562   0.517   5.341  16.183  0.3493 -1.4770 -1.5814
10691TIP3   OH253563   3.300   0.225   3.225  0.0637 -0.9516 -0.1533
10691TIP3    H153564   3.274   0.308   3.186  0.8210 -0.4304  0.4392
10691TIP3    H253565   3.373   0.246   3.283 -2.0395 -1.4032  2.9111
10692TIP3   OH253566   2.647   3.361  17.492 -0.3232  0.1142  0.3116
10692TIP3    H153567   2.672   3.449  17.521 -0.0215 -0.1075  0.7230
10692TIP3    H253568   2.661   3.362  17.397 -3.1919  1.4950 -0.2240
10693TIP3   OH253569   3.935   1.359  12.184  0.5551 -0.8148 -0.1676
10693TIP3    H153570   3.888   1.311  12.116  0.2676  0.1267 -0.6576
10693TIP3    H253571   3.986   1.425  12.136  0.7933 -0.5101  0.4941
10694TIP3   OH253572   6.028   6.445   3.002 -0.2425  0.2221  0.0436
10694TIP3    H153573   6.101   6.475   2.947 -0.5250  1.0696  0.1188
10694TIP3    H253574   6.009   6.519   3.059 -2.2112  0.6375 -1.0438
10695TIP3   OH253575   2.696   0.932  14.074 -0.4822 -0.5311  0.0066
10695TIP3    H153576   2.769   0.988  14.048 -1.5477 -0.2271 -2.6945
10695TIP3    H253577   2.716   0.847  14.034 -1.4141 -0.5231 -0.5220
10696TIP3   OH253578   0.389   0.180  12.123  0.1465  0.1096  0.7646
10696TIP3    H153579   0.321   0.131  12.077  1.1881 -0.7426  0.1008
10696TIP3    H253580   0.449   0.209  12.055  2.2935 -2.0828  1.5952
10697TIP3   OH253581   5.277   5.923  10.522  0.1165  0.0160 -0.1066
10697TIP3    H153582   5.207   5.948  10.462  1.2344  0.5129 -1.2283
10697TIP3    H253583   5.287   5.828  10.509  0.8642  0.2439 -1.2777
10698TIP3   OH253584   1.001   4.846   4.383  0.2625  1.1614 -0.0582
10698TIP3    H153585   0.909   4.832   4.404 -0.2889  2.2969 -1.4946
10698TIP3    H253586   1.007   4.939   4.359  2.2681  1.7239  2.2357
10699TIP3   OH253587   4.063   3.720   6.307 -0.9290 -0.4406 -0.4186
10699TIP3    H153588   4.115   3.695   6.384  0.2745  0.1263 -1.0313
10699TIP3    H253589   3.980   3.672   6.319  0.0719 -2.1506  0.0928
10700TIP3   OH253590   3.328   5.322   5.998  0.5001 -0.6075  0.3935
10700TIP3    H153591   3.244   5.347   5.959  0.9035  0.1337 -0.0265
10700TIP3    H253592   3.334   5.377   6.077  0.0332 -1.5527  1.1026
10701TIP3   OH253593   1.226   5.060   0.876  0.1538 -0.0328 -0.0673
10701TIP3    H153594   1.305   5.032   0.923 -0.4917 -2.0347 -0.0929
10701TIP3    H253595   1.245   5.041   0.784 -0.2341 -0.2035 -0.1105
10702TIP3   OH253596   6.409   6.110   4.943 -0.2990  0.1688  0.0906
10702TIP3    H153597   6.394   6.044   5.010 -0.5757  0.1003 -0.0364
10702TIP3    H253598   6.369   6.073   4.864 -2.1123  1.2790  0.4423
10703TIP3   OH253599   2.510   2.399  15.880  0.3767 -0.7739  0.1156
10703TIP3    H153600   2.511   2.332  15.812 -0.1976 -1.2714  0.5868
10703TIP3    H253601   2.603   2.420  15.895  0.4584  1.0954 -2.4992
10704TIP3   OH253602   3.244   3.412   3.412 -0.4465  0.3128  0.4869
10704TIP3    H153603   3.247   3.371   3.326 -0.4786 -0.4914  0.8562
10704TIP3    H253604   3.297   3.354   3.468 -1.7018 -0.0407  1.3493
10705TIP3   OH253605   4.764   4.156  15.199  0.1012 -0.0032 -0.1467
10705TIP3    H153606   4.714   4.221  15.150  3.3906  2.1197 -1.0116
10705TIP3    H253607   4.816   4.111  15.133  0.8761 -0.6735  0.8876
10706TIP3   OH253608   2.084   5.500  17.390 -0.7031  0.3382  0.1112
10706TIP3    H153609   2.033   5.423  17.416 -1.9527  1.5206  1.3191
10706TIP3    H253610   2.026   5.547  17.329  0.1922  0.1676 -0.8986
10707TIP3   OH253611   5.544   6.353  17.127 -0.2590  0.9087 -0.1037
10707TIP3    H153612   5.634   6.353  17.094 -1.5077  0.4522 -3.9202
10707TIP3    H253613   5.548   6.407  17.207  3.3912  0.6849  0.0177
10708TIP3   OH253614   4.124   4.699  17.507 -0.0567  0.3256 -0.0062
10708TIP3    H153615   4.105   4.771  17.447  0.7241  0.3430 -0.2378
10708TIP3    H253616   4.168   4.634  17.453  0.5998  0.3173  0.5344
10709TIP3   OH253617   3.876   0.802  15.401  0.6839 -0.0214 -0.0785
10709TIP3    H153618   3.803   0.852  15.363  0.1796 -1.6346 -1.3181
10709TIP3    H253619   3.838   0.757  15.476  0.1808 -1.4457 -1.1591
10710TIP3   OH253620   4.465   0.269  11.322 -0.6056  0.2001  0.4499
10710TIP3    H153621   4.489   0.362  11.328 -2.1134  0.6075  0.5509
10710TIP3    H253622   4.379   0.264  11.362 -1.0284 -1.0498 -0.5472
10711TIP3   OH253623   0.036   1.330  12.913  0.2131  0.0199 -0.0803
10711TIP3    H153624   0.026   1.391  12.986 -0.6699 -3.1277  2.6557
10711TIP3    H253625  -0.052   1.324  12.875  0.5220  1.1333 -1.0224
10712TIP3   OH253626   4.471   1.637   6.441 -0.1180  0.3053 -0.2537
10712TIP3    H153627   4.480   1.567   6.377  0.8539 -0.1785  0.3954
10712TIP3    H253628   4.519   1.711   6.404 -0.1806  0.2625 -0.4177
10713TIP3   OH253629   6.337   2.704  12.472 -0.1235  0.1906 -0.0865
10713TIP3    H153630   6.347   2.767  12.544 -0.1602  1.5833 -1.2638
10713TIP3    H253631   6.255   2.659  12.491 -2.0069  3.0054 -1.0359
10714TIP3   OH253632   4.385   3.021   5.235 -0.4714 -0.4067 -0.6521
10714TIP3    H153633   4.364   3.087   5.169 -0.7622  0.7040  0.5011
10714TIP3    H253634   4.308   2.964   5.236 -1.7157  1.1591  0.5657
10715TIP3   OH253635   6.550   0.477   4.744  0.1661 -0.0352  0.1202
10715TIP3    H153636   6.601   0.442   4.671 -0.6867  1.9548 -1.5255
10715TIP3    H253637   6.464   0.494   4.707 -0.8731 -0.6449  2.1098
10716TIP3   OH253638   3.155   1.977  12.079 -0.0921 -0.6941  0.2892
10716TIP3    H153639   3.119   1.904  12.129 -0.1180 -1.3135 -0.6031
10716TIP3    H253640   3.083   2.040  12.073 -0.8484 -1.6202 -0.8871
10717TIP3   OH253641   0.200   4.563  15.810 -0.6057 -0.8859  0.0737
10717TIP3    H153642   0.191   4.558  15.715  0.7875  2.1826 -0.3203
10717TIP3    H253643   0.283   4.520  15.829 -0.2635 -0.3675 -0.2506
10718TIP3   OH253644   6.080   0.928   2.293  0.2070 -0.0799  0.3965
10718TIP3    H153645   6.114   0.858   2.350  0.7532  0.1869  0.3999
10718TIP3    H253646   6.047   0.882   2.216  2.2162 -0.2266 -0.4300
10719TIP3   OH253647   1.542   1.018   0.337 -0.1622 -0.1499  0.2179
10719TIP3    H153648   1.462   1.032   0.389 -0.1909  0.2807  0.0617
10719TIP3    H253649   1.611   1.007   0.402 -0.2086  0.3237  0.3535
10720TIP3   OH253650   3.412   1.368   2.266  0.4854  0.3428 -0.4399
10720TIP3    H153651   3.483   1.420   2.228  0.0015  1.7612  0.5263
10720TIP3    H253652   3.346   1.363   2.197  0.7032  0.6675 -0.6728
10721TIP3   OH253653   3.201   3.629  15.896  0.0502 -0.2141  0.5367
10721TIP3    H153654   3.280   3.654  15.847 -0.9216  0.5737 -0.7110
10721TIP3    H253655   3.233   3.579  15.970  1.8251  1.2072  0.7884
10722TIP3   OH253656   5.920   2.011  11.066  0.5963  0.5924 -0.7661
10722TIP3    H153657   5.978   1.937  11.083 -0.0676  0.2390  0.0668
10722TIP3    H253658   5.852   1.976  11.009 -1.7507 -0.5306  2.4212
10723TIP3   OH253659   6.663   1.825   0.254 -0.1007 -0.6420  0.0374
10723TIP3    H153660   6.601   1.896   0.238  1.0080  0.1287 -1.0561
10723TIP3    H253661   6.649   1.801   0.346 -1.7002 -0.2110 -0.0648
10724TIP3   OH253662   1.042   5.835  14.852 -0.1957  0.1521 -0.7809
10724TIP3    H153663   1.038   5.909  14.913 -0.7852 -0.3294 -0.2166
10724TIP3    H253664   0.956   5.794  14.858  0.4157 -1.1394 -0.3645
10725TIP3   OH253665   4.833   3.221  15.165 -0.1195  0.1341  0.2330
10725TIP3    H153666   4.741   3.196  15.175  0.0143 -0.0338  1.0456
10725TIP3    H253667   4.830   3.309  15.128 -0.6011  0.0142 -0.0244
10726TIP3   OH253668   1.447   5.474   1.782 -0.4098 -0.3914  0.6592
10726TIP3    H153669   1.530   5.489   1.737 -0.4882  1.2981  1.0291
10726TIP3    H253670   1.385   5.453   1.712  0.1477 -0.9486  0.3142
10727TIP3   OH253671   2.657   4.003  11.444 -0.1646  0.2669 -0.1723
10727TIP3    H153672   2.664   4.086  11.492  0.6123  1.3643 -2.0597
10727TIP3    H253673   2.706   4.019  11.363 -1.9087 -1.2805 -1.6001
10728TIP3   OH253674   6.657   1.386   0.938  0.2955 -0.2372  0.1287
10728TIP3    H153675   6.603   1.378   0.859  0.3183  1.3867 -0.0991
10728TIP3    H253676   6.649   1.302   0.982  1.3655 -1.7227 -2.2885
10729TIP3   OH253677   2.314   1.153   0.758  0.6075 -0.5109 -0.1093
10729TIP3    H153678   2.235   1.129   0.710  0.2282  0.9259 -0.2356
10729TIP3    H253679   2.319   1.248   0.751  0.7666 -0.2742  2.3290
10730TIP3   OH253680   3.420   6.185  17.671 -0.5318 -0.1878 -0.0010
10730TIP3    H153681   3.454   6.197  17.760 -1.3735  1.4169  0.1645
10730TIP3    H253682   3.360   6.111  17.678 -0.1351 -0.4526  0.6369
10731TIP3   OH253683   4.357   1.125  12.253 -0.4979 -0.0206  0.3508
10731TIP3    H153684   4.353   1.170  12.169  0.2096 -0.8492 -0.1408
10731TIP3    H253685   4.326   1.190  12.316  0.8255  1.2909 -0.2858
10732TIP3   OH253686   0.911   0.988   2.372 -0.0205 -0.2547  0.2700
10732TIP3    H153687   1.007   0.992   2.375  0.0246 -0.9906 -0.0446
10732TIP3    H253688   0.884   0.995   2.463  0.3888 -1.1179  0.4663
10733TIP3   OH253689   5.606   3.083   0.656  0.0042 -0.2425 -0.0917
10733TIP3    H153690   5.633   3.037   0.736 -0.2596  0.1175  0.2077
10733TIP3    H253691   5.592   3.173   0.684 -1.3465 -0.3744 -0.2677
10734TIP3   OH253692   0.064   1.926   3.444 -0.1633 -0.1590 -0.0975
10734TIP3    H153693   0.008   1.872   3.501  0.6467 -1.9170 -0.8816
10734TIP3    H253694   0.010   1.945   3.368 -0.3934 -0.0336  0.0962
10735TIP3   OH253695   4.269   5.070   6.465 -0.1468 -0.3796 -0.5756
10735TIP3    H153696   4.306   5.153   6.435  0.7699 -0.9235 -1.0279
10735TIP3    H253697   4.310   5.004   6.409 -1.0766 -1.1145 -0.4175
10736TIP3   OH253698   1.432   1.105   3.559 -0.0592  0.2130 -0.3567
10736TIP3    H153699   1.506   1.061   3.601 -0.1782 -0.1741 -0.5496
10736TIP3    H253700   1.355   1.074   3.606 -0.1001  0.6392 -0.1367
10737TIP3   OH253701   3.767   5.043   4.498  0.5734  0.3986  0.3557
10737TIP3    H153702   3.789   5.099   4.573 -0.0519  0.9797  0.1228
10737TIP3    H253703   3.695   5.090   4.455  0.8981  0.0399 -0.5768
10738TIP3   OH253704   6.565   4.052  13.875  0.3123 -0.3809  0.3472
10738TIP3    H153705   6.585   4.036  13.967  0.9008  0.4432  0.3748
10738TIP3    H253706   6.479   4.093  13.876 -0.0333 -1.0848  0.4596
10739TIP3   OH253707   6.653   0.034  14.954  0.3825  0.1104 -0.0431
10739TIP3    H153708   6.561   0.039  14.982  1.0133  0.9454  2.1511
10739TIP3    H253709   6.682  -0.052  14.982  0.8448  0.7118  1.4456
10740TIP3   OH253710   2.851   2.488  15.994 -0.1305 -0.2560  0.5404
10740TIP3    H153711   2.918   2.517  15.932 -0.0610 -2.0102 -0.2842
10740TIP3    H253712   2.846   2.558  16.059  2.2366  0.0840  0.4375
10741TIP3   OH253713   5.363   2.315  14.865  0.1321  0.1096  0.1545
10741TIP3    H153714   5.341   2.237  14.814 -0.6578  0.0252  0.6161
10741TIP3    H253715   5.294   2.378  14.843  0.5176  0.5287  0.1275
10742TIP3   OH253716   0.551   5.704   2.166 -0.6309 -0.4335  0.0013
10742TIP3    H153717   0.590   5.791   2.159 -1.3008 -0.1844 -0.6493
10742TIP3    H253718   0.457   5.719   2.171 -0.6732 -0.9385  3.0890
10743TIP3   OH253719   2.931   0.774   3.445 -0.4643 -0.0620  0.2820
10743TIP3    H153720   2.905   0.682   3.445  1.3786 -0.6249 -0.7336
10743TIP3    H253721   2.988   0.782   3.522 -0.5607  0.2237  0.3247
10744TIP3   OH253722   3.313   4.545  16.862 -0.2517  0.0558  0.4447
10744TIP3    H153723   3.277   4.469  16.815  0.3013 -0.0592  0.1976
10744TIP3    H253724   3.330   4.512  16.950  1.3748 -0.5554 -0.0538
10745TIP3   OH253725   1.889   3.751  13.080  0.1597 -0.0837 -0.3242
10745TIP3    H153726   1.845   3.822  13.033  1.7185  0.4084 -1.1046
10745TIP3    H253727   1.819   3.690  13.101 -0.9111  0.6915 -1.4705
10746TIP3   OH253728   1.587   3.070   0.994  0.0055  0.0931 -0.7110
10746TIP3    H153729   1.552   3.158   0.986 -0.1924  0.1066  0.1978
10746TIP3    H253730   1.680   3.078   0.976  0.1595  0.6510  0.3130
10747TIP3   OH253731   6.303   0.155  13.364  0.1667 -0.0664 -0.5052
10747TIP3    H153732   6.221   0.160  13.413 -0.1453 -0.7528 -0.9423
10747TIP3    H253733   6.350   0.082  13.404  1.0452  0.9732  0.4371
10748TIP3   OH253734   2.763   3.019  17.295 -0.1826  0.6752 -0.3682
10748TIP3    H153735   2.674   2.988  17.307  0.3241 -0.5592  0.4000
10748TIP3    H253736   2.757   3.082  17.223 -1.7281  0.9489 -0.0368
10749TIP3   OH253737   4.174   4.600   2.767 -0.4681  0.9512  0.4650
10749TIP3    H153738   4.263   4.579   2.796 -0.2149  2.3900  0.7850
10749TIP3    H253739   4.134   4.642   2.843 -1.5666 -0.0427  0.4521
10750TIP3   OH253740   6.576   2.052  14.187 -0.4175  0.0609  0.2306
10750TIP3    H153741   6.553   2.055  14.280 -0.4578 -0.5755  0.2499
10750TIP3    H253742   6.521   2.117  14.145  0.1116  0.8628  0.7596
10751TIP3   OH253743   3.538   0.794   3.871 -0.2993  0.1914  0.5476
10751TIP3    H153744   3.560   0.871   3.923  1.6073 -0.1496  0.2983
10751TIP3    H253745   3.458   0.819   3.824  0.8380  2.4029 -0.3289
10752TIP3   OH253746   4.156   1.088   2.888 -0.0004  0.5398 -0.4762
10752TIP3    H153747   4.074   1.044   2.912  1.7972 -3.1439 -0.3639
10752TIP3    H253748   4.183   1.132   2.969 -0.8581  0.0099  0.1260
10753TIP3   OH253749   1.843   4.949   5.706 -0.0531 -0.5090  0.5906
10753TIP3    H153750   1.892   4.869   5.724 -1.3621 -1.2710  0.8986
10753TIP3    H253751   1.909   5.017   5.703  1.0276 -1.5069  0.9515
10754TIP3   OH253752   4.857   5.798   2.801  0.5568 -0.4268 -0.4524
10754TIP3    H153753   4.827   5.882   2.768  0.3695 -0.1729  0.3463
10754TIP3    H253754   4.861   5.742   2.724 -0.9966 -0.1769 -0.7442
10755TIP3   OH253755   6.179   3.054  15.632 -0.1318 -0.4179 -0.6584
10755TIP3    H153756   6.225   2.994  15.690  0.0370 -0.8414 -1.2140
10755TIP3    H253757   6.087   3.032  15.642 -0.2145  0.3407  0.3578
10756TIP3   OH253758   6.425   0.458  16.940  0.4705  0.6547 -0.2552
10756TIP3    H153759   6.364   0.431  16.870  1.8076  0.1317 -1.2572
10756TIP3    H253760   6.421   0.553  16.939  0.0139  0.6377 -0.6266
10757TIP3   OH253761   3.122   0.328  13.638  0.1020 -0.1115  0.4869
10757TIP3    H153762   3.109   0.398  13.574  1.4379 -0.8252 -0.6178
10757TIP3    H253763   3.034   0.294  13.654 -0.4172  0.9887  0.0923
10758TIP3   OH253764   3.286   1.946   6.257 -0.1612  0.5230 -0.3634
10758TIP3    H153765   3.253   1.947   6.347 -1.9836  0.2683 -0.9916
10758TIP3    H253766   3.354   2.014   6.256 -1.4624  1.9157  0.7257
10759TIP3   OH253767   3.847   0.568  11.829  0.9512  0.1079 -0.0530
10759TIP3    H153768   3.865   0.598  11.740 -1.5033  1.0716 -0.2764
10759TIP3    H253769   3.852   0.472  11.823  0.3752  0.1335 -1.3434
10760TIP3   OH253770   0.106   2.750   2.765 -0.1426  0.2408 -0.1118
10760TIP3    H153771   0.157   2.687   2.714 -0.1856 -0.7897  1.0892
10760TIP3    H253772   0.131   2.836   2.728  2.3391 -0.2233  0.3230
10761TIP3   OH253773   4.657   6.524   5.991  0.4023  0.4523 -0.6762
10761TIP3    H153774   4.579   6.539   6.044  2.1445 -0.1034  2.2591
10761TIP3    H253775   4.630   6.547   5.902 -1.9234  4.2905  0.7719
10762TIP3   OH253776   6.700   2.230   4.661  0.4422  0.4253  0.3869
10762TIP3    H153777   6.665   2.166   4.723 -0.4927  0.6665  0.1341
10762TIP3    H253778   6.763   2.281   4.711  0.4556 -0.0516  0.8601
10763TIP3   OH253779   1.563   5.556   3.898 -0.5432 -0.1301 -0.3071
10763TIP3    H153780   1.535   5.468   3.874  0.1142  0.2629 -2.7791
10763TIP3    H253781   1.483   5.598   3.930 -1.0193 -1.3946  0.2197
10764TIP3   OH253782   3.103   2.276  11.681 -0.3041 -0.3231 -0.1914
10764TIP3    H153783   3.041   2.237  11.619  0.0429  1.0136 -1.4192
10764TIP3    H253784   3.189   2.253  11.646 -0.0717  2.2084 -1.4622
10765TIP3   OH253785   4.771   0.793  11.017  0.0265 -0.1133  0.2403
10765TIP3    H153786   4.806   0.737  10.947  0.4110 -0.0631  0.3892
10765TIP3    H253787   4.691   0.748  11.046  0.2022 -0.4594  0.1937
10766TIP3   OH253788   2.355   1.681   0.501 -0.2009 -0.8870 -0.7869
10766TIP3    H153789   2.274   1.732   0.496  0.9615  1.2202  0.3475
10766TIP3    H253790   2.398   1.697   0.417  1.4563  2.5384  0.5191
10767TIP3   OH253791   3.968   6.602   0.048  0.5355  0.3819  0.0313
10767TIP3    H153792   3.902   6.665   0.077  0.2271 -0.1723  0.5645
10767TIP3    H253793   4.016   6.580   0.128 -0.1760 -1.0046  0.1019
10768TIP3   OH253794   0.655   4.128  17.227 -0.2412 -0.0319  0.1502
10768TIP3    H153795   0.587   4.060  17.231 -0.1901 -0.3368 -2.3300
10768TIP3    H253796   0.737   4.079  17.225 -0.2219  0.0024 -2.0868
10769TIP3   OH253797   3.733   2.726  12.366  0.6650 -0.5751 -0.3731
10769TIP3    H153798   3.673   2.780  12.314 -0.3719 -0.5698  0.7658
10769TIP3    H253799   3.733   2.641  12.322  0.0872 -0.4686 -0.5923
10770TIP3   OH253800   6.286   3.858   3.048  0.3581  0.7281  0.0000
10770TIP3    H153801   6.316   3.928   3.105 -0.7631  1.6168 -0.4775
10770TIP3    H253802   6.210   3.821   3.092 -0.2682  1.1499 -0.6924
10771TIP3   OH253803   6.481   2.392   0.738  0.0639  0.6890  1.2244
10771TIP3    H153804   6.391   2.396   0.772 -0.2186 -0.6047  0.7167
10771TIP3    H253805   6.479   2.443   0.657 -0.5038 -0.2040  0.6573
10772TIP3   OH253806   6.424   4.357  14.815  1.0097 -0.1184  0.1640
10772TIP3    H153807   6.449   4.446  14.792  0.3401  0.0691  0.1372
10772TIP3    H253808   6.329   4.362  14.828  0.8962 -0.9261 -0.3168
10773TIP3   OH253809   5.927   3.149   0.139  0.7894 -0.0780  0.4281
10773TIP3    H153810   5.881   3.110   0.213  0.7466  2.2388  1.6806
10773TIP3    H253811   5.892   3.102   0.063  0.0707 -1.7958  1.7400
10774TIP3   OH253812   2.648   1.986  13.127  0.5558 -0.1462 -0.0381
10774TIP3    H153813   2.733   1.986  13.171 -0.1213 -1.4966  1.3821
10774TIP3    H253814   2.604   2.064  13.161  1.0237  0.2736 -0.3847
10775TIP3   OH253815   2.342   3.204  16.721  0.3753  0.5686  0.2178
10775TIP3    H153816   2.310   3.138  16.783  2.3022 -0.3092  0.3175
10775TIP3    H253817   2.437   3.192  16.719  0.7866  3.1918  0.0681
10776TIP3   OH253818   1.834   1.985   0.736 -0.3948 -0.1865  0.6145
10776TIP3    H153819   1.913   2.021   0.695 -0.9574  1.1872  0.6913
10776TIP3    H253820   1.769   1.985   0.666 -0.0085 -2.6513  0.1419
10777TIP3   OH253821   5.437   2.120  14.692  0.9245 -0.0292 -0.1136
10777TIP3    H153822   5.511   2.177  14.712  0.6735  0.7445 -1.2683
10777TIP3    H253823   5.448   2.098  14.599 -1.0969  1.4102 -0.7690
10778TIP3   OH253824   4.237   2.763  15.173 -0.4276  0.2440  0.2303
10778TIP3    H153825   4.283   2.840  15.208  0.9848 -0.8238  0.8381
10778TIP3    H253826   4.304   2.715  15.125 -0.7339 -1.6010  1.5185
10779TIP3   OH253827   4.042   0.331   4.128 -0.0451 -0.0599  0.7046
10779TIP3    H153828   4.086   0.302   4.048 -1.3646  0.3352 -0.2020
10779TIP3    H253829   4.090   0.287   4.199  1.0804 -0.5124 -0.2976
10780TIP3   OH253830   6.024   1.247   6.297  0.0437 -0.2562 -0.4098
10780TIP3    H153831   6.081   1.319   6.270  0.9466 -0.1100  1.7481
10780TIP3    H253832   6.066   1.168   6.263  0.0938  0.0534 -1.0891
10781TIP3   OH253833   0.946   0.669  15.070  0.5269 -0.0002  0.0315
10781TIP3    H153834   1.028   0.658  15.022  0.3975 -0.2581 -0.1362
10781TIP3    H253835   0.893   0.594  15.043  0.5579 -0.3062  0.7901
10782TIP3   OH253836   0.541   1.608   0.091  0.1072 -0.0483  0.0615
10782TIP3    H153837   0.571   1.681   0.146  0.2150 -1.0320  1.3419
10782TIP3    H253838   0.527   1.536   0.152 -1.2743 -0.7272 -1.0188
10783TIP3   OH253839   0.659   2.139  12.116 -0.3396  0.7795 -0.3556
10783TIP3    H153840   0.624   2.055  12.085  0.9758  0.7541 -1.8901
10783TIP3    H253841   0.750   2.121  12.137 -0.0939  1.7812 -0.5052
10784TIP3   OH253842   1.402   3.400   6.048 -0.2022  0.0123 -0.2258
10784TIP3    H153843   1.376   3.311   6.026 -2.0506  0.6786 -0.9291
10784TIP3    H253844   1.426   3.440   5.964  1.7262 -0.1115  0.2158
10785TIP3   OH253845   6.433   6.485  15.718 -0.3809  1.0616 -0.0825
10785TIP3    H153846   6.427   6.409  15.660  0.3328  0.0826  1.0697
10785TIP3    H253847   6.411   6.560  15.662 -1.1073  0.0251 -1.2561
10786TIP3   OH253848   5.455   0.928   1.712  0.4333 -0.0289  0.1564
10786TIP3    H153849   5.421   0.859   1.769  1.8491  0.4674  1.6828
10786TIP3    H253850   5.391   0.999   1.721 -0.7125 -0.8821 -0.9505
10787TIP3   OH253851   6.023   5.190  13.762 -0.7124 -0.3229 -0.3812
10787TIP3    H153852   5.949   5.154  13.812  0.9198 -1.0170  1.6536
10787TIP3    H253853   6.027   5.134  13.684 -2.0977 -0.5019 -0.3582
10788TIP3   OH253854   2.891   3.931  12.791 -0.5096 -0.2552  0.0140
10788TIP3    H153855   2.953   3.860  12.804 -0.7588 -0.4239  0.2948
10788TIP3    H253856   2.885   3.940  12.695  0.3390  0.1162 -0.0139
10789TIP3   OH253857   5.745   6.289  14.378  0.1735 -0.1055  0.1140
10789TIP3    H153858   5.766   6.333  14.296 -0.6813  1.3116  0.6274
10789TIP3    H253859   5.665   6.331  14.409 -0.2837 -1.5471  1.0017
10790TIP3   OH253860   1.864   0.403   3.936 -0.3236  0.0816  0.1616
10790TIP3    H153861   1.772   0.403   3.960 -0.5624 -1.1025 -0.6865
10790TIP3    H253862   1.884   0.312   3.914  1.2033  0.2003  0.8979
10791TIP3   OH253863   2.559   2.213   1.660  0.3713 -0.1876 -0.3757
10791TIP3    H153864   2.544   2.179   1.748  0.4414  0.7693  0.0090
10791TIP3    H253865   2.525   2.144   1.602  2.7311 -2.0459  0.3012
10792TIP3   OH253866   0.420   5.013   0.679 -0.2719  0.3918  0.5141
10792TIP3    H153867   0.397   5.057   0.597  0.5940  0.4802  0.3039
10792TIP3    H253868   0.425   4.920   0.656 -2.4842  0.0922  1.0448
10793TIP3   OH253869   0.910   6.636   5.835  0.5068  0.2459 -0.3171
10793TIP3    H153870   0.922   6.728   5.860 -0.4693  0.4331 -0.5039
10793TIP3    H253871   0.927   6.588   5.916 -0.8942  0.7337  0.3078
10794TIP3   OH253872   5.951   1.346  17.113 -0.2367  0.1315 -0.2772
10794TIP3    H153873   5.926   1.324  17.023  1.9751  0.5769 -1.0489
10794TIP3    H253874   5.920   1.272  17.165  0.3255 -1.1798 -1.7330
10795TIP3   OH253875   6.384   1.426   5.244  0.2921  0.0538  0.1211
10795TIP3    H153876   6.300   1.471   5.240  0.3740  0.2961  0.8797
10795TIP3    H253877   6.418   1.429   5.155 -1.1417 -1.3178 -0.4972
10796TIP3   OH253878   0.355   3.719   4.863  0.6457  0.6139  0.1361
10796TIP3    H153879   0.382   3.769   4.941  0.1506 -0.1375  0.8114
10796TIP3    H253880   0.263   3.697   4.880  0.5196  0.4767 -0.6979
10797TIP3   OH253881   2.476   5.896  15.338 -0.2597  0.3708 -0.6644
10797TIP3    H153882   2.446   5.973  15.291  0.6519  0.9427 -0.3366
10797TIP3    H253883   2.422   5.894  15.417  0.0309  0.9595 -0.4416
10798TIP3   OH253884   5.722   1.462   2.346  0.0382 -1.1600  0.6648
10798TIP3    H153885   5.720   1.538   2.288 -1.3154 -2.6970 -1.4657
10798TIP3    H253886   5.758   1.495   2.428  1.1677  1.3560 -0.7297
10799TIP3   OH253887   3.266   3.074   0.994 -0.7203 -0.3025 -0.9012
10799TIP3    H153888   3.210   3.000   1.016  0.4858 -0.9624  0.0646
10799TIP3    H253889   3.286   3.115   1.078 -0.9886  0.8571 -1.3819
10800TIP3   OH253890   6.511   3.246  11.927  0.4833  0.0512 -0.0984
10800TIP3    H153891   6.425   3.249  11.969 -0.0975  1.0961 -1.3094
10800TIP3    H253892   6.495   3.271  11.836  2.0235 -0.0703 -0.4366
10801TIP3   OH253893   5.726   5.801   0.868  0.5547  0.1064  0.0561
10801TIP3    H153894   5.718   5.867   0.799  0.9848  3.7808  3.1628
10801TIP3    H253895   5.640   5.758   0.870 -0.4387  1.9076 -0.9532
10802TIP3   OH253896   4.657   3.534   4.374 -0.1927 -0.0142  0.0644
10802TIP3    H153897   4.673   3.443   4.399  0.3152 -0.3190 -1.2710
10802TIP3    H253898   4.659   3.582   4.456 -0.0423 -1.1507  0.7495
10803TIP3   OH253899   3.026   6.150  13.175  0.2954  0.3543 -0.6696
10803TIP3    H153900   3.088   6.088  13.213 -0.1006  0.0777 -0.4765
10803TIP3    H253901   3.017   6.121  13.084 -1.1933 -0.9355 -0.1603
10804TIP3   OH253902   2.114   5.480   2.171 -0.3909 -0.4835  0.0019
10804TIP3    H153903   2.113   5.434   2.255 -0.2643 -1.4346 -0.5030
10804TIP3    H253904   2.027   5.466   2.135  0.2485 -2.0563 -1.0460
10805TIP3   OH253905   0.796   0.174   4.076 -0.1196  0.4373 -0.1941
10805TIP3    H153906   0.725   0.116   4.102 -0.9454 -0.1285 -3.2829
10805TIP3    H253907   0.760   0.262   4.086  0.2581  0.3686  2.1348
10806TIP3   OH253908   1.718   5.887   4.039  0.3575  0.0248 -0.0621
10806TIP3    H153909   1.788   5.889   3.974  0.0516  0.3803 -0.3783
10806TIP3    H253910   1.755   5.932   4.116  0.2403  0.8080 -0.4605
10807TIP3   OH253911   1.387   2.908  13.280  0.1722  0.6825  0.4470
10807TIP3    H153912   1.420   2.998  13.284 -1.2862  1.3434 -1.2212
10807TIP3    H253913   1.436   2.862  13.348  3.0070  2.0560 -0.5087
10808TIP3   OH253914   4.024   5.264  15.894 -0.0987 -0.1678  0.9274
10808TIP3    H153915   3.982   5.204  15.832 -1.0560 -1.0570  2.3813
10808TIP3    H253916   4.090   5.211  15.938  0.7032  0.5102  0.5788
10809TIP3   OH253917   4.314   2.952   6.162  0.1673 -0.0257  0.6655
10809TIP3    H153918   4.244   2.893   6.135 -0.3944  0.0422  1.9290
10809TIP3    H253919   4.290   3.037   6.126 -0.0498 -0.1425  0.5352
10810TIP3   OH253920   0.696   4.663  11.106  0.0562  0.7075  0.0657
10810TIP3    H153921   0.643   4.719  11.162  1.0319 -0.1591  1.9197
10810TIP3    H253922   0.635   4.595  11.076 -0.2875  0.7098  0.7492
10811TIP3   OH253923   6.493   5.798   6.252  0.1800  0.2789 -0.4614
10811TIP3    H153924   6.438   5.797   6.173  0.6630 -3.6069 -0.9256
10811TIP3    H253925   6.438   5.837   6.319 -2.2748 -1.1686 -1.5051
10812TIP3   OH253926   3.005   6.352   4.500 -0.1800 -0.5706  0.5675
10812TIP3    H153927   2.917   6.379   4.471  0.1735 -0.4872 -0.4959
10812TIP3    H253928   3.008   6.258   4.481  0.2750 -0.3959 -0.2956
10813TIP3   OH253929   5.871   1.966  13.985 -0.4609  0.4033  0.0584
10813TIP3    H153930   5.783   1.936  13.963  0.1006 -0.0617 -1.7001
10813TIP3    H253931   5.897   1.914  14.060 -2.1017  1.3573  1.3416
10814TIP3   OH253932   6.483   1.182  16.769  0.6403  0.1987 -0.0881
10814TIP3    H153933   6.455   1.229  16.847  0.8618  0.7990 -0.3637
10814TIP3    H253934   6.409   1.190  16.708  0.8480  0.5849 -0.2972
10815TIP3   OH253935   1.102   0.672   1.895 -0.0054  0.2377 -0.2473
10815TIP3    H153936   1.059   0.653   1.812  0.2214  0.8941 -0.5249
10815TIP3    H253937   1.043   0.733   1.940 -0.1380 -0.1339  0.0798
10816TIP3   OH253938   1.563   1.927  12.112  0.8057  0.2331 -0.4981
10816TIP3    H153939   1.590   2.017  12.094  1.4541 -0.1413 -1.4900
10816TIP3    H253940   1.600   1.876  12.040  1.0259 -0.9318  0.3938
10817TIP3   OH253941   0.534   6.051   5.207 -0.1703 -0.0351  0.5537
10817TIP3    H153942   0.623   6.018   5.214  0.4882  1.2390 -1.0885
10817TIP3    H253943   0.540   6.142   5.235 -1.0269 -0.0262  0.7329
10818TIP3   OH253944   5.989   2.924  14.014  0.4215  0.3050 -0.4212
10818TIP3    H153945   6.055   2.871  14.058  0.0614  0.6539  0.5522
10818TIP3    H253946   5.907   2.903  14.058 -0.0506  0.2191 -1.3161
10819TIP3   OH253947   0.027   3.998  14.643  0.2882  0.2479 -0.3870
10819TIP3    H153948  -0.035   3.926  14.637 -0.4997  0.8508  0.3261
10819TIP3    H253949   0.111   3.959  14.619 -0.4254 -0.4585 -1.8658
10820TIP3   OH253950   0.598   0.994   5.713 -0.1987  0.3190 -0.1979
10820TIP3    H153951   0.596   1.041   5.796  0.5574  0.5804 -0.3207
10820TIP3    H253952   0.675   0.939   5.718  0.0347  0.5721 -0.8502
10821TIP3   OH253953   4.767   5.947  11.145  0.3194 -0.7200 -0.0206
10821TIP3    H153954   4.695   5.887  11.163  0.1452 -0.3750  0.4750
10821TIP3    H253955   4.801   5.970  11.232 -0.5588  1.0204 -0.0901
10822TIP3   OH253956   4.328   2.745  13.402 -0.1466 -0.0144 -0.0232
10822TIP3    H153957   4.263   2.678  13.384 -0.1945  0.1834 -0.5946
10822TIP3    H253958   4.310   2.773  13.492 -0.1216 -0.7644  0.2194
10823TIP3   OH253959   5.182   1.996  13.693  0.1104  0.2208  0.2816
10823TIP3    H153960   5.191   2.031  13.782 -0.8686  1.4141 -0.0533
10823TIP3    H253961   5.093   1.961  13.691  0.2190 -0.0269 -0.1578
10824TIP3   OH253962   1.082   0.117   5.176 -0.9851 -0.4162 -0.1176
10824TIP3    H153963   1.004   0.143   5.127  0.2157  0.5488 -1.6209
10824TIP3    H253964   1.132   0.065   5.113  1.8752  3.0436 -1.0279
10825TIP3   OH253965   6.702   5.728   4.921 -0.4750  0.3197 -0.0197
10825TIP3    H153966   6.685   5.652   4.977 -0.1349  1.5136  1.8009
10825TIP3    H253967   6.617   5.749   4.882 -0.3437 -1.6811 -1.5525
10826TIP3   OH253968   2.252   5.437   3.041  0.4480 -0.7697  0.1813
10826TIP3    H153969   2.238   5.377   2.968  0.9392  0.2004 -0.7383
10826TIP3    H253970   2.187   5.411   3.107  0.3607 -1.9987 -0.3782
10827TIP3   OH253971   2.654   1.187  15.004 -0.6107  0.0880 -0.1721
10827TIP3    H153972   2.736   1.192  15.053 -2.3032  0.9133  2.8480
10827TIP3    H253973   2.648   1.272  14.960  0.4318 -0.2477 -1.0103
10828TIP3   OH253974   1.811   5.470   3.375  0.3884 -0.3407  0.3814
10828TIP3    H153975   1.794   5.433   3.461 -1.4648 -0.3961  0.0436
10828TIP3    H253976   1.878   5.413   3.337  1.7430  0.0925  2.0043
10829TIP3   OH253977   6.033   6.109  15.184  0.5578 -0.2027  0.5138
10829TIP3    H153978   6.024   6.100  15.279  2.0054  0.8929  0.7815
10829TIP3    H253979   5.987   6.032  15.149  0.5516 -0.9734  2.1142
10830TIP3   OH253980   3.464   4.980  13.193  0.9479 -0.2138  0.6123
10830TIP3    H153981   3.387   4.932  13.224  1.6307 -2.0177 -0.3136
10830TIP3    H253982   3.534   4.953  13.252  1.4732 -0.8537 -0.2850
10831TIP3   OH253983   1.511   5.514  16.890  0.0812 -0.1747  0.2236
10831TIP3    H153984   1.530   5.587  16.948  1.6674 -0.7265  0.4459
10831TIP3    H253985   1.416   5.504  16.895  0.1755 -0.4100  2.9781
10832TIP3   OH253986   0.050   4.523  13.070  0.6110 -0.3599 -0.6224
10832TIP3    H153987   0.072   4.469  12.994  0.7361 -0.9266 -0.1893
10832TIP3    H253988   0.123   4.584  13.078  1.1064 -0.9824 -0.3344
10833TIP3   OH253989   6.463   6.404   2.569  0.2945  0.3465 -0.0280
10833TIP3    H153990   6.396   6.341   2.542  0.9948 -0.7909  0.8106
10833TIP3    H253991   6.449   6.415   2.663  0.5883  0.9757 -0.0489
10834TIP3   OH253992   5.946   1.389  11.374 -0.5519  0.6380 -0.7632
10834TIP3    H153993   5.877   1.395  11.440  0.7777 -3.6333  1.3421
10834TIP3    H253994   6.023   1.424  11.417 -0.3720  0.9883 -1.3555
10835TIP3   OH253995   0.045   6.492  13.775  0.6103  0.5479 -0.6490
10835TIP3    H153996   0.131   6.526  13.798  1.1000 -0.1060 -1.4446
10835TIP3    H253997   0.057   6.454  13.688 -0.7189  1.2871 -1.1811
10836TIP3   OH253998   5.547   3.035  11.306  0.3284 -0.0634 -0.0310
10836TIP3    H153999   5.615   3.102  11.306  0.1318  0.1598  1.3676
10836TIP3    H254000   5.542   3.005  11.397 -1.0145 -0.5122 -0.2290
10837TIP3   OH254001   3.206   3.113   5.693 -0.0076  0.2386 -0.1381
10837TIP3    H154002   3.274   3.047   5.704 -1.0038 -0.4661  2.6938
10837TIP3    H254003   3.125   3.063   5.685 -0.5058  1.1000 -0.6107
10838TIP3   OH254004   1.917   2.523   1.789  0.3060 -0.1552 -0.1036
10838TIP3    H154005   1.872   2.468   1.725 -0.2704 -0.2956  0.4170
10838TIP3    H254006   1.897   2.613   1.762 -0.5332 -0.2159  0.2852
10839TIP3   OH254007   0.483   0.298  15.486 -0.4664  0.2878 -0.0264
10839TIP3    H154008   0.454   0.277  15.575  0.9509 -1.8306  0.0101
10839TIP3    H254009   0.416   0.259  15.430  0.6653 -2.0200  0.1089
10840TIP3   OH254010   0.715   4.292  15.003  0.5140  0.1210  0.0352
10840TIP3    H154011   0.756   4.344  14.934  0.4660  0.3342  0.1644
10840TIP3    H254012   0.786   4.273  15.064  0.4874  0.2196  0.0973
10841TIP3   OH254013   1.933   4.031   5.195 -0.2715  0.4697 -0.4040
10841TIP3    H154014   1.905   3.998   5.110 -0.9035  1.8462 -0.7688
10841TIP3    H254015   1.870   3.996   5.257 -0.0285 -0.2343 -0.5511
10842TIP3   OH254016   0.102   1.863  13.257  0.4962 -0.0985 -0.0973
10842TIP3    H154017   0.030   1.820  13.302  0.3295  0.3851  0.0987
10842TIP3    H254018   0.102   1.953  13.290  0.7793  0.0841 -0.5789
10843TIP3   OH254019   3.798   4.392   0.910 -0.0845  0.9374 -0.5548
10843TIP3    H154020   3.836   4.456   0.970  1.4864  0.9856 -1.5326
10843TIP3    H254021   3.807   4.433   0.824  0.2205 -0.2502 -1.1035
10844TIP3   OH254022   4.714   6.195  16.952  0.2673 -0.6581 -0.0084
10844TIP3    H154023   4.633   6.165  16.910 -0.9190  0.0921  1.6085
10844TIP3    H254024   4.752   6.115  16.989  0.4922 -1.0758 -1.0956
10845TIP3   OH254025   3.894   0.867   2.888 -0.1172 -1.1291  0.5259
10845TIP3    H154026   3.853   0.862   2.802 -0.3890 -1.7304  0.6813
10845TIP3    H254027   3.821   0.889   2.947  0.1726 -0.1250  0.5319
10846TIP3   OH254028   5.122   1.318  11.273  0.5384  0.2200 -0.1550
10846TIP3    H154029   5.132   1.268  11.354  0.1164 -2.1666 -1.4740
10846TIP3    H254030   5.205   1.306  11.226  0.0682 -0.1235 -0.9297
10847TIP3   OH254031   1.620   1.516  15.148  0.3711 -0.2386 -0.4927
10847TIP3    H154032   1.688   1.529  15.215  0.5700  0.8261 -0.8869
10847TIP3    H254033   1.555   1.583  15.167 -0.3104 -0.8891 -0.4734
10848TIP3   OH254034   3.310   4.964  14.362 -0.7323 -1.4104  0.3228
10848TIP3    H154035   3.257   4.895  14.401 -1.0124 -0.5174  1.5805
10848TIP3    H254036   3.356   5.005  14.436 -1.5549  0.5666 -0.1762
10849TIP3   OH254037   5.979   3.568  15.856 -0.6393  0.1025 -0.4264
10849TIP3    H154038   6.007   3.565  15.947  2.0380  0.8883 -1.1113
10849TIP3    H254039   5.930   3.487  15.842  1.1004 -1.2913  1.0913
10850TIP3   OH254040   0.570   1.758  13.531  0.1052 -0.0397 -0.3515
10850TIP3    H154041   0.528   1.733  13.448 -0.9960  1.2125 -0.2088
10850TIP3    H254042   0.519   1.833  13.562  0.1142 -0.8207  1.7536
10851TIP3   OH254043   3.403   3.736  14.029  0.0386  0.3443 -0.1245
10851TIP3    H154044   3.372   3.683  14.102  2.5383 -2.3992 -0.9111
10851TIP3    H254045   3.356   3.702  13.953  1.8208 -0.9978 -0.6707
10852TIP3   OH254046   4.043   0.337  11.534  0.2502  0.5288  0.2270
10852TIP3    H154047   3.997   0.288  11.602  2.4308  1.2314  2.3731
10852TIP3    H254048   3.974   0.366  11.475 -1.7133 -0.6046  1.8112
10853TIP3   OH254049   1.872   1.537  17.486  0.7559  0.3020 -0.4831
10853TIP3    H154050   1.812   1.472  17.448  0.2038  0.4849  0.0435
10853TIP3    H254051   1.924   1.488  17.549  0.3982  0.3478 -0.1473
10854TIP3   OH254052   3.849   4.406   1.807 -0.3551  0.0569 -0.2361
10854TIP3    H154053   3.853   4.400   1.903  1.2417  0.4561 -0.2483
10854TIP3    H254054   3.941   4.414   1.780 -0.7594 -0.3984 -1.8302
10855TIP3   OH254055   0.791   0.025  14.264 -0.3739  0.2313  0.3922
10855TIP3    H154056   0.738   0.082  14.320  1.5943  0.2836  2.3140
10855TIP3    H254057   0.848   0.084  14.215 -1.0799  0.0917 -0.6405
10856TIP3   OH254058   3.593   2.132   5.725 -0.0692 -0.4459  0.5795
10856TIP3    H154059   3.620   2.177   5.645 -0.9248  1.2017  1.1664
10856TIP3    H254060   3.646   2.052   5.726  0.4062 -0.2132 -1.2957
10857TIP3   OH254061   0.234   3.064   5.067 -0.1260  0.5930  0.3411
10857TIP3    H154062   0.176   3.137   5.089  0.3384  1.1148 -0.1230
10857TIP3    H254063   0.316   3.106   5.039  0.7058 -0.1243  1.5760
10858TIP3   OH254064   0.073   1.003   6.098 -0.1608  0.4427  0.1971
10858TIP3    H154065   0.102   1.007   6.189 -1.3490 -0.1187  0.6220
10858TIP3    H254066  -0.020   1.025   6.101 -0.8951 -2.1995 -0.4850
10859TIP3   OH254067   1.409   0.019   3.053  0.3455  0.1071  0.6774
10859TIP3    H154068   1.346  -0.035   3.005  1.7735 -1.6654  0.6887
10859TIP3    H254069   1.436   0.086   2.990 -1.3203  0.7489  0.5972
10860TIP3   OH254070   5.502   1.584  12.040 -0.1105  0.1374  0.0738
10860TIP3    H154071   5.504   1.578  12.136 -0.0312  0.5753  0.1025
10860TIP3    H254072   5.425   1.534  12.015  0.5081 -0.9431  0.2820
10861TIP3   OH254073   0.802   5.741  12.905 -0.0424 -0.4358 -0.4637
10861TIP3    H154074   0.802   5.827  12.948 -1.4139 -0.4462 -0.3899
10861TIP3    H254075   0.878   5.743  12.847  0.3774  0.5425  0.0980
10862TIP3   OH254076   5.953   2.046   2.686 -0.0354 -0.2496 -0.8653
10862TIP3    H154077   5.989   2.016   2.602  1.9194 -1.7578  0.4227
10862TIP3    H254078   5.869   2.085   2.663  0.0633 -1.3361 -3.4398
10863TIP3   OH254079   5.813   5.947  16.052 -0.1544  0.3304  0.3674
10863TIP3    H154080   5.899   5.915  16.024 -0.7992 -1.1817 -0.0284
10863TIP3    H254081   5.764   5.959  15.971 -1.3568 -2.0568  0.6483
10864TIP3   OH254082   0.008   1.410   2.262 -0.3989  0.1914 -0.8938
10864TIP3    H154083   0.025   1.483   2.202  0.0085  0.5784 -0.3185
10864TIP3    H254084  -0.083   1.421   2.287 -0.0700  1.0751 -0.0601
10865TIP3   OH254085   4.066   1.907   6.456 -0.0088 -0.0488 -0.7917
10865TIP3    H154086   4.121   1.848   6.508 -0.1118  0.5606  0.0301
10865TIP3    H254087   4.060   1.865   6.371  0.2081 -1.0532 -0.3306
10866TIP3   OH254088   0.424   5.784  11.842 -0.1777  0.3531  0.1818
10866TIP3    H154089   0.353   5.729  11.809 -0.9906  0.7225  1.2690
10866TIP3    H254090   0.485   5.723  11.883  0.0517  0.0579 -0.5673
10867TIP3   OH254091   3.278   1.876  13.204  0.1521  0.0550 -0.4829
10867TIP3    H154092   3.209   1.877  13.271  0.6531  1.7676  0.0723
10867TIP3    H254093   3.329   1.798  13.223  0.8677  0.9945  1.8396
10868TIP3   OH254094   5.798   2.583   3.427 -0.2566  0.4335  0.2069
10868TIP3    H154095   5.874   2.639   3.412  0.5948 -0.8972 -0.7239
10868TIP3    H254096   5.753   2.581   3.342 -1.0658  0.8367  0.6230
10869TIP3   OH254097   1.503   3.130  17.291  0.0393 -0.5452 -0.8694
10869TIP3    H154098   1.439   3.167  17.352 -0.1285 -2.2696  0.0395
10869TIP3    H254099   1.451   3.108  17.213  0.1124  0.9135 -1.3586
10870TIP3   OH254100   4.569   1.122  15.303  0.0636 -0.0739  0.4811
10870TIP3    H154101   4.573   1.202  15.250 -0.8003  0.3875  1.0965
10870TIP3    H254102   4.617   1.143  15.382  0.9935 -0.6266  0.0813
10871TIP3   OH254103   3.866   5.382   2.863 -0.0439 -0.1506 -0.3584
10871TIP3    H154104   3.878   5.301   2.812 -2.0842 -0.3702 -0.5931
10871TIP3    H254105   3.840   5.447   2.798 -0.8854  0.0258  0.1375
10872TIP3   OH254106   1.241   0.287  11.648  0.0031  0.0334  1.0146
10872TIP3    H154107   1.165   0.247  11.690 -2.4849 -1.4526 -4.0426
10872TIP3    H254108   1.216   0.378  11.633 -1.2200 -0.5879 -1.1380
10873TIP3   OH254109   3.508   3.828   3.150  0.4230 -0.3897 -0.0173
10873TIP3    H154110   3.489   3.755   3.091  0.8136  0.6985 -1.5373
10873TIP3    H254111   3.431   3.835   3.205  0.1692 -1.6194 -0.1921
10874TIP3   OH254112   5.415   2.160  11.871 -0.0394 -0.5192 -0.0963
10874TIP3    H154113   5.444   2.158  11.962  1.4739  1.5054 -0.4640
10874TIP3    H254114   5.439   2.247  11.840 -1.3960 -0.8103 -2.1754
10875TIP3   OH254115   1.250   2.185  12.529 -0.3099  0.1338 -0.3118
10875TIP3    H154116   1.294   2.206  12.612 -1.9046 -1.3550  0.9556
10875TIP3    H254117   1.317   2.204  12.462  1.9805 -1.2153  1.4518
10876TIP3   OH254118   3.745   0.095  17.440  0.8200 -0.2136  0.1936
10876TIP3    H154119   3.679   0.128  17.379  0.2219  0.4481  1.1765
10876TIP3    H254120   3.758   0.004  17.414  0.4705  0.0124 -0.8212
10877TIP3   OH254121   5.393   3.063   1.986 -0.4215 -0.8793 -0.4104
10877TIP3    H154122   5.418   3.152   2.011  0.0108 -1.4045  1.0939
10877TIP3    H254123   5.298   3.061   1.995 -0.3867 -0.7027  0.0034
10878TIP3   OH254124   5.241   2.500   3.316  0.4544 -0.1317  0.2703
10878TIP3    H154125   5.215   2.592   3.321 -4.1665 -1.2042  0.3557
10878TIP3    H254126   5.223   2.465   3.403  1.5861 -1.2790  0.0796
10879TIP3   OH254127   4.597   1.501   0.204 -0.2408  0.8240 -0.7399
10879TIP3    H154128   4.556   1.578   0.165 -0.4797  1.0773  0.0116
10879TIP3    H254129   4.658   1.470   0.136 -1.1243  0.8709 -1.5677
10880TIP3   OH254130   0.937   2.746  15.447  0.3602 -0.2351  0.0068
10880TIP3    H154131   1.032   2.755  15.439  0.3285 -0.0040 -0.1281
10880TIP3    H254132   0.909   2.709  15.363  0.2913  0.0364 -0.0932
10881TIP3   OH254133   3.480   4.727   6.284 -0.2017 -0.4258  0.4903
10881TIP3    H154134   3.468   4.719   6.189 -0.7776 -0.7229  0.5823
10881TIP3    H254135   3.391   4.726   6.319 -0.0377  0.6378  0.9661
10882TIP3   OH254136   0.921   4.012  15.348  0.6959  0.1946  0.3461
10882TIP3    H154137   0.846   3.996  15.291  0.5168 -0.8491  0.8477
10882TIP3    H254138   0.937   3.928  15.392 -0.1708  1.2858  2.9875
10883TIP3   OH254139   1.652   0.584   4.201  0.3436  0.0354  0.1098
10883TIP3    H154140   1.618   0.518   4.262  1.0184 -0.8145 -0.4278
10883TIP3    H254141   1.649   0.542   4.115  0.4498  0.8365 -0.2947
10884TIP3   OH254142   5.792   1.153   0.226 -0.2426 -0.5865 -0.4236
10884TIP3    H154143   5.866   1.093   0.218  0.8084  0.6819 -0.5958
10884TIP3    H254144   5.805   1.197   0.310  0.4043  1.1208 -1.3471
10885TIP3   OH254145   3.390   0.839   0.439  0.4515  0.2089  0.3894
10885TIP3    H154146   3.413   0.920   0.392  0.0121  0.8902  1.3024
10885TIP3    H254147   3.294   0.840   0.443  0.4219 -0.5864  0.0404
10886TIP3   OH254148   6.026   5.285  10.997  0.2007  0.8095 -0.0345
10886TIP3    H154149   5.980   5.313  10.917  0.6545 -0.5989 -0.8287
10886TIP3    H254150   6.114   5.321  10.987  0.3256  0.4343 -0.2802
10887TIP3   OH254151   0.171   1.670  12.604 -0.3782 -0.1304  0.7226
10887TIP3    H154152   0.236   1.601  12.618  0.3530  0.0737 -1.3777
10887TIP3    H254153   0.218   1.752  12.620 -0.1437  0.0123 -0.6260
10888TIP3   OH254154   2.891   5.517  13.109 -0.3645 -0.3893 -0.3796
10888TIP3    H154155   2.867   5.606  13.135  1.0009  0.4662 -1.8657
10888TIP3    H254156   2.911   5.472  13.191  1.7319  1.5649  0.2937
10889TIP3   OH254157   0.269   1.028  12.129 -0.6418 -0.0474 -0.0600
10889TIP3    H154158   0.263   0.955  12.068 -1.3435  1.0338 -1.3362
10889TIP3    H254159   0.202   1.010  12.196 -1.7388  0.0633 -1.0971
10890TIP3   OH254160   6.153   2.462  16.258  0.4088  0.5702  0.0032
10890TIP3    H154161   6.216   2.484  16.327 -1.2632  0.8883  1.5337
10890TIP3    H254162   6.089   2.406  16.302 -0.8130  0.9355 -1.2408
10891TIP3   OH254163   5.225   4.383  12.022  0.7013 -0.1666  0.4511
10891TIP3    H154164   5.310   4.382  11.977  2.2776 -1.1620  3.1560
10891TIP3    H254165   5.194   4.293  12.016  0.3593 -0.0428  0.3645
10892TIP3   OH254166   2.771   2.311  12.639  0.4015  0.0537 -0.5658
10892TIP3    H154167   2.858   2.351  12.634  0.6221 -0.0721  1.4537
10892TIP3    H254168   2.788   2.217  12.643  0.4201  0.0902  2.4455
10893TIP3   OH254169   6.028   0.853   2.031  0.6619 -0.2945  0.1875
10893TIP3    H154170   5.971   0.890   1.964  0.6045 -0.3674  0.1963
10893TIP3    H254171   6.114   0.847   1.990  0.9216  0.8529  0.5206
10894TIP3   OH254172   3.192   0.802  14.362 -0.4113 -0.4772  0.2857
10894TIP3    H154173   3.102   0.771  14.354  0.1115 -2.3044  1.0333
10894TIP3    H254174   3.237   0.769  14.284 -0.4350  0.7060 -0.2517
10895TIP3   OH254175   2.626   1.419   4.559 -0.2257  1.0298 -0.0537
10895TIP3    H154176   2.677   1.499   4.548 -0.7736  1.1317 -2.5291
10895TIP3    H254177   2.552   1.429   4.499 -0.6786 -1.0421  0.0736
10896TIP3   OH254178   3.725   3.473  16.731  0.2543 -0.1981 -0.2625
10896TIP3    H154179   3.756   3.382  16.725 -1.8500 -0.8889 -1.8048
10896TIP3    H254180   3.803   3.526  16.717  1.5223 -1.7508  0.5845
10897TIP3   OH254181   0.507   6.071  11.054 -0.3376 -0.3676 -0.2242
10897TIP3    H154182   0.527   6.146  10.998 -1.6395 -0.1639 -0.4626
10897TIP3    H254183   0.591   6.043  11.088  0.5030 -0.4126 -2.1884
10898TIP3   OH254184   2.279   3.662  13.404 -0.1908  0.8002 -0.0239
10898TIP3    H154185   2.311   3.593  13.346 -2.3634 -0.8321  0.5949
10898TIP3    H254186   2.194   3.687  13.367 -0.9394  0.7761  1.5840
10899TIP3   OH254187   5.241   4.469   5.621  0.0606 -0.0163  0.2189
10899TIP3    H154188   5.145   4.465   5.623  0.1166 -1.6122  1.5342
10899TIP3    H254189   5.261   4.559   5.645 -1.0980  1.3699 -3.2940
10900TIP3   OH254190   5.352   2.213  15.908  0.0887  0.1281 -0.2664
10900TIP3    H154191   5.308   2.193  15.825 -0.9346  0.6265  0.1383
10900TIP3    H254192   5.363   2.128  15.950 -1.0082  0.0360 -0.1330
10901TIP3   OH254193   4.545   0.165  12.017 -0.4321 -0.1293 -0.3983
10901TIP3    H154194   4.522   0.232  11.953  1.6679  0.3896 -0.6931
10901TIP3    H254195   4.463   0.121  12.037 -1.2116 -0.1725 -3.2790
10902TIP3   OH254196   4.814   2.361   6.475  0.3720  0.0301 -0.5049
10902TIP3    H154197   4.909   2.363   6.463  0.2438  1.7840 -1.5774
10902TIP3    H254198   4.798   2.282   6.526  2.5449  0.3595  0.8355
10903TIP3   OH254199   1.245   6.061   3.225 -0.1906 -0.1803 -0.4458
10903TIP3    H154200   1.159   6.104   3.226  0.9030  2.1978 -0.6570
10903TIP3    H254201   1.305   6.128   3.258  1.3308 -2.4543  1.7692
10904TIP3   OH254202   3.085   4.940  11.587 -0.4669 -0.2964  0.6709
10904TIP3    H154203   3.162   4.897  11.550 -1.1717 -1.5263  0.5587
10904TIP3    H254204   3.027   4.953  11.512  0.3714  2.4016  0.4080
10905TIP3   OH254205   6.178   2.688  11.506  0.5629 -0.4234  0.2074
10905TIP3    H154206   6.097   2.646  11.536 -0.2104  0.8794  0.0220
10905TIP3    H254207   6.177   2.677  11.411  1.0146 -1.0883  0.2717
10906TIP3   OH254208   5.040   5.459  16.140  0.4298 -0.2073  0.5927
10906TIP3    H154209   5.118   5.482  16.190  0.5664 -1.5726  1.0292
10906TIP3    H254210   4.995   5.543  16.126  1.2675  0.4131  1.5156
10907TIP3   OH254211   2.921   1.511   2.852 -0.1223  0.3312 -0.7237
10907TIP3    H154212   2.880   1.489   2.768  2.6227 -2.8049 -1.4635
10907TIP3    H254213   2.979   1.584   2.833 -1.6997  1.6392 -0.7499
10908TIP3   OH254214   4.423   6.715   1.553  0.6216 -0.3890  0.1102
10908TIP3    H154215   4.340   6.667   1.551  0.8144 -0.7334 -1.1383
10908TIP3    H254216   4.443   6.725   1.646  0.3337 -2.3568  0.4376
10909TIP3   OH254217   1.794   2.679   4.444 -0.1516  0.1168  0.4817
10909TIP3    H154218   1.831   2.616   4.506 -0.6890  0.1190  0.8070
10909TIP3    H254219   1.769   2.754   4.498  1.1032  0.9063  0.0115
10910TIP3   OH254220   2.057   5.758  16.880  0.2771  0.1071 -0.0985
10910TIP3    H154221   2.013   5.832  16.838 -0.2011  0.7197  1.3936
10910TIP3    H254222   2.150   5.783  16.880  0.3768 -0.2254 -1.3854
10911TIP3   OH254223   2.724   4.416   0.639 -0.1974 -0.0979  0.0810
10911TIP3    H154224   2.800   4.441   0.585 -0.0224 -0.8524 -0.0316
10911TIP3    H254225   2.652   4.467   0.603  0.2168  0.5009  0.0744
10912TIP3   OH254226   1.178   3.931  16.141 -0.2239  0.3846  0.4494
10912TIP3    H154227   1.149   3.854  16.091  0.7920  0.4910 -0.3422
10912TIP3    H254228   1.273   3.921  16.147  0.0098  1.9090 -0.2520
10913TIP3   OH254229   6.311   1.606  12.383  0.5375  0.2789 -0.0937
10913TIP3    H154230   6.322   1.701  12.392 -1.0239  0.3142  2.6541
10913TIP3    H254231   6.382   1.569  12.436  0.8736 -0.0791 -0.7926
10914TIP3   OH254232   1.778   5.447   2.545  0.6213  0.2607  0.2684
10914TIP3    H154233   1.699   5.475   2.593 -0.5931  0.0590 -1.4936
10914TIP3    H254234   1.851   5.479   2.598 -0.6611  1.9878  1.0957
10915TIP3   OH254235   4.877   4.931   4.140 -0.0477 -0.0038 -0.6260
10915TIP3    H154236   4.807   4.908   4.079 -0.3240  2.3125 -1.3020
10915TIP3    H254237   4.924   4.849   4.154 -3.3724 -1.9270  0.5983
10916TIP3   OH254238   3.797   2.533  15.461  0.2375 -0.1516  0.5162
10916TIP3    H154239   3.754   2.501  15.541 -0.3893 -2.1936 -0.5559
10916TIP3    H254240   3.824   2.622  15.483  0.0393 -0.6082  2.9736
10917TIP3   OH254241   3.654   2.632   3.633 -0.3814 -0.3551 -0.2579
10917TIP3    H154242   3.645   2.555   3.690  0.5267 -2.5255 -2.8372
10917TIP3    H254243   3.729   2.679   3.669  0.5390 -1.9718  0.0524
10918TIP3   OH254244   2.075   3.049   7.121  0.7084  1.4295 -0.1111
10918TIP3    H154245   2.136   3.115   7.088  0.6823  1.1825 -0.6565
10918TIP3    H254246   1.996   3.099   7.142  0.5078  1.5120 -1.0029
10919TIP3   OH254247   6.162   3.219   2.401 -0.0902 -0.0117  0.6239
10919TIP3    H154248   6.091   3.188   2.345  1.2166 -0.8449 -0.6022
10919TIP3    H254249   6.215   3.276   2.345  0.3033  0.5036  1.4873
10920TIP3   OH254250   1.768   1.309   6.358  0.0031 -0.1401 -0.6556
10920TIP3    H154251   1.759   1.254   6.280 -0.3506 -1.1138  0.0490
10920TIP3    H254252   1.861   1.302   6.382 -0.3710 -1.9417  0.4679
10921TIP3   OH254253   5.659   0.668   2.621 -0.1077  0.1770 -0.2826
10921TIP3    H154254   5.646   0.573   2.614 -0.5178  0.2330 -0.3412
10921TIP3    H254255   5.580   0.705   2.581 -0.3308  0.5360  0.4672
10922TIP3   OH254256   3.232   5.600  12.864  0.2651  0.3002 -0.6949
10922TIP3    H154257   3.246   5.644  12.947  0.7070  0.4291 -0.8370
10922TIP3    H254258   3.286   5.521  12.869 -0.9778 -0.5614 -0.1939
10923TIP3   OH254259   6.711   4.562  16.894 -0.1379  0.6452  0.3143
10923TIP3    H154260   6.793   4.538  16.851 -0.9288 -2.8936  0.4624
10923TIP3    H254261   6.737   4.583  16.984  0.7327  1.1978 -0.0427
10924TIP3   OH254262   3.349   5.799   5.017 -0.0543  0.1469 -0.0800
10924TIP3    H154263   3.312   5.789   4.929 -1.0352 -0.5750  0.3962
10924TIP3    H254264   3.317   5.723   5.065  0.9218  0.2509  0.7591
10925TIP3   OH254265   4.803   1.530   4.014 -0.1790 -0.2560  0.4825
10925TIP3    H154266   4.763   1.497   3.933 -0.5723  0.9699  0.1626
10925TIP3    H254267   4.765   1.617   4.026  1.6616  0.5542  0.7100
10926TIP3   OH254268   4.668   2.039  13.556  0.6991  0.0620 -0.4582
10926TIP3    H154269   4.639   2.002  13.472  0.9900 -1.2583  0.0000
10926TIP3    H254270   4.586   2.056  13.604  0.5632 -0.9204 -0.3069
10927TIP3   OH254271   3.657   1.817   4.558 -0.3921  0.0574  0.4896
10927TIP3    H154272   3.671   1.865   4.476 -1.3723 -0.7538 -0.1717
10927TIP3    H254273   3.691   1.876   4.625  3.7716 -0.6707 -0.6852
10928TIP3   OH254274   1.591   6.054  11.102 -0.3063 -0.3324 -0.4964
10928TIP3    H154275   1.659   6.043  11.035  0.8291 -1.4034  0.7876
10928TIP3    H254276   1.522   6.103  11.057  0.4417 -0.9418 -2.4234
10929TIP3   OH254277   3.988   2.757   5.197 -0.6120 -0.2653 -0.5098
10929TIP3    H154278   3.984   2.701   5.119 -1.6860 -1.1751  0.1737
10929TIP3    H254279   3.897   2.780   5.215 -0.2593  1.0614 -0.2965
10930TIP3   OH254280   4.523   0.758  14.371  0.1770 -0.0655 -0.2743
10930TIP3    H154281   4.603   0.724  14.331  0.1787 -0.7494  0.2986
10930TIP3    H254282   4.514   0.709  14.453 -0.0104  1.0831  0.4085
10931TIP3   OH254283   2.677   1.453   0.048 -0.1614  0.1118 -0.0180
10931TIP3    H154284   2.599   1.400   0.064 -0.2293  0.4789  0.9526
10931TIP3    H254285   2.743   1.390   0.018 -1.0116 -0.0985 -1.4927
10932TIP3   OH254286   1.505   3.967   4.147  0.0233 -0.1416  0.3018
10932TIP3    H154287   1.589   4.010   4.155 -0.9979  2.2417 -0.8881
10932TIP3    H254288   1.464   3.976   4.233  1.0749 -1.6470  0.9959
10933TIP3   OH254289   1.461   0.714   5.542  0.1061  0.1227 -0.1888
10933TIP3    H154290   1.381   0.740   5.497  0.0232 -0.5113 -0.4122
10933TIP3    H254291   1.489   0.793   5.588 -1.0833  0.1193  0.5621
10934TIP3   OH254292   5.574   6.092  12.918 -0.4800 -0.1998  0.1596
10934TIP3    H154293   5.641   6.035  12.956 -0.2101 -0.1508 -0.2383
10934TIP3    H254294   5.515   6.110  12.991  1.5920  2.2590  1.4291
10935TIP3   OH254295   1.135   3.696   0.701 -0.1632 -0.1122  0.5423
10935TIP3    H154296   1.059   3.750   0.722  0.2031  0.6018  0.0529
10935TIP3    H254297   1.165   3.729   0.616 -0.6317 -1.8290 -0.3556
10936TIP3   OH254298   5.331   0.487   5.011 -0.0137 -0.0011 -0.2390
10936TIP3    H154299   5.314   0.562   5.068 -1.1967 -0.7680  0.4632
10936TIP3    H254300   5.408   0.445   5.049 -0.9586 -0.6706  1.0315
10937TIP3   OH254301   4.429   1.688   0.836 -0.2495  0.0423  0.1660
10937TIP3    H154302   4.399   1.762   0.889 -0.9655 -0.7042  0.8239
10937TIP3    H254303   4.363   1.620   0.849  0.9012 -1.0769  0.3713
10938TIP3   OH254304   3.987   1.302   0.089  0.3148 -0.1373 -0.0211
10938TIP3    H154305   3.927   1.329   0.159  1.5403  1.5753  0.4358
10938TIP3    H254306   4.046   1.240   0.132  0.6711  0.4264  0.3170
10939TIP3   OH254307   0.735   0.132  16.345  0.6812  0.1008 -0.0286
10939TIP3    H154308   0.683   0.148  16.266  1.0681  2.2540  0.0846
10939TIP3    H254309   0.711   0.043  16.372  0.0505 -0.4546 -2.1820
10940TIP3   OH254310   5.290   1.264   0.690 -0.3680  0.2342 -0.1410
10940TIP3    H154311   5.228   1.198   0.721  0.0329 -0.2663 -0.3889
10940TIP3    H254312   5.330   1.224   0.613  1.4330 -0.1351  0.9279
10941TIP3   OH254313   5.207   3.781   0.628  0.5769  0.7012 -0.6051
10941TIP3    H154314   5.237   3.782   0.537  1.8249 -0.4188 -0.2480
10941TIP3    H254315   5.272   3.834   0.675  0.9304 -0.1665 -0.1037
10942TIP3   OH254316   4.103   0.271   4.591  0.4526 -0.0976 -0.3823
10942TIP3    H154317   4.092   0.182   4.557  0.5209  0.1045 -0.9469
10942TIP3    H254318   4.021   0.315   4.571 -0.0713 -0.3848  1.0318
10943TIP3   OH254319   4.809   1.872   5.404 -0.4494 -0.0496 -0.7736
10943TIP3    H154320   4.845   1.956   5.378 -1.3386 -0.0058 -1.9142
10943TIP3    H254321   4.885   1.821   5.433  0.1933  0.8668 -0.8172
10944TIP3   OH254322   0.177   4.249  16.666 -0.2061  0.4802  0.2136
10944TIP3    H154323   0.133   4.224  16.747  0.9120 -2.1628  0.1081
10944TIP3    H254324   0.215   4.335  16.686 -1.0682  0.5036  2.0172
10945TIP3   OH254325   1.457   3.988   2.037  0.4059 -0.0108  0.3890
10945TIP3    H154326   1.383   3.944   2.080  1.0256 -1.5161 -0.0128
10945TIP3    H254327   1.471   3.937   1.957  2.1559 -0.0300  0.6756
10946TIP3   OH254328   3.344   4.461   4.647 -0.4306  0.5434  0.4204
10946TIP3    H154329   3.424   4.499   4.610  1.3730 -3.0719  0.1071
10946TIP3    H254330   3.278   4.472   4.578  1.0714 -0.2023 -1.2506
10947TIP3   OH254331   2.949   4.690  14.874 -0.0813  0.4895  0.4293
10947TIP3    H154332   2.961   4.605  14.916 -0.4783 -0.5042 -1.3482
10947TIP3    H254333   2.857   4.712  14.890  0.1966  0.9698  1.4945
10948TIP3   OH254334   2.622   5.384   4.654  0.5350  0.3645 -0.0466
10948TIP3    H154335   2.582   5.426   4.730  1.9251 -0.2104  1.0501
10948TIP3    H254336   2.674   5.312   4.690  3.3408  1.6365 -1.2100
10949TIP3   OH254337   2.103   3.119   2.231  0.5860  0.5846 -0.0739
10949TIP3    H154338   2.149   3.152   2.154  1.4345 -0.0601  0.1391
10949TIP3    H254339   2.153   3.042   2.258 -2.3151 -2.0938 -1.6496
10950TIP3   OH254340   6.057   5.347  12.583 -0.3822 -0.5946 -0.0369
10950TIP3    H154341   6.084   5.344  12.675  0.0820  0.9809 -0.0893
10950TIP3    H254342   5.962   5.335  12.585 -0.1548 -2.7603  0.4377
10951TIP3   OH254343   3.532   2.659   0.027  0.0460  0.7691  0.3298
10951TIP3    H154344   3.571   2.675  -0.059 -0.0641 -1.6153 -0.2607
10951TIP3    H254345   3.441   2.636   0.008  0.1570 -0.3103  0.9892
10952TIP3   OH254346   6.322   2.251  13.796  0.1908  0.3738  0.2774
10952TIP3    H154347   6.386   2.275  13.729 -0.7165 -1.0666 -1.1907
10952TIP3    H254348   6.242   2.296  13.770 -0.3134 -0.6173  0.0231
10953TIP3   OH254349   0.368   0.673  16.534 -0.8506  0.1370 -0.5088
10953TIP3    H154350   0.454   0.635  16.515 -0.3116  1.3251 -0.5227
10953TIP3    H254351   0.308   0.628  16.474 -0.0630  0.0155 -1.2198
10954TIP3   OH254352   2.434   0.725   6.314 -0.2348 -0.1433  0.2900
10954TIP3    H154353   2.406   0.634   6.307 -0.4385 -0.1164  0.6767
10954TIP3    H254354   2.366   0.775   6.268 -0.9845 -0.0572  1.4291
10955TIP3   OH254355   0.609   0.654   5.535 -0.4155 -0.7049 -0.0012
10955TIP3    H154356   0.570   0.673   5.621  0.0411 -0.3673  0.1351
10955TIP3    H254357   0.590   0.732   5.483  1.6145  0.2560  0.6095
10956TIP3   OH254358   4.123   2.304   5.537 -0.2077 -0.0042  0.2954
10956TIP3    H154359   4.106   2.377   5.478  3.5085  0.1003 -0.9012
10956TIP3    H254360   4.167   2.344   5.612  1.0314 -0.8758  0.0547
10957TIP3   OH254361   1.933   2.118  12.287  0.3552 -0.2382  0.3523
10957TIP3    H154362   1.897   2.043  12.335  1.1628 -0.0612  1.2885
10957TIP3    H254363   1.950   2.184  12.355  1.1172  0.1922 -0.2314
10958TIP3   OH254364   1.490   3.164   0.021  0.5043  0.6347 -0.3962
10958TIP3    H154365   1.464   3.079   0.055 -3.4414  1.1296 -1.6588
10958TIP3    H254366   1.571   3.147  -0.027 -0.2321 -2.4315 -0.7414
10959TIP3   OH254367   0.402   2.599   3.489 -0.2599 -0.6593 -0.2142
10959TIP3    H154368   0.317   2.571   3.522 -0.6590  0.1892 -0.4874
10959TIP3    H254369   0.400   2.576   3.396  0.0201 -1.1120 -0.1109
10960TIP3   OH254370   2.374   4.114   4.572  0.5995  0.0296  0.1105
10960TIP3    H154371   2.415   4.047   4.517 -0.1877  0.6900 -1.3404
10960TIP3    H254372   2.435   4.188   4.569 -0.9819  1.4126 -2.9138
10961TIP3   OH254373   5.217   5.283   1.216 -0.2871  0.2646  0.6334
10961TIP3    H154374   5.203   5.190   1.198 -0.4233  0.2974  0.5708
10961TIP3    H254375   5.307   5.288   1.249  0.2204  0.3054 -0.7107
10962TIP3   OH254376   5.076   1.882   4.803 -0.2712 -0.2402  0.3029
10962TIP3    H154377   5.082   1.915   4.892  1.7284  2.2714 -0.6251
10962TIP3    H254378   5.069   1.961   4.749 -0.5286 -1.6411 -1.8163
10963TIP3   OH254379   5.676   2.846   3.403 -0.1580 -0.4114  0.3316
10963TIP3    H154380   5.614   2.877   3.338  2.4326  0.3958 -1.9503
10963TIP3    H254381   5.661   2.752   3.409 -0.9982 -0.3598 -0.8196
10964TIP3   OH254382   5.630   3.309   1.387 -0.6863 -0.0033  0.6199
10964TIP3    H154383   5.640   3.388   1.440  1.3649  0.1550  0.0961
10964TIP3    H254384   5.628   3.340   1.296 -2.2321 -0.4149  0.4790
10965TIP3   OH254385   4.093   1.454  14.588 -0.2086  0.2346  0.4306
10965TIP3    H154386   4.040   1.379  14.558 -1.4154  1.3615 -0.3733
10965TIP3    H254387   4.173   1.414  14.621 -0.4520 -1.3728 -0.7533
10966TIP3   OH254388   4.649   3.691   2.705  0.8196 -0.4266  0.2958
10966TIP3    H154389   4.686   3.744   2.774  0.5668  0.7475 -0.4431
10966TIP3    H254390   4.612   3.754   2.643 -0.8141 -1.4947  0.1192
10967TIP3   OH254391   0.228   4.599   6.729  0.2075 -0.3437  0.2550
10967TIP3    H154392   0.176   4.567   6.802  0.1354 -3.0738 -0.8817
10967TIP3    H254393   0.318   4.575   6.752  0.3266 -0.1828 -0.0372
10968TIP3   OH254394   3.435   1.874   5.499  0.1705  0.2789 -0.3120
10968TIP3    H154395   3.440   1.778   5.501 -2.3075  0.0833 -0.9972
10968TIP3    H254396   3.526   1.902   5.486  0.8980 -1.9670 -0.5253
10969TIP3   OH254397   6.197   4.359  16.855  0.0576  0.2131  0.1706
10969TIP3    H154398   6.134   4.423  16.823 -0.7381 -0.2388  0.8065
10969TIP3    H254399   6.144   4.283  16.880  0.5836  0.5585  2.6440
10970TIP3   OH254400   1.026   0.303  12.315 -0.2598  0.3618  0.1458
10970TIP3    H154401   1.002   0.380  12.367 -1.1732 -0.9625  1.7722
10970TIP3    H254402   1.115   0.321  12.285 -0.8749  2.5799 -0.5905
10971TIP3   OH254403   2.368   3.845  11.869 -0.2383  0.6693 -0.2433
10971TIP3    H154404   2.393   3.815  11.782  1.4713  0.2289  0.3621
10971TIP3    H254405   2.451   3.860  11.914 -1.0100 -1.4654  2.1176
10972TIP3   OH254406   5.312   2.725  17.492  0.4670 -0.4110  0.2482
10972TIP3    H154407   5.253   2.752  17.421  1.4801  0.2885 -0.3630
10972TIP3    H254408   5.291   2.786  17.564  0.6285  0.0206 -0.0629
10973TIP3   OH254409   2.670   5.138   3.112 -0.2637 -0.1485  0.0320
10973TIP3    H154410   2.622   5.210   3.153  0.4883  1.0009 -1.0150
10973TIP3    H254411   2.696   5.082   3.185 -1.5195  0.2316  0.7951
10974TIP3   OH254412   6.114   0.147  15.179 -0.0595 -0.2833  0.1153
10974TIP3    H154413   6.187   0.124  15.238 -1.2831  0.1417  1.8804
10974TIP3    H254414   6.080   0.062  15.151  0.3824 -0.5070  0.2276
10975TIP3   OH254415   4.745   4.912  17.172 -0.0208  0.5906  0.4956
10975TIP3    H154416   4.746   4.899  17.266  0.8332 -1.2447  0.2737
10975TIP3    H254417   4.802   4.843  17.137 -0.1305  1.3611 -1.3498
10976TIP3   OH254418   2.238   1.377  15.111 -0.0234  0.0927 -0.3767
10976TIP3    H154419   2.286   1.295  15.103 -1.3188 -0.5349 -3.0592
10976TIP3    H254420   2.211   1.398  15.021 -0.3613  3.0930  0.3085
10977TIP3   OH254421   4.574   1.680  13.284  0.2346  0.0572  0.3011
10977TIP3    H154422   4.575   1.634  13.368  0.7163 -1.0417 -0.2912
10977TIP3    H254423   4.571   1.611  13.218 -0.8658  0.9192 -0.5920
10978TIP3   OH254424   1.821   1.088   4.583 -0.4854 -0.0772  0.3598
10978TIP3    H154425   1.815   1.044   4.498  0.2718  0.5395 -0.0374
10978TIP3    H254426   1.733   1.123   4.598 -0.1992  1.3960 -1.0899
10979TIP3   OH254427   0.682   6.525  15.247  0.1219  0.4525  0.3100
10979TIP3    H154428   0.644   6.569  15.171  0.1518  1.2227  0.7383
10979TIP3    H254429   0.655   6.433  15.237  0.7338  0.3995 -1.0077
10980TIP3   OH254430   6.165   6.535  16.918 -0.0612 -0.1154  0.0886
10980TIP3    H154431   6.120   6.474  16.976 -0.7177  0.5886  0.3405
10980TIP3    H254432   6.242   6.562  16.967 -0.4742  0.2731  0.5338
10981TIP3   OH254433   5.139   6.704  11.996 -0.0769 -0.1582 -0.2106
10981TIP3    H154434   5.202   6.669  11.934 -0.4267 -0.9152 -0.1553
10981TIP3    H254435   5.057   6.711  11.946 -0.3134 -0.5957  0.1006
10982TIP3   OH254436   1.859   4.809  16.704  0.0840 -0.4167 -0.0815
10982TIP3    H154437   1.779   4.786  16.658  0.9191 -2.4068 -0.6610
10982TIP3    H254438   1.838   4.889  16.753 -1.8905 -0.2974 -1.0688
10983TIP3   OH254439   4.404   3.296   3.704 -0.2991 -0.2047  0.1745
10983TIP3    H154440   4.417   3.223   3.765  0.9766 -1.0366 -1.0364
10983TIP3    H254441   4.394   3.372   3.761  1.3188 -0.8813  1.4512
10984TIP3   OH254442   1.759   3.975  13.473  0.2067  0.6955 -0.1267
10984TIP3    H154443   1.826   3.917  13.511  0.5007  1.4464  0.5325
10984TIP3    H254444   1.730   3.930  13.394 -0.4667 -0.9729  1.0049
10985TIP3   OH254445   2.104   6.267   2.009 -0.4936 -0.1677  0.3817
10985TIP3    H154446   2.035   6.306   2.064 -0.0076 -0.3149  1.1172
10985TIP3    H254447   2.112   6.327   1.935 -1.3303 -0.0905  0.3431
10986TIP3   OH254448   4.924   4.712  17.096  0.2086  0.3083  0.0335
10986TIP3    H154449   5.017   4.692  17.105 -0.4432 -2.5784  1.2142
10986TIP3    H254450   4.894   4.657  17.024 -0.9000 -0.0580  0.7481
10987TIP3   OH254451   6.489   1.409  16.360  0.5385  0.2771  0.1809
10987TIP3    H154452   6.397   1.426  16.340  0.1162  0.2548  1.9252
10987TIP3    H254453   6.522   1.358  16.286 -1.0846 -0.4358 -0.0771
10988TIP3   OH254454   1.229   3.740   0.431 -0.3322 -0.5494  0.2246
10988TIP3    H154455   1.304   3.681   0.435  1.3709  1.4290 -0.4755
10988TIP3    H254456   1.192   3.726   0.344 -0.4926 -1.2073  0.3977
10989TIP3   OH254457   6.523   4.522  13.170 -0.1659  0.3434  0.2504
10989TIP3    H154458   6.615   4.503  13.152 -0.1876 -0.2056  0.6923
10989TIP3    H254459   6.477   4.496  13.090  0.1433  1.3256 -0.2571
10990TIP3   OH254460   3.738   2.490  12.217 -0.5992  0.0290 -0.1384
10990TIP3    H154461   3.715   2.455  12.303 -0.7165  1.1046  0.2803
10990TIP3    H254462   3.708   2.423  12.155 -1.4792 -0.2837  0.5997
10991TIP3   OH254463   6.452   5.812   5.828 -0.0132 -0.2791  0.6600
10991TIP3    H154464   6.400   5.817   5.909  1.9270 -0.4467  1.9794
10991TIP3    H254465   6.524   5.873   5.842  0.5896 -0.6228 -0.7942
10992TIP3   OH254466   6.539   1.003  10.560  0.1700  0.0171  0.0837
10992TIP3    H154467   6.597   1.049  10.499  3.1984 -2.4436  0.8447
10992TIP3    H254468   6.593   0.986  10.637 -2.7526  0.7125  2.4749
10993TIP3   OH254469   1.048   0.062   3.144  0.8218  0.4406  0.5342
10993TIP3    H154470   1.042   0.149   3.106  0.5636  0.0585 -0.3363
10993TIP3    H254471   1.119   0.067   3.207  2.1477  0.7611 -0.9479
10994TIP3   OH254472   4.337   1.374  12.351  0.2612  0.3581  0.1512
10994TIP3    H154473   4.265   1.407  12.404 -0.2405  0.0961 -0.3616
10994TIP3    H254474   4.344   1.437  12.279  2.4552  2.0522  1.7020
10995TIP3   OH254475   2.423   4.224   3.339 -0.0968 -0.6757 -0.0901
10995TIP3    H154476   2.432   4.133   3.310  0.5690 -0.7553  0.3469
10995TIP3    H254477   2.393   4.271   3.261 -0.5594 -1.2847 -0.2923
10996TIP3   OH254478   4.719   4.336  13.271 -0.0697 -0.0187  0.0181
10996TIP3    H154479   4.776   4.259  13.273 -2.1680 -1.7440 -1.3857
10996TIP3    H254480   4.735   4.376  13.185 -0.1108  0.2035  0.1129
10997TIP3   OH254481   6.087   4.727  13.656  0.1677 -0.1827  0.0584
10997TIP3    H154482   6.139   4.665  13.606  0.8205 -1.2388  1.9206
10997TIP3    H254483   6.089   4.808  13.605  0.5932 -1.2493 -1.6691
10998TIP3   OH254484   4.100   1.858   4.783  0.3282 -0.1939 -0.1264
10998TIP3    H154485   4.172   1.797   4.798 -0.6572 -1.0508  1.4342
10998TIP3    H254486   4.023   1.812   4.817 -0.4558  1.9120  1.1226
10999TIP3   OH254487   1.838   4.570  11.145 -0.6047  0.2521 -0.2242
10999TIP3    H154488   1.921   4.574  11.097 -0.4471  0.9047  0.0941
10999TIP3    H254489   1.809   4.479  11.135  0.3100 -0.0662 -0.0616
11000TIP3   OH254490   2.547   4.219  12.623  0.6180 -0.0890 -0.1839
11000TIP3    H154491   2.621   4.196  12.679 -0.0564  1.1836  1.2944
11000TIP3    H254492   2.518   4.304  12.655 -1.2273 -0.3673 -0.9953
11001TIP3   OH254493   6.412   3.331   2.016  0.3031 -0.6269 -0.5404
11001TIP3    H154494   6.496   3.368   2.043  0.5687 -0.9009 -0.9672
11001TIP3    H254495   6.434   3.245   1.981 -0.0954 -0.5060 -1.1054
11002TIP3   OH254496   0.123   2.257   2.498 -0.0208  0.3098 -0.3081
11002TIP3    H154497   0.120   2.294   2.586 -0.4754  1.6983 -0.8785
11002TIP3    H254498   0.187   2.310   2.452 -0.9121  0.6141 -1.2381
11003TIP3   OH254499   4.084   1.571  12.072  0.2703  0.2620  0.8855
11003TIP3    H154500   4.048   1.659  12.062 -1.3507 -0.3410  1.1181
11003TIP3    H254501   4.161   1.569  12.015 -0.9700  1.1280 -0.8710
11004TIP3   OH254502   2.487   6.346  16.214  0.3825 -0.1336  0.5997
11004TIP3    H154503   2.492   6.437  16.185 -1.0133 -0.4562 -0.8075
11004TIP3    H254504   2.448   6.351  16.302  0.9752  0.6568  0.8270
11005TIP3   OH254505   1.556   3.242  13.051  0.2424 -0.0833 -0.0542
11005TIP3    H154506   1.612   3.218  13.125 -1.3936 -1.3042  0.8649
11005TIP3    H254507   1.487   3.296  13.090 -0.2654 -0.1632 -0.8208
11006TIP3   OH254508   1.971   2.780  12.970 -0.3694 -0.3651  0.1169
11006TIP3    H154509   1.972   2.848  12.903 -1.5271 -1.3461 -0.9524
11006TIP3    H254510   1.881   2.780  13.004  0.4008  0.7261  2.3858
11007TIP3   OH254511   3.084   0.181  12.626 -0.0093  0.0777  0.4316
11007TIP3    H154512   3.136   0.196  12.705 -0.3579  0.4378  0.5922
11007TIP3    H254513   3.015   0.247  12.629 -0.5907 -0.5178  0.3147
11008TIP3   OH254514   1.393   5.420  13.976 -0.4451  0.0900  0.0454
11008TIP3    H154515   1.319   5.468  13.939 -0.9155  0.4295  1.3708
11008TIP3    H254516   1.369   5.328  13.967 -1.0130  0.1968  0.4292
11009TIP3   OH254517   4.744   0.191  15.094  0.2995 -0.1248 -0.0483
11009TIP3    H154518   4.661   0.163  15.132  0.3682 -0.5192 -0.1865
11009TIP3    H254519   4.773   0.117  15.041 -0.2625  0.7589 -1.6388
11010TIP3   OH254520   1.169   4.212  16.667  0.0794  0.4674 -0.3450
11010TIP3    H154521   1.210   4.256  16.592  1.3212 -1.7349 -1.0656
11010TIP3    H254522   1.197   4.263  16.743 -1.4863  2.9494 -1.3457
11011TIP3   OH254523   1.108   2.422  17.586 -0.4297  0.1991 -0.5661
11011TIP3    H154524   1.023   2.457  17.614 -0.6799 -0.7901 -0.0248
11011TIP3    H254525   1.101   2.415  17.491 -0.4762  1.3172 -0.6504
11012TIP3   OH254526   0.798   3.762   3.182 -0.0421  0.2821 -0.5400
11012TIP3    H154527   0.786   3.764   3.087 -1.0452  2.0881 -0.4106
11012TIP3    H254528   0.867   3.827   3.199  0.7548 -0.6603 -0.0964
11013TIP3   OH254529   3.479   5.439  11.150  0.1237 -0.6224 -0.2272
11013TIP3    H154530   3.389   5.415  11.129 -0.6310  1.2004  0.7149
11013TIP3    H254531   3.483   5.440  11.245  1.1564 -0.7356 -0.2547
11014TIP3   OH254532   4.693   4.788   3.999 -0.2936  0.4090 -0.1679
11014TIP3    H154533   4.713   4.717   3.937 -0.0048  0.3710 -0.0350
11014TIP3    H254534   4.636   4.748   4.064 -0.7751  0.5058 -0.5293
11015TIP3   OH254535   6.598   1.861   5.253 -0.2889  0.1593 -0.2347
11015TIP3    H154536   6.597   1.784   5.196  2.0622  1.4723 -2.2641
11015TIP3    H254537   6.625   1.827   5.339  1.7825 -1.2267 -1.3264
11016TIP3   OH254538   0.538   1.230   6.329  0.1730 -0.1751  0.2327
11016TIP3    H154539   0.593   1.207   6.255 -0.3522  0.5712 -0.4023
11016TIP3    H254540   0.592   1.289   6.382 -0.4180  1.5907 -1.0483
11017TIP3   OH254541   1.000   0.144   5.949 -0.6963  0.2358  0.0315
11017TIP3    H154542   1.028   0.154   6.039 -1.5636 -0.1291  0.3527
11017TIP3    H254543   1.078   0.114   5.902 -0.7556 -1.7751  1.0966
11018TIP3   OH254544   6.685   6.676   0.288 -0.1386 -0.0321 -0.0719
11018TIP3    H154545   6.628   6.613   0.243  0.0120 -1.2514  1.3737
11018TIP3    H254546   6.628   6.751   0.306 -0.5858 -0.1504 -0.9352
11019TIP3   OH254547   5.254   6.612   0.205 -0.2406 -0.1609  0.6795
11019TIP3    H154548   5.161   6.634   0.199  0.7646  4.7730 -2.1780
11019TIP3    H254549   5.280   6.593   0.115  1.8016 -0.0898  1.2139
11020TIP3   OH254550   5.815   2.599   5.148  0.2016  0.3882 -0.6036
11020TIP3    H154551   5.892   2.611   5.092  0.2634 -2.1041 -1.1558
11020TIP3    H254552   5.749   2.658   5.111  1.1982  1.0359 -1.3898
11021TIP3   OH254553   1.918   1.710  12.764 -0.3753 -0.2648 -0.0322
11021TIP3    H154554   1.916   1.784  12.702 -3.0370 -1.0000 -0.9824
11021TIP3    H254555   1.930   1.751  12.849 -0.7045  1.1769 -0.6398
11022TIP3   OH254556   4.709   3.702   5.850 -0.3006  0.3542  0.8252
11022TIP3    H154557   4.652   3.627   5.832 -0.0373  0.2224  0.5273
11022TIP3    H254558   4.768   3.671   5.919  0.3438  0.0093  0.1271
11023TIP3   OH254559   6.025   4.088   5.391  0.0928  0.2330 -0.5665
11023TIP3    H154560   6.069   4.136   5.460  1.6071 -1.0196 -0.5968
11023TIP3    H254561   6.065   4.001   5.393 -1.4674 -0.5539 -1.4993
11024TIP3   OH254562   3.412   0.993  14.204  0.2674  0.4761 -0.1425
11024TIP3    H154563   3.331   0.971  14.250  0.9633 -0.3252  0.7398
11024TIP3    H254564   3.407   1.088  14.190 -0.4450  0.5669  0.6568
11025TIP3   OH254565   0.229   1.824  11.104  0.4713  0.1026  0.3670
11025TIP3    H154566   0.251   1.895  11.164  0.8959  0.1482  0.1604
11025TIP3    H254567   0.151   1.855  11.057  1.2684  0.8953 -0.4787
11026TIP3   OH254568   0.819   1.945   4.176  0.1414 -0.5009 -0.1215
11026TIP3    H154569   0.857   2.008   4.236 -0.3682 -0.1630 -0.1522
11026TIP3    H254570   0.894   1.909   4.128  0.3723  0.5614 -0.5720
11027TIP3   OH254571   2.036   3.934  17.247  0.0930 -0.1411 -0.5098
11027TIP3    H154572   2.039   4.015  17.297  0.2582 -0.5333  0.1230
11027TIP3    H254573   2.118   3.889  17.268 -0.4693 -0.9658 -0.0087
11028TIP3   OH254574   0.601   1.878   5.422  0.0743  0.3768  0.2579
11028TIP3    H154575   0.613   1.881   5.327 -0.2314  2.4823  0.2185
11028TIP3    H254576   0.638   1.794   5.449  3.3114  1.1148 -1.3296
11029TIP3   OH254577   1.964   4.471   6.235  0.2809 -0.1094 -0.2190
11029TIP3    H154578   2.023   4.426   6.295 -0.4338 -0.5428  0.1758
11029TIP3    H254579   1.881   4.474   6.282 -0.1157  0.1359 -0.9264
11030TIP3   OH254580   4.903   1.120  12.179  0.0049 -0.1092 -0.0834
11030TIP3    H154581   4.824   1.125  12.232 -0.0305  0.1510 -0.1585
11030TIP3    H254582   4.971   1.091  12.240 -0.0379  0.1739  0.1047
11031TIP3   OH254583   5.273   2.504  11.960  0.2652 -0.2029 -0.2344
11031TIP3    H154584   5.226   2.553  12.027  1.0222 -1.4018  1.2391
11031TIP3    H254585   5.359   2.487  11.998  0.8726 -0.5536 -1.6925
11032TIP3   OH254586   5.619   3.870  16.200 -0.6769  0.2449 -0.5819
11032TIP3    H154587   5.601   3.842  16.111 -0.3464 -1.6760 -0.0824
11032TIP3    H254588   5.676   3.802  16.236  0.1700  1.5861  0.7255
11033TIP3   OH254589   0.765   1.747  17.389 -0.3039  0.5804  0.3028
11033TIP3    H154590   0.757   1.813  17.320 -3.7947  2.0573  1.9075
11033TIP3    H254591   0.684   1.696  17.383  0.1055 -0.3840  2.1916
11034TIP3   OH254592   1.637   6.650   0.276  0.1604 -0.4845  0.7757
11034TIP3    H154593   1.696   6.581   0.245 -0.6635 -0.5962 -0.6015
11034TIP3    H254594   1.657   6.726   0.221 -0.6909 -0.4062  0.5631
11035TIP3   OH254595   4.383   2.111   5.469 -0.0966  0.6201 -0.0562
11035TIP3    H154596   4.341   2.030   5.440 -0.4107  0.7838 -0.0684
11035TIP3    H254597   4.451   2.082   5.530 -1.5917  0.4421  1.6202
11036TIP3   OH254598   6.370   4.179  10.973 -0.1220 -0.6816 -0.4335
11036TIP3    H154599   6.304   4.109  10.974  0.4266 -1.2470 -1.9796
11036TIP3    H254600   6.449   4.138  11.007 -0.1212 -0.4559 -0.1584
11037TIP3   OH254601   4.763   0.022   5.454 -0.2617 -0.3488 -0.0432
11037TIP3    H154602   4.734  -0.047   5.395 -2.2778 -0.1600  0.6622
11037TIP3    H254603   4.789   0.094   5.396 -0.4710 -0.8082 -0.7183
11038TIP3   OH254604   6.574   1.907  12.173  0.5208  0.3095 -0.0350
11038TIP3    H154605   6.590   1.931  12.082  1.0571 -1.1096 -0.3417
11038TIP3    H254606   6.660   1.910  12.214  0.6014 -0.8922 -0.0647
11039TIP3   OH254607   4.437   5.453   1.634  0.3174  0.0406  0.4712
11039TIP3    H154608   4.392   5.456   1.549  0.7851 -2.1745  0.0789
11039TIP3    H254609   4.486   5.535   1.637  0.5960  0.0194 -1.5935
11040TIP3   OH254610   2.781   3.138   0.568 -0.0170  0.1271  0.2180
11040TIP3    H154611   2.831   3.061   0.543  0.7274  0.5399  0.4279
11040TIP3    H254612   2.690   3.114   0.548  0.3482 -0.2683 -1.0516
11041TIP3   OH254613   2.861   0.250  15.500  0.3216  0.3807  0.3793
11041TIP3    H154614   2.950   0.277  15.476  0.0965 -0.6091 -1.7815
11041TIP3    H254615   2.874   0.184  15.568  1.3324 -0.4094 -0.5384
11042TIP3   OH254616   1.639   3.943   1.022 -0.0305  0.8071  0.2094
11042TIP3    H154617   1.731   3.927   1.045 -0.5267 -0.5619  1.3763
11042TIP3    H254618   1.619   4.027   1.063 -0.0855 -0.2602  2.5167
11043TIP3   OH254619   1.590   1.902   2.461 -0.3226 -0.4747 -0.1465
11043TIP3    H154620   1.588   1.996   2.440  0.5038 -0.4000  0.0797
11043TIP3    H254621   1.499   1.875   2.455 -0.8918  0.7885  1.7405
11044TIP3   OH254622   6.326   0.373   2.562  0.3173 -0.1047  0.2273
11044TIP3    H154623   6.372   0.378   2.478  0.4796  2.4746  0.3867
11044TIP3    H254624   6.276   0.292   2.557  1.2765 -0.6405 -1.8563
11045TIP3   OH254625   5.167   0.734  14.044  0.1734  0.0841 -0.6375
11045TIP3    H154626   5.117   0.811  14.073  0.1307  0.5715 -1.9356
11045TIP3    H254627   5.106   0.661  14.055 -0.6153  0.5773 -1.5802
11046TIP3   OH254628   1.930   2.256   3.134  0.2486  0.7219  0.4263
11046TIP3    H154629   1.933   2.300   3.219 -4.2252 -2.0308  2.3485
11046TIP3    H254630   1.988   2.181   3.144  0.0457  0.6250  0.8905
11047TIP3   OH254631   0.367   5.759   6.836 -0.1137  0.3754 -0.1293
11047TIP3    H154632   0.277   5.763   6.804  0.9239 -0.7250 -3.6085
11047TIP3    H254633   0.393   5.850   6.845 -0.8382  0.7588 -1.5658
11048TIP3   OH254634   6.476   0.329   2.331 -0.0043  1.0612  0.2643
11048TIP3    H154635   6.414   0.311   2.261  0.7627 -1.9492  0.2179
11048TIP3    H254636   6.556   0.357   2.286  0.3684 -0.5069 -0.1158
11049TIP3   OH254637   6.737   0.579   4.895  0.1956  0.1611  0.0155
11049TIP3    H154638   6.672   0.533   4.841 -0.1320 -1.0926  1.4198
11049TIP3    H254639   6.771   0.512   4.954  1.8369  1.1031  0.1865
11050TIP3   OH254640   3.991   3.177  17.378 -0.1687  0.1426 -0.7624
11050TIP3    H154641   3.907   3.146  17.343 -0.8078 -0.4731  1.2105
11050TIP3    H254642   3.968   3.224  17.458  1.3801 -0.1816 -0.0836
11051TIP3   OH254643   2.066   3.714   5.113 -0.1910 -0.1410  0.2163
11051TIP3    H154644   2.104   3.753   5.193 -0.8885  0.5032  0.2419
11051TIP3    H254645   2.099   3.624   5.113  2.8715  0.8455 -0.7397
11052TIP3   OH254646   4.722   6.074   5.609 -0.3004  0.2769  0.3913
11052TIP3    H154647   4.724   5.983   5.582  1.0257  0.1339  0.9281
11052TIP3    H254648   4.804   6.111   5.578 -0.1347  0.8883  1.4987
11053TIP3   OH254649   2.274   1.150   6.745  0.7204 -0.0462 -0.7006
11053TIP3    H154650   2.362   1.168   6.713  1.2330 -0.1417  0.5788
11053TIP3    H254651   2.236   1.236   6.763  0.1871  0.0423 -2.1045
11054TIP3   OH254652   5.170   1.408   6.062 -0.5189 -0.3705 -0.1568
11054TIP3    H154653   5.220   1.483   6.030 -1.3784  0.0027 -0.6457
11054TIP3    H254654   5.119   1.379   5.986 -0.7380 -1.0015  0.2230
11055TIP3   OH254655   1.274   1.110   6.092 -0.0531 -0.2906 -0.5994
11055TIP3    H154656   1.309   1.021   6.085  1.0246  0.1236 -0.8065
11055TIP3    H254657   1.348   1.163   6.122 -0.5632  0.6036 -0.8590
11056TIP3   OH254658   4.365   4.430  17.611 -0.5719  0.0437 -0.7782
11056TIP3    H154659   4.383   4.376  17.534  0.2113  0.3112 -0.7866
11056TIP3    H254660   4.407   4.514  17.592  2.9270 -0.9988  1.4881
11057TIP3   OH254661   3.004   4.221  17.212  0.2365  0.3034  0.3767
11057TIP3    H154662   2.969   4.251  17.129 -0.8472  1.5315  1.2389
11057TIP3    H254663   3.092   4.191  17.192  0.9461  2.9073 -0.7996
11058TIP3   OH254664   2.088   0.164   0.658 -0.2926  0.5102 -0.1027
11058TIP3    H154665   2.123   0.243   0.699  2.7569  0.7206 -2.7047
11058TIP3    H254666   2.144   0.093   0.690 -0.4609  0.0593 -0.7892
11059TIP3   OH254667   0.616   3.787  11.123  0.3290 -0.2720 -0.1812
11059TIP3    H154668   0.550   3.853  11.141  0.9957  0.4868 -0.4630
11059TIP3    H254669   0.576   3.704  11.151 -0.3709  0.2898  0.5026
11060TIP3   OH254670   3.395   4.540  16.200  0.3252 -0.1113 -0.0004
11060TIP3    H154671   3.472   4.484  16.213  0.7723  0.5293  0.1644
11060TIP3    H254672   3.376   4.576  16.286 -0.5817 -0.7851  0.0917
11061TIP3   OH254673   4.965   3.598   6.442  0.2605 -0.2000  0.0983
11061TIP3    H154674   4.902   3.571   6.375 -0.2704  1.0363  0.0689
11061TIP3    H254675   4.964   3.694   6.439  1.8917 -0.1496  0.3485
11062TIP3   OH254676   5.565   6.492  15.943  0.1954  0.1498 -0.4487
11062TIP3    H154677   5.495   6.557  15.933 -0.1879 -0.4271 -1.6947
11062TIP3    H254678   5.637   6.527  15.890  0.2148 -0.1162 -0.5986
11063TIP3   OH254679   4.255   6.454   0.794  0.6621 -0.2159  0.2331
11063TIP3    H154680   4.261   6.363   0.765  1.5941 -0.3714  0.8708
11063TIP3    H254681   4.225   6.450   0.884  0.9840  0.0962  0.3569
11064TIP3   OH254682   0.494   5.910   1.812 -0.0706  0.6530  0.3099
11064TIP3    H154683   0.562   5.855   1.774  0.3172 -0.0266  1.9048
11064TIP3    H254684   0.519   5.999   1.787  0.6819  0.3069 -0.2017
11065TIP3   OH254685   0.671   4.758  16.017  0.2090 -0.3753 -0.0897
11065TIP3    H154686   0.714   4.757  15.931 -1.3014 -2.4356 -0.8962
11065TIP3    H254687   0.743   4.748  16.079  1.2928  0.7303 -1.0973
11066TIP3   OH254688   1.346   6.279   2.895 -0.1027 -0.4443  0.2806
11066TIP3    H154689   1.325   6.221   2.968 -1.8139  1.3377  1.3279
11066TIP3    H254690   1.426   6.324   2.922 -1.3797  1.1093  1.7646
11067TIP3   OH254691   5.373   2.012  15.076  0.4780 -0.2480 -0.0397
11067TIP3    H154692   5.364   1.979  14.986  0.6506  0.1173 -0.1914
11067TIP3    H254693   5.429   2.089  15.068  0.9943 -0.5699  0.4689
11068TIP3   OH254694   0.704   3.804   4.491 -0.2667 -0.7263  0.0152
11068TIP3    H154695   0.645   3.825   4.563 -0.3031  0.1151 -0.2486
11068TIP3    H254696   0.648   3.802   4.414 -0.0485 -0.5059 -0.1503
11069TIP3   OH254697   1.172   1.017  13.286  0.3420  0.0149  0.1791
11069TIP3    H154698   1.094   1.060  13.252  1.1361  0.9389 -0.5127
11069TIP3    H254699   1.221   1.087  13.329  2.4118  0.2201 -2.2978
11070TIP3   OH254700   3.534   3.374   5.016  0.4453 -0.4005  0.3582
11070TIP3    H154701   3.544   3.313   4.943 -0.7014 -0.2756  0.0754
11070TIP3    H254702   3.456   3.343   5.062 -0.6797  1.3155 -0.2864
11071TIP3   OH254703   5.704   1.447  11.859  0.7123 -0.7192  0.2426
11071TIP3    H154704   5.706   1.514  11.929 -0.3874 -0.9482  0.5103
11071TIP3    H254705   5.632   1.475  11.802  1.9804 -0.2098 -1.1570
11072TIP3   OH254706   5.904   2.892   5.916 -0.1090 -0.1095 -0.1117
11072TIP3    H154707   5.970   2.876   5.983 -0.7314 -0.3383  0.4493
11072TIP3    H254708   5.928   2.833   5.844  1.8556  1.6676 -1.0514
11073TIP3   OH254709   1.252   5.641  15.069 -0.3998  0.7196 -0.0499
11073TIP3    H154710   1.287   5.552  15.064 -0.2481  0.8313 -1.1620
11073TIP3    H254711   1.227   5.662  14.980 -1.0156  1.5727  0.3139
11074TIP3   OH254712   2.109   4.515  13.437  0.4769  0.3247  0.2671
11074TIP3    H154713   2.130   4.473  13.353  0.6197 -0.8330  0.8688
11074TIP3    H254714   2.062   4.449  13.486 -0.2497  1.2432  0.8450
11075TIP3   OH254715   5.598   2.035  12.043  0.0477 -0.2005  0.3942
11075TIP3    H154716   5.583   1.966  11.979  1.3854 -1.9581  1.8675
11075TIP3    H254717   5.552   2.006  12.122 -1.2097  1.7104  0.4340
11076TIP3   OH254718   1.688   5.507   0.200 -0.1797  0.4890  0.5629
11076TIP3    H154719   1.621   5.565   0.164 -1.2259 -0.0908  1.4795
11076TIP3    H254720   1.745   5.487   0.126 -1.6332  0.1745 -0.5255
11077TIP3   OH254721   4.431   6.224  13.237  0.6075 -0.3719 -0.0844
11077TIP3    H154722   4.413   6.146  13.290  2.1123 -1.4369 -1.0673
11077TIP3    H254723   4.518   6.208  13.200  0.5502  1.3666 -1.0581
11078TIP3   OH254724   1.224   0.993   3.693  0.6549 -0.2093 -0.3157
11078TIP3    H154725   1.136   0.962   3.713 -0.9010  2.2175 -2.7563
11078TIP3    H254726   1.253   1.035   3.774 -0.6021 -0.6516  0.3920
11079TIP3   OH254727   5.286   2.199   0.426  0.5574 -0.0613  0.0012
11079TIP3    H154728   5.303   2.292   0.444 -0.4256  0.1685 -0.2028
11079TIP3    H254729   5.202   2.199   0.380  0.1449 -1.1183  0.7199
11080TIP3   OH254730   5.536   6.372  14.203 -0.2374  0.1034  0.3733
11080TIP3    H154731   5.612   6.426  14.180 -2.1364  2.9690  0.3536
11080TIP3    H254732   5.528   6.379  14.298 -1.7238  1.7901  0.1862
11081TIP3   OH254733   1.487   2.540   1.611 -0.3076  0.1964 -0.4897
11081TIP3    H154734   1.393   2.524   1.600 -0.3621 -1.5623  1.8369
11081TIP3    H254735   1.496   2.634   1.602 -2.3228  0.4198 -0.6758
11082TIP3   OH254736   3.710   4.860  12.627 -0.4556 -0.3628  0.3185
11082TIP3    H154737   3.656   4.782  12.641  2.4014 -2.3546  1.2196
11082TIP3    H254738   3.766   4.837  12.552  1.6619  0.0099  1.6902
11083TIP3   OH254739   2.111   0.188   4.791  0.2503  0.3860 -0.2596
11083TIP3    H154740   2.182   0.238   4.751 -0.5722  1.1345 -0.8436
11083TIP3    H254741   2.111   0.105   4.744  1.4460 -0.0788  0.5204
11084TIP3   OH254742   1.934   1.055   0.072  0.0153 -0.4203 -0.2381
11084TIP3    H154743   1.861   1.085   0.126 -0.4730 -0.5458 -0.8072
11084TIP3    H254744   1.966   0.977   0.117 -0.7032 -0.8090 -0.3800
11085TIP3   OH254745   4.525   2.465  14.441 -0.3582  0.7640  0.9039
11085TIP3    H154746   4.489   2.553  14.434 -0.2934  0.8233  1.3327
11085TIP3    H254747   4.565   2.461  14.528 -1.1280  0.0352  1.2399
11086TIP3   OH254748   5.094   2.530  16.856 -0.3431  0.3424 -0.1673
11086TIP3    H154749   5.075   2.494  16.942  1.7908  0.1109  0.2442
11086TIP3    H254750   5.141   2.612  16.874  2.0686 -0.7584 -1.0171
11087TIP3   OH254751   1.918   2.408   6.240  0.4612 -0.0150 -0.6233
11087TIP3    H154752   1.828   2.439   6.228  0.4797 -0.1592 -1.1669
11087TIP3    H254753   1.973   2.485   6.226  0.3695  0.4407  1.2390
11088TIP3   OH254754   4.879   4.356   2.967  1.1402 -0.1189 -0.0509
11088TIP3    H154755   4.842   4.436   3.005  0.3821 -0.3669 -0.2558
11088TIP3    H254756   4.939   4.323   3.034 -0.3555 -0.6879  1.0565
11089TIP3   OH254757   0.339   6.090  11.824 -0.5342  0.4011 -0.0485
11089TIP3    H154758   0.278   6.024  11.857  0.0157 -0.3051 -0.4394
11089TIP3    H254759   0.425   6.056  11.845 -0.2384  0.9493 -0.3495
11090TIP3   OH254760   0.530   3.287  16.514 -1.0834  0.3871  0.5747
11090TIP3    H154761   0.582   3.224  16.464  1.6439  0.6276  2.8861
11090TIP3    H254762   0.555   3.373  16.478  0.9340  0.5654  2.2526
11091TIP3   OH254763   4.643   1.496   3.196  0.4407 -0.1854  0.5433
11091TIP3    H154764   4.645   1.430   3.265 -0.5206 -0.9283 -0.1003
11091TIP3    H254765   4.688   1.455   3.122  0.3121  0.0819  0.3133
11092TIP3   OH254766   1.546   2.935   4.873 -0.2483  0.0920 -0.0487
11092TIP3    H154767   1.575   3.021   4.904 -0.0315  0.4181 -1.1116
11092TIP3    H254768   1.451   2.937   4.881 -0.2783  0.6071 -0.4851
11093TIP3   OH254769   5.849   6.143  11.678 -0.8806  0.8940 -0.0291
11093TIP3    H154770   5.795   6.197  11.735 -0.2058  1.9191 -0.3369
11093TIP3    H254771   5.850   6.189  11.594  2.3267  2.2076  0.5752
11094TIP3   OH254772   6.033   4.581   4.120  0.0101  0.2483  0.2369
11094TIP3    H154773   5.980   4.638   4.177  0.5463 -0.7234  1.7769
11094TIP3    H254774   6.119   4.623   4.118 -0.5678  1.4259 -1.6538
11095TIP3   OH254775   5.143   0.124  13.242 -0.3154 -0.0563 -0.3482
11095TIP3    H154776   5.070   0.062  13.254 -0.9031  0.2365 -2.0957
11095TIP3    H254777   5.217   0.068  13.218 -0.2721 -0.2555  0.2354
11096TIP3   OH254778   3.399   4.271  17.078  0.6994  0.4357  0.2100
11096TIP3    H154779   3.427   4.357  17.111 -0.3537  0.3713  1.3836
11096TIP3    H254780   3.473   4.214  17.094  1.0952  0.9477  0.2280
11097TIP3   OH254781   2.512   0.541  17.290 -0.6693 -0.0270 -0.2940
11097TIP3    H154782   2.574   0.519  17.219 -0.3379 -3.3008  0.8282
11097TIP3    H254783   2.558   0.606  17.342  0.6185 -0.2458 -1.1002
11098TIP3   OH254784   6.469   2.609  13.581  0.3530  0.2592 -0.1960
11098TIP3    H154785   6.445   2.682  13.524  1.4339  0.5386 -0.2997
11098TIP3    H254786   6.492   2.650  13.665 -0.6800 -0.1073  0.2918
11099TIP3   OH254787   4.564   3.893   0.433 -0.3236  0.0338  0.0089
11099TIP3    H154788   4.553   3.981   0.468  0.6302  1.2433 -2.5393
11099TIP3    H254789   4.655   3.888   0.406  0.0663 -2.3270  1.4112
11100TIP3   OH254790   4.089   6.380  15.102 -0.5451  0.4169 -0.0386
11100TIP3    H154791   4.069   6.287  15.094 -0.4674  0.4161 -0.2353
11100TIP3    H254792   4.062   6.403  15.191  1.3824 -0.2882  0.7839
11101TIP3   OH254793   5.114   5.663   2.414 -0.6943 -0.2033 -0.7517
11101TIP3    H154794   5.022   5.689   2.413 -0.3534  1.7868  2.9571
11101TIP3    H254795   5.158   5.727   2.359 -1.0260  1.8589  1.2461
11102TIP3   OH254796   1.543   6.253  13.101 -0.3391  0.5105  0.8153
11102TIP3    H154797   1.500   6.168  13.092  0.0953  0.2729  0.9695
11102TIP3    H254798   1.597   6.262  13.023  1.2247 -0.2877  1.7739
11103TIP3   OH254799   0.820   5.214   2.084 -0.5195  0.0219  0.0248
11103TIP3    H154800   0.756   5.192   2.017 -0.8028 -0.5466  0.4772
11103TIP3    H254801   0.903   5.224   2.036 -0.7710 -0.1141 -0.4409
11104TIP3   OH254802   0.469   6.318   4.118  0.1718  0.0430 -0.1173
11104TIP3    H154803   0.402   6.269   4.165  0.8111 -2.1367 -1.3435
11104TIP3    H254804   0.538   6.333   4.184  0.1895 -1.1980  0.1703
11105TIP3   OH254805   1.779   0.130   5.747 -0.4538 -0.4115  0.3405
11105TIP3    H154806   1.729   0.071   5.802 -0.3782 -0.1664  0.6791
11105TIP3    H254807   1.871   0.110   5.767 -0.4008  1.0374  1.8384
11106TIP3   OH254808   0.055   0.933  13.230 -0.4145 -0.9917 -0.2993
11106TIP3    H154809   0.082   1.003  13.290 -2.1094 -1.0946  0.6240
11106TIP3    H254810   0.138   0.897  13.197  0.5076  0.4416  0.3647
11107TIP3   OH254811   4.137   1.965   2.493  0.0293  0.4214  0.1263
11107TIP3    H154812   4.136   2.060   2.479  0.3115  0.5236  0.7414
11107TIP3    H254813   4.124   1.927   2.406  1.9195  0.9983 -0.4473
11108TIP3   OH254814   3.527   5.830  17.217 -0.5234 -0.2161 -0.1070
11108TIP3    H154815   3.616   5.852  17.245 -0.9537 -1.5180  2.5153
11108TIP3    H254816   3.537   5.805  17.125  1.7764 -0.1091  0.0491
11109TIP3   OH254817   0.316   0.619   0.254  0.0798  0.4566  0.0271
11109TIP3    H154818   0.240   0.561   0.261  1.7498 -2.1295 -1.7920
11109TIP3    H254819   0.339   0.618   0.161  2.0886  1.5234  0.4545
11110TIP3   OH254820   4.097   0.949   5.401  0.4099 -0.1431 -0.1299
11110TIP3    H154821   4.041   0.887   5.448  0.8716 -1.4304 -1.2069
11110TIP3    H254822   4.066   1.035   5.427 -0.4624 -0.8308  1.1711
11111TIP3   OH254823   5.511   4.001   2.188  0.0392 -0.2075  0.2552
11111TIP3    H154824   5.596   4.011   2.231 -0.1322 -0.7859  0.7504
11111TIP3    H254825   5.531   3.960   2.104  0.2153 -0.7889  0.5727
11112TIP3   OH254826   1.615   1.565   0.068  0.8681 -0.2139  0.2127
11112TIP3    H154827   1.585   1.584   0.157 -0.3080 -0.6222 -0.0804
11112TIP3    H254828   1.595   1.645   0.019  0.7680 -0.2831  0.1392
11113TIP3   OH254829   4.775   6.054   2.713  0.4004 -0.3132 -0.6312
11113TIP3    H154830   4.867   6.073   2.694  0.2123  0.4117 -0.8307
11113TIP3    H254831   4.741   6.135   2.751 -0.0439 -0.7258 -0.1221
11114TIP3   OH254832   6.470   4.588   4.487 -0.2133  0.4826 -0.2646
11114TIP3    H154833   6.448   4.680   4.470 -0.2606  0.4802 -0.2125
11114TIP3    H254834   6.549   4.591   4.540 -0.6494  0.5036  0.3895
11115TIP3   OH254835   2.830   0.512   5.050 -0.0491  0.4368 -0.1757
11115TIP3    H154836   2.840   0.424   5.013 -0.9228  0.1041  0.3677
11115TIP3    H254837   2.916   0.552   5.038 -0.4988  0.6942 -3.4075
11116TIP3   OH254838   3.166   1.230   3.860  0.7873 -0.1018 -0.6188
11116TIP3    H154839   3.234   1.169   3.830 -1.0638 -1.6777 -1.8797
11116TIP3    H254840   3.098   1.224   3.793 -1.2371  0.3154  1.3076
11117TIP3   OH254841   6.377   2.586   1.840 -0.2433 -0.2949 -0.2948
11117TIP3    H154842   6.396   2.556   1.929 -1.1754 -1.4503 -0.4516
11117TIP3    H254843   6.286   2.617   1.845 -0.4004 -0.6358 -0.8884
11118TIP3   OH254844   3.389   2.015  14.148  0.7281  0.2220  0.7561
11118TIP3    H154845   3.458   1.999  14.084  0.9593 -0.0062  1.0636
11118TIP3    H254846   3.409   2.102  14.183 -0.6570  1.3633 -1.0807
11119TIP3   OH254847   4.641   2.604  11.133 -0.7919  0.9823 -0.1616
11119TIP3    H154848   4.553   2.640  11.142 -0.5912  2.1370 -2.1400
11119TIP3    H254849   4.628   2.521  11.087 -1.0255 -0.3321  2.1068
11120TIP3   OH254850   5.250   1.735   1.230 -0.1643  0.1042 -0.6348
11120TIP3    H154851   5.215   1.766   1.314  0.8618 -1.5708  0.4609
11120TIP3    H254852   5.337   1.700   1.252  0.2239 -0.1422 -2.4503
11121TIP3   OH254853   0.732   0.950   4.694 -0.6015  0.9067  0.2636
11121TIP3    H154854   0.775   0.964   4.610 -1.1220 -0.8242 -0.3503
11121TIP3    H254855   0.755   0.860   4.718 -0.0414  1.5102  2.2498
11122TIP3   OH254856   6.284   5.052   6.263  0.3690 -0.1245 -0.0273
11122TIP3    H154857   6.314   5.110   6.333  1.6684 -0.4832 -0.2434
11122TIP3    H254858   6.305   4.964   6.294  0.7522 -0.3005 -0.7460
11123TIP3   OH254859   4.272   5.908   3.020 -0.1399 -0.2682 -0.7743
11123TIP3    H154860   4.320   5.948   2.947 -1.4311 -0.8221 -1.9549
11123TIP3    H254861   4.234   5.983   3.066  2.6369  0.3034  0.8682
11124TIP3   OH254862   5.864   6.194   6.993  0.3872 -0.3778  0.0170
11124TIP3    H154863   5.843   6.102   7.005 -1.9891  0.1204  0.2054
11124TIP3    H254864   5.890   6.201   6.901 -0.9833 -1.0013 -0.4466
11125TIP3   OH254865   0.466   4.122   0.506  0.0893 -0.2779  0.5184
11125TIP3    H154866   0.559   4.103   0.498  0.1731  0.2475  0.1751
11125TIP3    H254867   0.443   4.163   0.422 -0.4688 -0.4894  0.5663
11126TIP3   OH254868   3.293   5.275  16.188  0.7787  0.0255 -0.7861
11126TIP3    H154869   3.362   5.334  16.156 -1.1684  0.9185 -3.7298
11126TIP3    H254870   3.291   5.203  16.125  0.8685 -1.5144  0.8869
11127TIP3   OH254871   5.047   6.700  15.228 -0.3300 -0.6063 -0.4627
11127TIP3    H154872   4.973   6.645  15.203 -0.4929 -0.1109 -1.0966
11127TIP3    H254873   5.058   6.760  15.155  1.8772 -1.8426 -1.2516
11128TIP3   OH254874   5.231   4.719  11.865  0.5605  0.3079 -0.4153
11128TIP3    H154875   5.139   4.712  11.892  0.4826 -0.3594 -0.8349
11128TIP3    H254876   5.280   4.698  11.944  0.3711  1.4766  0.0350
11129TIP3   OH254877   0.644   1.998  13.357 -0.2948 -0.6861 -0.0970
11129TIP3    H154878   0.660   2.089  13.383  0.2142 -0.5461 -0.8429
11129TIP3    H254879   0.586   1.963  13.424 -0.7560  0.2893  0.0312
11130TIP3   OH254880   4.138   0.435  11.246  0.0246 -0.1519 -0.6322
11130TIP3    H154881   4.149   0.348  11.283  0.4123  0.7646  1.5690
11130TIP3    H254882   4.218   0.449  11.195  0.6501 -0.5423  0.2128
11131TIP3   OH254883   3.559   6.723   4.191  0.3317 -0.0700  0.3207
11131TIP3    H154884   3.629   6.658   4.181 -0.8552 -1.3218 -0.1042
11131TIP3    H254885   3.509   6.717   4.110  0.8205  2.1961 -0.2273
11132TIP3   OH254886   2.503   0.582   0.117  0.3044  0.1574  0.2242
11132TIP3    H154887   2.446   0.621   0.050  0.4528 -0.9633 -0.5761
11132TIP3    H254888   2.466   0.496   0.134  1.0409 -0.0896  0.6186
11133TIP3   OH254889   3.580   4.810  14.240 -0.3607  0.0765 -0.1777
11133TIP3    H154890   3.507   4.750  14.255 -0.5532  0.4113  0.2533
11133TIP3    H254891   3.540   4.897  14.243  0.3543  0.4035  2.1931
11134TIP3   OH254892   0.442   0.235  12.377  0.5199  0.0460 -0.0964
11134TIP3    H154893   0.390   0.309  12.408 -0.8031 -0.5746 -0.7855
11134TIP3    H254894   0.431   0.235  12.282  0.9147 -0.7207 -0.1541
11135TIP3   OH254895   6.639   1.662  14.598 -0.0015  0.8686  0.1183
11135TIP3    H154896   6.638   1.568  14.618 -1.4333  0.8449  0.0634
11135TIP3    H254897   6.685   1.668  14.514  0.4487  0.2664  0.3117
11136TIP3   OH254898   2.011   2.643   3.812 -0.0187 -0.1279  0.2096
11136TIP3    H154899   1.959   2.722   3.822  1.1175  0.7419 -0.5242
11136TIP3    H254900   1.999   2.596   3.895  0.2032  1.3704  1.1258
11137TIP3   OH254901   6.035   5.797  14.409  0.1834 -0.4065 -0.1928
11137TIP3    H154902   6.027   5.741  14.331 -1.0529  1.4833 -1.5064
11137TIP3    H254903   6.129   5.809  14.420  0.4689 -2.3150 -0.1441
11138TIP3   OH254904   1.178   2.269   4.498  0.2858 -0.3424  0.7925
11138TIP3    H154905   1.129   2.339   4.455 -1.8905 -2.3795 -0.3450
11138TIP3    H254906   1.124   2.245   4.574  1.0371 -0.7192  1.2191
11139TIP3   OH254907   2.195   1.257  13.104  0.0810  0.0545 -0.4629
11139TIP3    H154908   2.215   1.338  13.152  0.5439 -0.9767  1.1529
11139TIP3    H254909   2.112   1.227  13.141 -1.3729  0.9805 -2.7310
11140TIP3   OH254910   2.103   0.282  15.759 -0.3848  0.3668 -0.3539
11140TIP3    H154911   2.167   0.347  15.730  0.0265 -0.4591 -1.3688
11140TIP3    H254912   2.031   0.334  15.796 -0.8518  1.5155 -2.6943
11141TIP3   OH254913   5.172   5.221  14.035  0.6356  0.0211 -0.1443
11141TIP3    H154914   5.133   5.308  14.028  0.5612  0.0379  0.4589
11141TIP3    H254915   5.257   5.236  14.076 -0.2410 -0.4081  1.9103
11142TIP3   OH254916   0.225   0.637  14.464 -0.0293  0.0233  0.7009
11142TIP3    H154917   0.153   0.670  14.517 -2.8769  1.3941 -3.4472
11142TIP3    H254918   0.253   0.712  14.411  1.3639 -1.5322 -0.9276
11143TIP3   OH254919   2.471   0.362  14.307 -0.2355  0.7170 -0.0289
11143TIP3    H154920   2.517   0.445  14.295 -0.3322  0.5661 -1.6262
11143TIP3    H254921   2.412   0.378  14.381 -0.6498  2.2621 -0.6554
11144TIP3   OH254922   5.285   3.116  16.253 -0.6697  0.0022 -0.4887
11144TIP3    H154923   5.265   3.209  16.259 -0.3264  0.0161  0.8182
11144TIP3    H254924   5.369   3.112  16.206 -1.0986  0.2750 -1.2996
11145TIP3   OH254925   3.911   5.949  13.451 -0.5004 -0.0823  0.5440
11145TIP3    H154926   3.954   5.884  13.507 -0.4749 -0.1844  0.4068
11145TIP3    H254927   3.976   5.968  13.383 -1.5642 -2.1609 -1.1857
11146TIP3   OH254928   1.747   0.859   2.553 -0.5431  0.5453 -0.1377
11146TIP3    H154929   1.733   0.777   2.506  1.1062  0.3528 -0.3820
11146TIP3    H254930   1.731   0.838   2.645 -0.7393  0.1173 -0.2691
11147TIP3   OH254931   2.160   2.711  14.462  0.1909 -0.2441  0.0967
11147TIP3    H154932   2.120   2.796  14.445  0.4296  0.0781  1.0754
11147TIP3    H254933   2.166   2.706  14.558  1.0664 -0.9458  0.0217
11148TIP3   OH254934   3.211   5.177   0.983 -0.6603  0.0908  0.2164
11148TIP3    H154935   3.177   5.111   0.922 -1.0208 -0.4044  0.9432
11148TIP3    H254936   3.138   5.194   1.042 -0.8184  1.6822 -0.3851
11149TIP3   OH254937   1.054   3.247   0.402 -0.1957 -0.0309 -0.4696
11149TIP3    H154938   1.123   3.182   0.411 -0.1568 -0.0524 -0.9056
11149TIP3    H254939   1.095   3.320   0.356 -0.2714  0.2527 -0.0912
11150TIP3   OH254940   4.132   1.182  15.768 -0.2464 -0.0594 -0.1637
11150TIP3    H154941   4.175   1.207  15.850 -1.3771 -0.2333  0.4925
11150TIP3    H254942   4.203   1.149  15.713  0.3863 -0.8843  1.1033
11151TIP3   OH254943   0.407   5.178  12.967  0.5230  0.0109 -0.1481
11151TIP3    H154944   0.355   5.138  12.898 -0.9074  1.7192 -0.1295
11151TIP3    H254945   0.392   5.272  12.958  1.1828  0.3643  1.7825
11152TIP3   OH254946   2.857   0.065   5.522 -0.0763  0.5348 -0.1376
11152TIP3    H154947   2.857  -0.028   5.540  0.4360  0.8019  1.3318
11152TIP3    H254948   2.785   0.077   5.459 -1.9004 -0.4928  1.6255
11153TIP3   OH254949   4.463   0.103  14.909 -0.1227 -0.1304 -0.4794
11153TIP3    H154950   4.416   0.124  14.989 -1.0481 -1.7229 -0.5726
11153TIP3    H254951   4.543   0.157  14.913 -1.7136  2.3660 -0.1504
11154TIP3   OH254952   4.179   5.862  14.894  0.3569  0.3126 -0.4425
11154TIP3    H154953   4.159   5.860  14.800 -1.3915  0.2433 -0.0999
11154TIP3    H254954   4.230   5.942  14.906  2.6440 -0.8319 -1.7768
11155TIP3   OH254955   2.539   6.301   0.412 -0.1521  0.1541 -0.3859
11155TIP3    H154956   2.495   6.383   0.433 -0.1362 -0.0759  0.6061
11155TIP3    H254957   2.609   6.326   0.352 -0.5346  0.7726 -0.5811
11156TIP3   OH254958   5.820   4.297  16.863  0.5124  0.0144  0.8141
11156TIP3    H154959   5.797   4.319  16.773 -0.4184 -1.7458  0.5864
11156TIP3    H254960   5.746   4.329  16.915  0.8037  0.5528  0.9060
11157TIP3   OH254961   5.753   5.896  14.462  0.0748 -0.1548 -0.1129
11157TIP3    H154962   5.829   5.841  14.442  0.7478 -0.3017  2.4149
11157TIP3    H254963   5.696   5.839  14.514 -1.0212  0.4354 -0.6408
11158TIP3   OH254964   6.125   2.384   0.777  0.5424 -0.3438  0.6493
11158TIP3    H154965   6.041   2.427   0.792 -0.1942 -2.1868  2.2172
11158TIP3    H254966   6.136   2.326   0.852  2.7239 -0.9381 -0.0588
11159TIP3   OH254967   3.663   0.624  13.361  0.5421  0.1154 -0.8394
11159TIP3    H154968   3.755   0.626  13.386  0.4026  0.1403 -0.3284
11159TIP3    H254969   3.663   0.646  13.268  1.0431  0.2053 -0.8177
11160TIP3   OH254970   5.325   4.398   0.343  0.3772 -0.7559  0.5761
11160TIP3    H154971   5.274   4.330   0.299  1.5810 -1.1398 -0.2473
11160TIP3    H254972   5.263   4.470   0.354 -0.3870 -1.2563 -0.2854
11161TIP3   OH254973   6.736   5.591  15.114  0.4339 -0.0657  0.3315
11161TIP3    H154974   6.779   5.676  15.121  0.9645 -0.0492 -2.1685
11161TIP3    H254975   6.675   5.601  15.040  0.4295 -1.8066  0.0581
11162TIP3   OH254976   1.990   4.541   1.945  0.5294 -0.9254  0.1673
11162TIP3    H154977   1.978   4.597   2.022 -1.2372  0.0270 -0.7174
11162TIP3    H254978   1.931   4.468   1.960 -1.3942  0.2703 -1.1034
11163TIP3   OH254979   2.548   4.670  16.259 -0.4138  0.3109 -0.2430
11163TIP3    H154980   2.549   4.717  16.342 -1.0323  1.0630 -0.6502
11163TIP3    H254981   2.640   4.647  16.244 -0.2795  0.2844  0.5735
11164TIP3   OH254982   6.520   2.361  15.907 -0.2514  0.3114 -0.0665
11164TIP3    H154983   6.470   2.375  15.827 -1.5766  0.4316  0.7486
11164TIP3    H254984   6.576   2.286  15.887  0.4571  1.1936 -1.5433
11165TIP3   OH254985   1.703   1.633   3.794 -0.3772  0.3297 -0.1571
11165TIP3    H154986   1.623   1.587   3.769 -0.4086  0.7285 -0.8313
11165TIP3    H254987   1.773   1.584   3.749 -0.1746 -0.3170  0.8242
11166TIP3   OH254988   2.568   4.552  16.578 -0.4872  0.4015  0.1003
11166TIP3    H154989   2.627   4.477  16.572 -0.8631  0.0946  0.1755
11166TIP3    H254990   2.486   4.521  16.537 -1.2303  0.1677  1.6990
11167TIP3   OH254991   0.749   5.992  14.207  0.1851  0.3662 -0.4746
11167TIP3    H154992   0.698   6.067  14.177  0.2251  0.0226 -1.4357
11167TIP3    H254993   0.826   5.991  14.149 -0.0163 -0.6510 -0.7440
11168TIP3   OH254994   4.298   1.488   2.201 -0.3540 -0.1736  0.0860
11168TIP3    H154995   4.208   1.464   2.223 -0.3023  0.0763  0.5846
11168TIP3    H254996   4.289   1.548   2.127 -0.4373 -2.4647 -1.8874
11169TIP3   OH254997   2.453   5.307  16.508  0.2471  0.1137 -0.5469
11169TIP3    H154998   2.375   5.284  16.559 -0.6752  1.9835 -1.0061
11169TIP3    H254999   2.418   5.341  16.425  1.6222 -0.5163 -1.4144
11170TIP3   OH255000   4.676   0.157  17.556 -0.2209  0.0374  0.2136
11170TIP3    H155001   4.682   0.062  17.569 -1.4106 -0.0141  0.5065
11170TIP3    H255002   4.618   0.168  17.481  1.4749  0.5149 -1.0967
11171TIP3   OH255003   2.409   2.839   1.585  0.3603 -0.3779 -0.3034
11171TIP3    H155004   2.464   2.770   1.548  1.4202  0.7292 -0.9082
11171TIP3    H255005   2.466   2.917   1.585 -0.9395  0.6091 -0.1120
11172TIP3   OH255006   3.822   3.162   2.042  0.2417 -0.2428 -0.0591
11172TIP3    H155007   3.869   3.079   2.032 -0.3506 -0.7504  1.1952
11172TIP3    H255008   3.888   3.229   2.028  0.1584 -0.7756 -4.4034
11173TIP3   OH255009   4.832   0.211   0.108 -0.2701  0.1153  0.1046
11173TIP3    H155010   4.904   0.253   0.060 -0.3300  0.1832  0.0745
11173TIP3    H255011   4.762   0.203   0.043 -0.0507 -0.5766 -0.0553
11174TIP3   OH255012   2.328   6.724   3.241  0.9486 -0.3934  0.0470
11174TIP3    H155013   2.319   6.766   3.326 -1.1547 -2.1725  0.7834
11174TIP3    H255014   2.416   6.746   3.213  0.6001  3.0058  1.1307
11175TIP3   OH255015   5.313   2.465  13.103  0.1059 -0.5332  0.1328
11175TIP3    H155016   5.401   2.445  13.135 -0.8558 -1.6732  2.2423
11175TIP3    H255017   5.292   2.393  13.043  0.6604 -0.1369 -0.5587
11176TIP3   OH255018   4.382   2.392   3.837  0.3919 -0.1060 -0.3252
11176TIP3    H155019   4.418   2.479   3.818 -0.8962  0.5833  0.2334
11176TIP3    H255020   4.408   2.338   3.763 -0.0432  1.1476 -1.4422
11177TIP3   OH255021   2.267   3.812   4.126 -0.7182 -0.1746 -0.2136
11177TIP3    H155022   2.289   3.753   4.199 -1.8077  1.6411  1.7089
11177TIP3    H255023   2.220   3.757   4.064 -0.7357 -1.5834  0.9914
11178TIP3   OH255024   6.361   5.401   3.614  0.4987 -0.2949 -0.0083
11178TIP3    H155025   6.455   5.384   3.605  0.4340 -0.5330 -0.2620
11178TIP3    H255026   6.320   5.317   3.594  0.2044 -0.0281 -0.5541
11179TIP3   OH255027   0.311   2.919   2.360 -0.0481  0.2568  0.5422
11179TIP3    H155028   0.256   2.980   2.409 -0.9893  0.1647 -0.3481
11179TIP3    H255029   0.251   2.849   2.334 -0.0675  1.1927 -2.2736
11180TIP3   OH255030   3.775   4.400   3.147 -0.2525  0.7133 -0.1875
11180TIP3    H155031   3.865   4.373   3.130 -1.0442 -1.4212 -1.2813
11180TIP3    H255032   3.757   4.371   3.237  0.2011  1.4088  0.1409
11181TIP3   OH255033   2.707   5.691  13.689  0.5084  0.3953  0.0885
11181TIP3    H155034   2.631   5.749  13.685  1.0761  1.2627  1.3512
11181TIP3    H255035   2.778   5.741  13.648  0.3846 -0.4824 -1.2576
11182TIP3   OH255036   5.753   0.836  14.879  0.3666  0.2335  0.2955
11182TIP3    H155037   5.722   0.746  14.888  0.5620  0.2388  1.0943
11182TIP3    H255038   5.830   0.841  14.934 -0.4893  1.2911  1.4598
11183TIP3   OH255039   0.858   5.774  17.297 -0.5006  0.3153  0.2294
11183TIP3    H155040   0.945   5.782  17.337 -0.4851  1.9114 -0.0481
11183TIP3    H255041   0.833   5.684  17.313  1.0509 -0.0827  0.6531
11184TIP3   OH255042   4.136   4.707   1.215 -0.3087  0.1827 -0.8610
11184TIP3    H155043   4.094   4.766   1.278 -0.2801 -0.7998  0.1142
11184TIP3    H255044   4.225   4.698   1.248 -0.2060 -0.1083 -1.2238
11185TIP3   OH255045   4.328   5.675  15.213 -0.1552 -0.0761  0.0962
11185TIP3    H155046   4.234   5.671  15.195 -0.5382  2.4652  1.0965
11185TIP3    H255047   4.339   5.623  15.292 -0.7974 -0.0725  0.1952
11186TIP3   OH255048   4.030   5.800  14.617 -0.0852  0.1234 -0.3181
11186TIP3    H155049   3.958   5.837  14.567 -0.3343 -0.0402 -0.0820
11186TIP3    H255050   4.089   5.873  14.633  0.6001 -0.0518 -1.8813
11187TIP3   OH255051   0.592   0.444  16.866  0.1960 -0.5228 -0.7125
11187TIP3    H155052   0.636   0.371  16.910  0.1591 -0.5169 -0.6645
11187TIP3    H255053   0.524   0.403  16.812  0.0884 -0.5158 -0.5850
11188TIP3   OH255054   0.486   5.455   5.646  0.5057 -0.4809 -0.0337
11188TIP3    H155055   0.428   5.405   5.588  0.9065 -0.0017 -0.8736
11188TIP3    H255056   0.526   5.520   5.588  1.0453 -0.0960  0.7620
11189TIP3   OH255057   4.564   4.087  13.864 -0.7253 -0.3197  0.2759
11189TIP3    H155058   4.573   4.008  13.810 -0.1014 -0.7587  0.9994
11189TIP3    H255059   4.570   4.055  13.954  1.7194  0.7525  0.5733
11190TIP3   OH255060   1.362   3.171  17.069 -0.1894 -0.5189 -0.3014
11190TIP3    H155061   1.364   3.128  16.984 -1.2256 -1.4993  0.1295
11190TIP3    H255062   1.437   3.230  17.069  0.0193 -0.7539 -1.7518
11191TIP3   OH255063   2.785   3.365   2.000 -0.3363 -0.3281  0.3068
11191TIP3    H155064   2.841   3.375   2.077  1.8824  0.5802 -1.3160
11191TIP3    H255065   2.785   3.270   1.983  3.8028 -0.1855 -1.6461
11192TIP3   OH255066   5.108   3.777  13.378  0.6880 -0.0712 -0.0705
11192TIP3    H155067   5.158   3.713  13.430 -0.3583 -1.0430 -0.2372
11192TIP3    H255068   5.046   3.725  13.328  0.3260  1.0269 -0.8051
11193TIP3   OH255069   2.619   4.537   6.801 -0.3920  0.2364  0.0706
11193TIP3    H155070   2.599   4.631   6.800 -0.0027  0.3187 -0.4516
11193TIP3    H255071   2.534   4.495   6.818 -0.3274  0.7234  1.7793
11194TIP3   OH255072   2.000   0.122  17.071 -0.0500 -0.2989 -0.2241
11194TIP3    H155073   1.926   0.138  17.130 -0.3605 -0.0415 -0.6805
11194TIP3    H255074   1.998   0.195  17.010  2.4650  1.5042  1.6247
11195TIP3   OH255075   5.254   2.484   0.483  0.3340  0.1739 -1.2701
11195TIP3    H155076   5.337   2.512   0.521 -0.1575 -0.5091  0.4212
11195TIP3    H255077   5.219   2.563   0.440  1.6350  0.5726 -1.6423
11196TIP3   OH255078   2.442   4.040  14.875 -0.5441  0.1877  0.1277
11196TIP3    H155079   2.512   4.084  14.826 -1.4274  1.0351 -0.4015
11196TIP3    H255080   2.470   3.949  14.879  1.6329  0.8267  1.7656
11197TIP3   OH255081   3.633   2.839   3.928 -0.2627 -0.3143  0.6502
11197TIP3    H155082   3.596   2.920   3.961 -0.3287 -1.4516  3.6764
11197TIP3    H255083   3.728   2.851   3.936 -0.1877 -0.0039 -0.4432
11198TIP3   OH255084   5.604   0.689   4.212  0.4173 -0.3047  0.2768
11198TIP3    H155085   5.649   0.771   4.229  0.4336 -0.3412  0.4153
11198TIP3    H255086   5.514   0.714   4.191  0.1984 -0.2988  1.1718
11199TIP3   OH255087   6.602   6.538   5.535  0.2611 -0.0566  0.3077
11199TIP3    H155088   6.598   6.610   5.599 -2.0566  0.4165 -0.2534
11199TIP3    H255089   6.643   6.578   5.458 -1.2414  0.8111 -0.0917
11200TIP3   OH255090   3.579   5.800   4.877  0.3268 -0.5405 -0.0427
11200TIP3    H155091   3.544   5.783   4.790  1.9654 -0.7791 -0.6885
11200TIP3    H255092   3.502   5.799   4.934 -0.9859  1.0222 -1.6433
11201TIP3   OH255093   4.515   3.900  13.365  0.0419 -0.0952  0.3164
11201TIP3    H155094   4.446   3.905  13.431  0.2756 -0.4376  0.5924
11201TIP3    H255095   4.535   3.991  13.344  0.4982  0.0371  1.2853
11202TIP3   OH255096   5.074   0.604   4.941  0.6777 -0.0976 -0.9177
11202TIP3    H155097   5.014   0.652   4.998  0.1941 -0.1166 -1.4024
11202TIP3    H255098   5.018   0.546   4.890  1.0416  0.3066 -1.7976
11203TIP3   OH255099   2.920   2.033   2.556  0.4015  0.0686 -0.0106
11203TIP3    H155100   2.946   2.079   2.476  1.3922 -0.6163 -0.1075
11203TIP3    H255101   2.938   2.094   2.627  0.3858  0.3365 -0.2364
11204TIP3   OH255102   5.477   0.616   5.944 -0.4869  0.4254 -0.0544
11204TIP3    H155103   5.465   0.652   6.032 -1.2235  2.4252 -0.9087
11204TIP3    H255104   5.396   0.639   5.898 -0.2796 -0.9485 -1.1487
11205TIP3   OH255105   1.795   6.160  15.719 -0.3045  0.5147 -0.2775
11205TIP3    H155106   1.799   6.165  15.815  1.4491 -0.3188 -0.2676
11205TIP3    H255107   1.821   6.071  15.699  0.4053  1.0023 -1.5781
11206TIP3   OH255108   5.834   0.810   5.757  0.6817 -0.8142 -0.2336
11206TIP3    H155109   5.758   0.767   5.718  0.7101 -0.3392 -0.8386
11206TIP3    H255110   5.848   0.887   5.702 -0.1013  0.6406  1.4933
11207TIP3   OH255111   6.230   2.990  14.885 -0.4016 -0.0170  0.3741
11207TIP3    H155112   6.155   2.989  14.825 -0.5770 -0.9514  0.5903
11207TIP3    H255113   6.202   2.935  14.958  0.9198 -1.3354 -0.0704
11208TIP3   OH255114   1.546   1.750  17.545 -0.4187 -0.4233  0.2085
11208TIP3    H155115   1.499   1.697  17.481 -1.1331  1.1082 -0.5661
11208TIP3    H255116   1.615   1.794  17.494 -0.0916 -0.2806  0.7636
11209TIP3   OH255117   4.561   5.329   6.336 -0.1828  0.3542  0.2456
11209TIP3    H155118   4.523   5.267   6.274  1.1232  1.5979 -1.9401
11209TIP3    H255119   4.633   5.281   6.378 -1.9657 -0.9548  1.9898
11210TIP3   OH255120   0.046   6.585  12.559 -0.0050 -0.1242  0.1912
11210TIP3    H155121   0.037   6.621  12.647 -1.4869  1.9051 -0.7273
11210TIP3    H255122   0.135   6.610  12.532  0.8947 -1.7253  1.4450
11211TIP3   OH255123   1.812   4.304   5.108  0.0511 -0.2906 -0.0946
11211TIP3    H155124   1.867   4.239   5.152 -1.0879  0.2027  2.2431
11211TIP3    H255125   1.726   4.293   5.147 -1.2457 -0.1309 -2.6752
11212TIP3   OH255126   2.510   6.302  13.462 -0.5101 -0.2889 -0.2392
11212TIP3    H155127   2.496   6.272  13.552 -0.0382  0.3310  0.0454
11212TIP3    H255128   2.438   6.362  13.445 -2.2642 -2.5135 -1.2851
11213TIP3   OH255129   5.468   1.911  13.692  0.2642  0.0807  0.3304
11213TIP3    H155130   5.454   1.817  13.701  2.8774 -0.6800 -1.8165
11213TIP3    H255131   5.381   1.947  13.678 -1.0735 -1.6360  3.3164
11214TIP3   OH255132   5.870   5.914  15.081 -0.2293  0.6056 -0.2293
11214TIP3    H155133   5.922   5.875  15.011 -0.4418  0.5909 -0.3780
11214TIP3    H255134   5.828   5.840  15.125  2.2775  0.2946  1.8597
11215TIP3   OH255135   4.955   3.960  17.099  0.1690  0.3020 -0.2178
11215TIP3    H155136   4.915   3.964  17.186 -0.8207  1.2103 -0.6882
11215TIP3    H255137   4.968   4.052  17.075 -0.2766  0.0941 -1.3338
11216TIP3   OH255138   3.402   5.589   3.460  0.1617  0.2457  0.2197
11216TIP3    H155139   3.365   5.677   3.461 -0.9548 -0.1893  2.3974
11216TIP3    H255140   3.358   5.545   3.388 -0.4683  0.9956  0.1366
11217TIP3   OH255141   0.984   3.013  13.561  0.8021  0.1212 -0.1816
11217TIP3    H155142   1.022   3.063  13.490  1.2123 -3.5493 -2.8378
11217TIP3    H255143   1.016   2.924  13.548 -3.9641 -2.0646  0.8940
11218TIP3   OH255144   5.209   0.334   3.467  0.3182 -0.4113  0.4577
11218TIP3    H155145   5.240   0.424   3.468  2.2350 -0.9909 -0.6345
11218TIP3    H255146   5.274   0.287   3.414 -1.3762 -2.1612 -0.2152
11219TIP3   OH255147   1.631   3.537   3.372 -0.4922 -0.3459  0.4656
11219TIP3    H155148   1.669   3.528   3.459 -2.5433 -0.3828  1.4218
11219TIP3    H255149   1.652   3.454   3.329  2.4576  0.5026  0.0279
11220TIP3   OH255150   2.150   4.900   5.759 -0.1043 -0.1819  0.4021
11220TIP3    H155151   2.204   4.938   5.829 -0.7949  1.4886  0.0832
11220TIP3    H255152   2.203   4.911   5.680  0.3882 -1.4528  0.5283
11221TIP3   OH255153   0.023   0.878   5.320  0.5682 -0.2357  0.3612
11221TIP3    H155154  -0.006   0.859   5.409  2.5523 -0.2486  1.0546
11221TIP3    H255155   0.016   0.795   5.274  0.5622 -0.4938  0.8199
11222TIP3   OH255156   3.608   2.875  11.949 -0.1308 -0.1218 -0.7790
11222TIP3    H155157   3.576   2.784  11.943  0.5154 -0.3814 -0.3042
11222TIP3    H255158   3.628   2.898  11.858 -1.5013 -0.0040 -1.0814
11223TIP3   OH255159   4.094   0.679  12.468  0.0851 -0.2462  0.6943
11223TIP3    H155160   4.094   0.697  12.374 -1.1544 -2.2067  0.2626
11223TIP3    H255161   4.055   0.758  12.507  0.6026  0.5847 -0.3968
11224TIP3   OH255162   1.609   4.019   0.334  0.0553  0.7526 -0.0881
11224TIP3    H155163   1.547   3.996   0.403  0.4713  2.1374  0.7889
11224TIP3    H255164   1.666   3.943   0.326 -0.3090  0.3894  0.7475
11225TIP3   OH255165   0.450   4.188  13.865 -0.1481 -0.5756 -0.1237
11225TIP3    H155166   0.389   4.153  13.931 -0.1707 -0.6699 -0.1941
11225TIP3    H255167   0.458   4.117  13.801 -1.1318 -0.0142 -0.8983
11226TIP3   OH255168   5.842   2.390   0.537 -0.0309 -0.4300  0.1126
11226TIP3    H155169   5.821   2.380   0.630  0.2814  1.8411  0.4981
11226TIP3    H255170   5.924   2.439   0.536 -0.3798  0.1867 -1.3448
11227TIP3   OH255171   5.097   6.613   6.789  0.0536 -0.2860  0.6043
11227TIP3    H155172   5.171   6.575   6.742 -0.7365 -0.9906 -0.1126
11227TIP3    H255173   5.080   6.553   6.862 -1.1068 -1.3067 -0.4483
11228TIP3   OH255174   6.012   1.202   5.358  0.1668 -0.7988  0.1875
11228TIP3    H155175   6.105   1.198   5.338 -0.3244 -1.2523 -2.4319
11228TIP3    H255176   5.985   1.289   5.327 -0.7476 -1.7192 -1.7447
11229TIP3   OH255177   3.011   1.552   3.974 -0.0312 -0.1692 -0.0079
11229TIP3    H155178   3.059   1.506   4.043  0.0605 -2.3129 -1.3987
11229TIP3    H255179   3.073   1.556   3.901 -0.5686  0.8872 -0.4206
11230TIP3   OH255180   1.696   2.152   5.151 -0.4009 -0.3211  0.0856
11230TIP3    H155181   1.632   2.212   5.189  2.1236  2.9542 -0.4256
11230TIP3    H255182   1.677   2.155   5.057 -0.7881 -1.0454  0.1334
11231TIP3   OH255183   5.062   5.909  14.382 -0.2574 -0.5736 -0.6358
11231TIP3    H155184   4.990   5.880  14.326 -0.8442 -1.0911  0.3506
11231TIP3    H255185   5.019   5.937  14.463  0.7893 -3.3692  1.0005
11232TIP3   OH255186   2.886   2.751  17.226  0.4155 -0.0086 -0.3086
11232TIP3    H155187   2.812   2.808  17.243 -0.2091 -0.2119 -2.0818
11232TIP3    H255188   2.868   2.671  17.275 -0.7912 -0.2262 -1.0677
11233TIP3   OH255189   1.381   6.611  14.094 -0.4235  0.1984  0.2011
11233TIP3    H155190   1.305   6.553  14.101  0.0286 -0.5761 -0.9194
11233TIP3    H255191   1.426   6.582  14.014  0.4281  1.3813  0.2216
11234TIP3   OH255192   4.867   5.938  14.592  0.2108  0.4405 -0.1521
11234TIP3    H155193   4.822   5.873  14.646  0.0627  1.7542  1.3880
11234TIP3    H255194   4.865   6.018  14.645  1.4600  1.3840 -1.4670
11235TIP3   OH255195   0.366   1.016  11.599  0.0472  0.2833  0.5115
11235TIP3    H155196   0.305   0.942  11.601  0.5721 -0.1930 -0.3548
11235TIP3    H255197   0.312   1.091  11.575 -0.2209 -0.1279 -0.2137
11236TIP3   OH255198   1.233   6.472   5.950 -0.4422 -0.4259 -0.4181
11236TIP3    H155199   1.152   6.449   5.994  0.5845 -1.0400  1.2384
11236TIP3    H255200   1.301   6.461   6.016  1.0247 -0.0681 -1.7868
11237TIP3   OH255201   1.411   1.754  12.906 -0.1138 -0.2671 -0.0731
11237TIP3    H155202   1.356   1.831  12.904  0.7143  0.4123  1.4022
11237TIP3    H255203   1.395   1.710  12.822  0.0684  1.9581 -1.3488
11238TIP3   OH255204   5.643   6.210   1.056 -0.0528  0.4173  0.0476
11238TIP3    H155205   5.616   6.210   0.964 -1.4206 -0.5129  0.4112
11238TIP3    H255206   5.560   6.211   1.104  0.6492  1.2987  1.2797
11239TIP3   OH255207   1.645   6.517   1.365  0.9959  0.2955 -0.0830
11239TIP3    H155208   1.689   6.485   1.444  0.5462 -0.4842 -0.1403
11239TIP3    H255209   1.577   6.576   1.399  0.3813 -0.5390  0.1561
11240TIP3   OH255210   3.437   6.555   2.122  0.5647 -0.0327 -0.7353
11240TIP3    H155211   3.374   6.626   2.116  1.0193  0.3976 -0.5112
11240TIP3    H255212   3.487   6.573   2.201  0.0565 -1.1313 -0.1432
11241TIP3   OH255213   6.583   2.942  14.955  0.1732  0.3161 -0.0251
11241TIP3    H155214   6.496   2.943  14.997 -0.3952  1.4892 -1.1345
11241TIP3    H255215   6.645   2.948  15.028 -0.5387 -2.7809  0.9536
11242TIP3   OH255216   4.274   5.535  14.923  0.3510  0.5320  0.3786
11242TIP3    H155217   4.228   5.510  15.003  0.4388 -1.2692 -0.0848
11242TIP3    H255218   4.339   5.599  14.952 -0.0907  0.4369  1.6372
11243TIP3   OH255219   3.704   2.655   6.279 -0.5022 -0.1572 -0.8002
11243TIP3    H155220   3.729   2.580   6.332  0.0681  0.4063 -0.2469
11243TIP3    H255221   3.753   2.729   6.317 -2.5586  0.8897 -0.0247
11244TIP3   OH255222   4.818   2.318  12.642  0.1410 -0.3242  0.5547
11244TIP3    H155223   4.907   2.282  12.639 -0.0690 -0.8204 -0.4480
11244TIP3    H255224   4.827   2.408  12.610 -0.0867 -1.3152 -2.7166
11245TIP3   OH255225   1.093   5.104   2.719  0.0907  0.3117  0.1132
11245TIP3    H155226   1.123   5.162   2.788  3.3779 -1.3978  0.3053
11245TIP3    H255227   1.058   5.027   2.766  0.0132  0.1902 -0.1376
11246TIP3   OH255228   0.614   1.394  12.643 -0.5893  0.0560  0.5983
11246TIP3    H155229   0.673   1.319  12.649 -0.4049  0.2385  1.1323
11246TIP3    H255230   0.650   1.447  12.572 -1.6699 -1.1655 -0.9349
11247TIP3   OH255231   5.612   6.403   6.369  0.4862 -0.1954 -0.1467
11247TIP3    H155232   5.564   6.329   6.407  0.6116 -0.1888  0.0259
11247TIP3    H255233   5.697   6.403   6.414  0.4195  0.1612 -0.0124
11248TIP3   OH255234   4.272   2.301   2.509  0.2264 -0.3667  0.0179
11248TIP3    H155235   4.233   2.382   2.543 -0.7014 -0.3248 -1.0846
11248TIP3    H255236   4.272   2.312   2.414 -0.2580 -1.8103 -0.1744
11249TIP3   OH255237   6.196   3.949  15.604 -0.2260 -0.2037 -0.1600
11249TIP3    H155238   6.137   3.919  15.536 -0.0648  0.0392 -0.4107
11249TIP3    H255239   6.250   4.016  15.561  0.1850 -0.3772  0.0814
11250TIP3   OH255240   4.841   1.924  10.956  0.8472  0.0179  0.5265
11250TIP3    H155241   4.776   1.854  10.950 -0.5288  1.2669  0.3193
11250TIP3    H255242   4.918   1.882  10.995 -0.6552 -1.1222  2.4619
11251TIP3   OH255243   4.603   4.892  17.606 -0.3885  0.1292 -0.4752
11251TIP3    H155244   4.681   4.899  17.551 -0.4722 -0.1634 -0.6334
11251TIP3    H255245   4.533   4.933  17.555 -0.2794  0.6502 -0.2134
11252TIP3   OH255246   0.181   6.130  15.421  0.1576  0.2130 -0.2395
11252TIP3    H155247   0.251   6.094  15.475  0.6973 -0.0552 -1.0860
11252TIP3    H255248   0.161   6.215  15.460 -1.1230 -0.9393  1.7994
11253TIP3   OH255249   2.396   6.062   5.268  0.5288  0.1947 -0.8922
11253TIP3    H155250   2.408   5.988   5.328  0.8667  1.1451  0.2382
11253TIP3    H255251   2.305   6.087   5.280  0.9559  1.2641  0.2917
11254TIP3   OH255252   1.597   1.100  16.762  0.3141 -0.0099  0.0482
11254TIP3    H155253   1.666   1.139  16.816  0.1937 -0.0384  0.2244
11254TIP3    H255254   1.523   1.161  16.770  0.4573  0.2403 -0.4818
11255TIP3   OH255255   6.115   5.549   2.648  0.4106  0.3003  0.1522
11255TIP3    H155256   6.160   5.490   2.588  0.0316 -1.1896  1.2666
11255TIP3    H255257   6.026   5.556   2.614  0.3485 -0.1055  0.2280
11256TIP3   OH255258   0.229   6.257  13.996 -0.3241  0.1139 -0.0291
11256TIP3    H155259   0.275   6.180  13.962  1.0939  1.1728 -0.5808
11256TIP3    H255260   0.137   6.241  13.973 -0.2253 -1.8346  0.7153
11257TIP3   OH255261   4.158   1.669   0.486  0.1333 -0.5032 -0.2911
11257TIP3    H155262   4.167   1.648   0.393  0.0383  1.3239 -0.7442
11257TIP3    H255263   4.238   1.636   0.526  2.4696  2.7029 -1.8407
11258TIP3   OH255264   6.410   0.165  13.773 -0.1342  0.6489  0.2105
11258TIP3    H155265   6.338   0.219  13.740  0.3106  1.2330  0.1849
11258TIP3    H255266   6.489   0.209  13.743  0.2721  0.8635  1.5407
11259TIP3   OH255267   4.886   2.776  16.444 -0.5115  0.0662  0.1314
11259TIP3    H155268   4.954   2.733  16.495 -0.8989 -0.4667  0.2201
11259TIP3    H255269   4.932   2.838  16.388  0.0122 -0.0892  0.3887
11260TIP3   OH255270   5.312   4.340  13.843  0.0897  0.0420 -0.3970
11260TIP3    H155271   5.376   4.269  13.852 -0.2229  0.0279  2.6940
11260TIP3    H255272   5.358   4.418  13.873 -0.8881  0.3024  0.4781
11261TIP3   OH255273   0.836   3.670   0.139  0.5915 -0.2738 -0.3689
11261TIP3    H155274   0.814   3.585   0.100  1.5477 -0.2275 -1.0410
11261TIP3    H255275   0.786   3.733   0.087 -0.6919 -0.4570  0.5923
11262TIP3   OH255276   1.944   6.520  17.047  0.1677  0.3379 -0.1231
11262TIP3    H155277   1.966   6.550  17.135  0.1472  0.3268 -0.1140
11262TIP3    H255278   2.028   6.501  17.006  0.1286 -1.0421  0.3760
11263TIP3   OH255279   1.506   5.218   1.298 -0.2105 -0.0517  0.6285
11263TIP3    H155280   1.536   5.260   1.218 -1.7652  0.2713  0.1883
11263TIP3    H255281   1.434   5.162   1.270 -1.2453  0.6122  1.8977
11264TIP3   OH255282   2.531   5.006  14.120 -0.3750 -0.0842 -0.1702
11264TIP3    H155283   2.524   4.910  14.128 -2.6885 -0.1120 -1.4402
11264TIP3    H255284   2.614   5.020  14.075  0.9337 -1.3245  1.7064
11265TIP3   OH255285   2.136   1.029  16.738 -0.0375  0.3037  0.0398
11265TIP3    H155286   2.097   1.112  16.764  0.4725  0.5480  0.0309
11265TIP3    H255287   2.191   1.051  16.662 -1.6452 -0.4197 -1.4138
11266TIP3   OH255288   2.518   3.418  16.907 -0.1651 -0.2808  0.1247
11266TIP3    H155289   2.513   3.341  16.963 -0.7868  1.4255  2.6015
11266TIP3    H255290   2.464   3.396  16.831  0.5482 -2.6261  0.2202
11267TIP3   OH255291   0.806   2.157  13.965 -0.3787  0.1361 -0.1176
11267TIP3    H155292   0.816   2.193  13.877 -0.6918 -1.4499 -0.8220
11267TIP3    H255293   0.728   2.101  13.960  0.6026 -1.3618  0.6877
11268TIP3   OH255294   2.157   3.718  13.028 -0.0801 -0.5140 -0.3786
11268TIP3    H155295   2.084   3.753  13.079  2.0179  2.3668  0.9394
11268TIP3    H255296   2.127   3.722  12.938 -2.2344 -1.3817  0.2245
11269TIP3   OH255297   4.310   4.106   2.382  0.5272 -0.0515  0.4709
11269TIP3    H155298   4.339   4.116   2.292  2.7147  3.3531  1.3869
11269TIP3    H255299   4.391   4.098   2.433 -0.5736 -0.1386  2.3114
11270TIP3   OH255300   4.954   5.914   6.678 -0.5980  0.0994 -0.0632
11270TIP3    H155301   4.860   5.930   6.668 -0.5512 -0.3959 -1.6110
11270TIP3    H255302   4.981   5.876   6.594  1.5946  3.1714 -0.9603
11271TIP3   OH255303   2.784   4.991  17.372 -0.5700  0.0847 -0.0502
11271TIP3    H155304   2.832   5.073  17.372 -0.3080 -0.0631  0.4488
11271TIP3    H255305   2.726   4.996  17.296 -0.6076  0.7589  0.0251
11272TIP3   OH255306   5.126   3.639   4.494 -0.1120 -0.6824 -0.1486
11272TIP3    H155307   5.183   3.708   4.528 -0.9949 -0.4387  0.8864
11272TIP3    H255308   5.153   3.629   4.403  3.1424 -2.1905  0.8483
11273TIP3   OH255309   2.578   0.914  17.514  0.1540 -0.4754 -0.2734
11273TIP3    H155310   2.606   1.004  17.501 -0.0284 -0.3015  0.4604
11273TIP3    H255311   2.509   0.900  17.450  0.1155 -0.0598 -0.3237
11274TIP3   OH255312   5.413   3.462   3.728 -0.5106  0.4839 -0.0810
11274TIP3    H155313   5.437   3.385   3.779  0.1363  0.5536 -0.2621
11274TIP3    H255314   5.331   3.439   3.685 -0.0226 -0.3227 -0.5955
11275TIP3   OH255315   5.869   3.192  17.296  0.3759  0.1332  0.1732
11275TIP3    H155316   5.777   3.205  17.274 -0.1582 -1.2809  1.4120
11275TIP3    H255317   5.902   3.132  17.229 -0.5163 -1.9661  1.5065
11276TIP3   OH255318   0.802   3.979   6.159 -0.3856  0.0068  0.5390
11276TIP3    H155319   0.761   3.954   6.241 -1.6412  0.3507  0.0482
11276TIP3    H255320   0.755   4.059   6.132 -1.2795 -1.0976 -1.3983
11277TIP3   OH255321   5.580   1.792  15.452  0.0955  0.3167  0.5723
11277TIP3    H155322   5.551   1.849  15.523 -1.0733 -0.2561  0.5914
11277TIP3    H255323   5.591   1.706  15.493  0.2607  0.1773  0.2380
11278TIP3   OH255324   4.373   2.006  14.422 -0.5186 -0.5413 -0.2508
11278TIP3    H155325   4.440   2.015  14.490 -0.3158  0.3931 -0.5670
11278TIP3    H255326   4.326   1.926  14.446  0.4085 -0.9573  0.2311
11279TIP3   OH255327   0.640   5.697   4.997  0.6213 -0.4170  0.0735
11279TIP3    H155328   0.667   5.633   4.932  0.2071  0.3800 -0.9176
11279TIP3    H255329   0.553   5.725   4.968  1.0204  0.9836  0.1495
11280TIP3   OH255330   1.533   3.754   3.986 -0.1633  0.2986  0.3103
11280TIP3    H155331   1.446   3.758   3.946 -0.7147 -0.0884  1.4402
11280TIP3    H255332   1.530   3.818   4.057 -0.4835 -1.6149  2.1259
11281TIP3   OH255333   4.393   6.043  14.452 -0.2427 -0.3742 -0.3719
11281TIP3    H155334   4.298   6.028  14.459  0.1603 -2.6425  1.2980
11281TIP3    H255335   4.413   6.100  14.527 -0.2090 -0.3943 -0.3657
11282TIP3   OH255336   1.169   2.966  16.381  0.7336 -0.2348  0.2036
11282TIP3    H155337   1.198   3.038  16.325  0.1842  0.1392  0.3868
11282TIP3    H255338   1.073   2.968  16.375  0.4947  1.1809  2.7825
11283TIP3   OH255339   2.752   1.057  12.810 -0.2397 -0.2805  0.2511
11283TIP3    H155340   2.729   1.142  12.774 -0.3715  0.6696  2.3847
11283TIP3    H255341   2.671   1.006  12.807 -0.2939 -0.1519 -0.5478
11284TIP3   OH255342   6.634   1.458   4.802  1.3540  0.7720  0.3682
11284TIP3    H155343   6.615   1.381   4.748  0.4650  1.6967 -0.7036
11284TIP3    H255344   6.681   1.517   4.743 -0.5609  2.2444  0.2217
11285TIP3   OH255345   2.218   0.105   3.522 -0.0333  0.5094 -0.6388
11285TIP3    H155346   2.138   0.069   3.561 -1.0169  1.3642 -1.7797
11285TIP3    H255347   2.288   0.049   3.555 -1.3069 -1.4413 -1.0741
11286TIP3   OH255348   3.621   2.020   1.559 -0.0548  0.2525 -0.0810
11286TIP3    H155349   3.683   1.948   1.574 -0.7523  0.1318  2.7023
11286TIP3    H255350   3.548   1.979   1.512  0.1836 -0.5450  0.2209
11287TIP3   OH255351   1.799   5.856   0.355 -0.1830 -0.0798  0.4558
11287TIP3    H155352   1.707   5.836   0.340 -0.1613 -2.9850  3.2200
11287TIP3    H255353   1.846   5.775   0.336  1.5693  0.7416  0.9865
11288TIP3   OH255354   3.148   4.991   0.764 -0.2296 -0.2041  0.1879
11288TIP3    H155355   3.230   4.946   0.746 -0.5192 -0.0042 -1.8943
11288TIP3    H255356   3.085   4.949   0.705 -1.2822  0.6392  0.6887
11289TIP3   OH255357   5.234   1.091  11.799  0.1743 -0.0029 -0.5108
11289TIP3    H155358   5.230   1.122  11.708  0.0701  0.1238 -0.4621
11289TIP3    H255359   5.328   1.082  11.817  0.2041  0.2606 -0.5329
11290TIP3   OH255360   5.644   1.062   5.717 -0.2495 -0.3605 -0.1052
11290TIP3    H155361   5.573   0.998   5.720 -0.6293 -0.1318 -2.4760
11290TIP3    H255362   5.698   1.035   5.643  1.3908  0.2483  0.8365
11291TIP3   OH255363   6.594   4.006  14.136 -0.0098 -0.2675  0.2712
11291TIP3    H155364   6.631   3.918  14.132  0.2436 -0.2381  1.5909
11291TIP3    H255365   6.547   4.009  14.219 -2.5130 -0.0939 -1.0475
11292TIP3   OH255366   1.602   4.682  12.798 -0.1908  0.5359 -0.1656
11292TIP3    H155367   1.665   4.618  12.764  0.1146  1.5045 -1.4873
11292TIP3    H255368   1.584   4.740  12.724 -1.9054  0.8702  0.4620
11293TIP3   OH255369   4.604   6.548  17.295 -0.1904 -0.1837  0.1048
11293TIP3    H155370   4.518   6.586  17.316  0.6310  1.6666  0.3025
11293TIP3    H255371   4.624   6.492  17.370 -0.1949  1.2411  1.2149
11294TIP3   OH255372   2.003   5.785   1.396 -0.0161  0.4492  0.0921
11294TIP3    H155373   2.096   5.764   1.390 -0.1617 -0.6150  1.1269
11294TIP3    H255374   1.997   5.877   1.370  1.5255  0.9659  1.4335
11295TIP3   OH255375   2.551   6.339  11.680  0.1399  0.5290  0.5250
11295TIP3    H155376   2.456   6.338  11.688  0.0819  1.4793  0.1199
11295TIP3    H255377   2.569   6.327  11.587  0.4510 -0.4545  0.7036
11296TIP3   OH255378   0.100   0.428  17.317  0.3494  0.0780 -0.0945
11296TIP3    H155379   0.111   0.435  17.412  1.4708 -1.5627 -0.0571
11296TIP3    H255380   0.006   0.434  17.303  0.2561  1.6958  0.9711
11297TIP3   OH255381   6.265   4.663   6.101  0.1128  0.3195 -0.2132
11297TIP3    H155382   6.249   4.620   6.185 -0.9953  0.1710 -0.4819
11297TIP3    H255383   6.211   4.742   6.103 -0.6886 -0.1745 -1.1507
11298TIP3   OH255384   3.573   2.091  12.569 -0.1972 -0.0126  0.0106
11298TIP3    H155385   3.624   2.011  12.567 -1.4393 -0.8180 -1.5846
11298TIP3    H255386   3.482   2.062  12.574 -0.6436  1.3174  0.2545
11299TIP3   OH255387   4.441   1.787   3.291  0.2356  0.4876  0.4611
11299TIP3    H155388   4.434   1.839   3.371  3.6397  0.1695  1.1011
11299TIP3    H255389   4.490   1.843   3.231  0.1100 -0.3364 -0.4308
11300TIP3   OH255390   1.399   1.428   0.464  0.1428  0.2148 -0.7042
11300TIP3    H155391   1.395   1.368   0.539  0.0928  0.8769 -0.1630
11300TIP3    H255392   1.311   1.429   0.428 -0.2501  1.1344  0.2381
11301TIP3   OH255393   5.994   5.119   6.501 -0.2708  0.0819  0.1551
11301TIP3    H155394   5.929   5.187   6.521 -0.8719 -0.0065 -1.3854
11301TIP3    H255395   6.073   5.168   6.476 -0.2365  0.2019  0.4969
11302TIP3   OH255396   6.399   6.130  14.095  0.4397  0.1385 -0.0012
11302TIP3    H155397   6.338   6.194  14.131  0.9758 -0.0529  1.3133
11302TIP3    H255398   6.357   6.045  14.113  1.3431 -0.0283  1.4888
11303TIP3   OH255399   6.599   5.548  14.143 -0.1179  0.6372 -0.8358
11303TIP3    H155400   6.678   5.507  14.178  0.0871  0.8808 -1.0220
11303TIP3    H255401   6.543   5.561  14.220  0.1001  0.6444 -0.6786
11304TIP3   OH255402   2.457   4.476  12.716  0.0046  0.0899 -0.2848
11304TIP3    H155403   2.412   4.480  12.632 -0.3846 -1.7351 -0.2251
11304TIP3    H255404   2.387   4.457  12.779  0.1988  2.0480  0.5712
11305TIP3   OH255405   2.394   1.947   3.205 -0.0718  0.8056  0.6017
11305TIP3    H155406   2.467   1.891   3.230 -0.1379  0.4936  0.1023
11305TIP3    H255407   2.320   1.887   3.195 -0.4326  1.1332  1.2193
11306TIP3   OH255408   4.987   0.148   3.540 -0.3765 -0.1352 -0.6665
11306TIP3    H155409   4.929   0.191   3.603  0.2369 -0.8751  0.4359
11306TIP3    H255410   5.042   0.218   3.506 -0.8753  0.3141 -0.5566
11307TIP3   OH255411   4.518   4.652   3.649 -0.1163  0.1444 -0.4664
11307TIP3    H155412   4.460   4.719   3.611 -0.6597  0.3426  0.6730
11307TIP3    H255413   4.601   4.697   3.663 -0.3292  0.4470 -0.1652
11308TIP3   OH255414   0.684   2.393   2.885 -0.3559 -0.1512  0.3347
11308TIP3    H155415   0.723   2.318   2.930 -0.4032 -0.4857 -0.1663
11308TIP3    H255416   0.716   2.386   2.795 -2.4673 -1.1083 -0.4080
11309TIP3   OH255417   2.796   3.214   3.371 -0.1653  0.2754 -0.3003
11309TIP3    H155418   2.754   3.128   3.377 -4.1903  2.0725  1.4825
11309TIP3    H255419   2.886   3.200   3.401 -1.4607 -2.8716  2.7041
11310TIP3   OH255420   3.933   3.958  16.096 -0.0246  0.3998  0.0474
11310TIP3    H155421   3.843   3.986  16.078 -0.6686 -0.1065  2.2265
11310TIP3    H255422   3.980   4.038  16.118  0.1434  0.6882 -1.2597
11311TIP3   OH255423   3.251   1.028   4.772  0.2058 -0.7688  0.1655
11311TIP3    H155424   3.196   1.094   4.729 -0.6909 -0.6878  1.3715
11311TIP3    H255425   3.327   1.077   4.803 -0.9346 -0.0387  1.9542
11312TIP3   OH255426   3.372   4.741  12.308  0.6838 -0.3408 -0.3551
11312TIP3    H155427   3.331   4.819  12.270 -0.3928 -0.8963 -0.3887
11312TIP3    H255428   3.420   4.702  12.236  1.7995  0.6407 -0.1729
11313TIP3   OH255429   5.075   2.581  12.823 -0.0625 -0.1026  0.2827
11313TIP3    H155430   5.130   2.504  12.837 -4.0708 -2.9607  2.0316
11313TIP3    H255431   5.035   2.598  12.908 -1.3569  2.2272 -0.7080
11314TIP3   OH255432   4.896   5.827  13.649  0.5100  0.3862 -0.1247
11314TIP3    H155433   4.875   5.909  13.694  0.9846  0.4405  0.0007
11314TIP3    H255434   4.910   5.853  13.558 -2.4397  0.0127 -0.8016
11315TIP3   OH255435   3.687   6.255  17.273  0.0500 -0.3844 -0.0342
11315TIP3    H155436   3.734   6.272  17.355 -0.6796 -0.9180  0.5109
11315TIP3    H255437   3.656   6.341  17.245  0.7462 -0.1288 -0.0234
11316TIP3   OH255438   1.422   2.688   3.168  0.2642  0.0482 -0.2981
11316TIP3    H155439   1.498   2.630   3.170  0.1636 -0.2301 -2.4388
11316TIP3    H255440   1.359   2.648   3.228  0.7790 -1.2331 -0.5956
11317TIP3   OH255441   1.788   0.390  11.954  0.0159 -0.0214  0.5217
11317TIP3    H155442   1.869   0.349  11.923  0.3843  1.5349 -0.6986
11317TIP3    H255443   1.811   0.483  11.964 -1.9054  0.6827 -1.0564
11318TIP3   OH255444   5.201   0.514   1.456  0.0931 -0.1587 -0.1643
11318TIP3    H155445   5.154   0.439   1.420  0.1564  0.4048 -1.4812
11318TIP3    H255446   5.208   0.495   1.550 -0.6704 -1.3632 -0.3258
11319TIP3   OH255447   5.161   6.236   3.470 -0.5453 -0.3157 -0.1282
11319TIP3    H155448   5.192   6.169   3.530 -0.3372 -1.3196 -1.3015
11319TIP3    H255449   5.076   6.204   3.440 -1.1324  0.7007  0.4411
11320TIP3   OH255450   5.731   4.281   3.723 -0.6456 -0.0452  0.2901
11320TIP3    H155451   5.653   4.238   3.688 -0.6292 -0.3030  0.5598
11320TIP3    H255452   5.804   4.238   3.677 -0.7123  1.3853 -1.2458
11321TIP3   OH255453   3.649   1.440   0.005  0.3644 -0.5675 -0.0312
11321TIP3    H155454   3.579   1.479  -0.047  0.6116  0.2128  0.1973
11321TIP3    H255455   3.607   1.415   0.087  0.1933 -0.8449 -0.1995
11322TIP3   OH255456   4.746   2.930   4.433 -0.5942 -0.3577  0.3190
11322TIP3    H155457   4.797   2.970   4.362 -0.9199 -0.7304 -0.1291
11322TIP3    H255458   4.662   2.976   4.431 -0.3764  0.0867  0.8995
11323TIP3   OH255459   6.713   0.807  15.127 -0.2426 -0.1250 -0.8341
11323TIP3    H155460   6.637   0.754  15.099 -0.0387 -0.6348 -0.4353
11323TIP3    H255461   6.766   0.747  15.179  2.3562 -0.9611 -4.0994
11324TIP3   OH255462   5.851   4.662   5.733 -0.2769 -0.1017 -0.1387
11324TIP3    H155463   5.885   4.738   5.780 -1.0133 -0.4020  0.9398
11324TIP3    H255464   5.766   4.691   5.699 -1.0392 -0.7063  1.1562
11325TIP3   OH255465   4.486   6.315   0.046 -0.2406 -0.0146 -0.4642
11325TIP3    H155466   4.393   6.312   0.068 -0.1472 -0.3506 -0.0967
11325TIP3    H255467   4.526   6.245   0.099  0.4759  1.1294  0.5588
11326TIP3   OH255468   5.244   4.813  16.887 -0.1226 -0.0981  0.1409
11326TIP3    H155469   5.221   4.899  16.924  1.5345  0.4056  0.0743
11326TIP3    H255470   5.253   4.756  16.963  1.9208  0.6054  0.5049
11327TIP3   OH255471   4.884   5.384  12.672 -0.1263  0.7083 -0.1415
11327TIP3    H155472   4.934   5.427  12.602 -1.1576  3.5146  0.7190
11327TIP3    H255473   4.950   5.340  12.725  0.8681  0.2036 -1.7332
11328TIP3   OH255474   6.525   3.594  11.088 -0.4311  0.3186  0.2620
11328TIP3    H155475   6.485   3.669  11.044  0.7771  1.0994  0.4738
11328TIP3    H255476   6.607   3.627  11.123  0.3750 -1.2244 -0.0808
11329TIP3   OH255477   4.187   3.566   3.361 -0.1754  0.4557 -0.1626
11329TIP3    H155478   4.101   3.557   3.320 -0.5896 -2.1928  1.0924
11329TIP3    H255479   4.248   3.562   3.288 -0.9857 -2.0877 -0.8006
11330TIP3   OH255480   0.957   4.014   0.985  0.0601 -0.6502  0.6458
11330TIP3    H155481   0.976   3.934   0.936 -1.2289 -1.2881  1.1373
11330TIP3    H255482   0.875   3.996   1.030  0.0596  0.7362  1.2672
11331TIP3   OH255483   3.443   0.463  16.139  0.0331  0.0714 -0.5163
11331TIP3    H155484   3.381   0.420  16.081 -1.1310  1.0700 -0.0658
11331TIP3    H255485   3.398   0.543  16.167  1.2291  0.4461  0.4280
11332TIP3   OH255486   1.898   3.730  14.129 -0.0350 -0.2903 -0.0426
11332TIP3    H155487   1.943   3.646  14.119  0.1393 -0.1300 -0.7038
11332TIP3    H255488   1.854   3.724  14.214  2.3924  0.0737  1.3309
11333TIP3   OH255489   5.705   0.805  10.690 -0.2604 -0.9290 -0.0442
11333TIP3    H155490   5.723   0.899  10.692 -0.8721 -0.7870 -0.7912
11333TIP3    H255491   5.647   0.791  10.765 -0.4268 -0.6561 -0.1190
11334TIP3   OH255492   0.442   1.553   5.810  0.3643 -0.1237  0.2050
11334TIP3    H155493   0.400   1.606   5.742  1.2685  0.9597  0.4552
11334TIP3    H255494   0.479   1.479   5.763 -1.5229 -0.9445 -0.0598
11335TIP3   OH255495   5.341   6.407   3.813 -0.0051 -0.5126  0.8274
11335TIP3    H155496   5.274   6.344   3.838 -0.8360 -0.0214 -0.0780
11335TIP3    H255497   5.304   6.492   3.840 -0.0740 -0.1706 -0.3186
11336TIP3   OH255498   0.634   3.745   2.223 -0.2296 -0.3656  0.0826
11336TIP3    H155499   0.728   3.762   2.228 -0.1030 -1.3958  1.9414
11336TIP3    H255500   0.594   3.823   2.262 -0.0038 -0.9162  1.4786
11337TIP3   OH255501   1.143   3.215  12.812 -0.5744  0.3051 -0.2337
11337TIP3    H155502   1.207   3.283  12.833 -0.0851 -0.3484  0.4179
11337TIP3    H255503   1.119   3.233  12.721 -1.1398  1.8897  0.1903
11338TIP3   OH255504   5.687   4.393   3.984  0.3814 -0.1020 -0.7042
11338TIP3    H155505   5.670   4.339   3.907  2.4024 -0.1360 -1.1900
11338TIP3    H255506   5.732   4.334   4.045 -1.7750 -0.2594  0.8389
11339TIP3   OH255507   2.750   4.214  13.669  0.1318 -0.9751 -0.0913
11339TIP3    H155508   2.714   4.174  13.748  2.9192 -3.6546  0.0025
11339TIP3    H255509   2.769   4.305  13.695 -2.0466 -0.8096  1.1963
11340TIP3   OH255510   0.034   1.478   6.297 -0.0192  0.7596  0.1941
11340TIP3    H155511   0.004   1.427   6.372  0.1761 -0.1918 -0.3597
11340TIP3    H255512  -0.046   1.518   6.263 -0.8916 -2.1629 -1.5831
11341TIP3   OH255513   6.057   5.943   3.692  0.7994  0.3355 -0.0940
11341TIP3    H155514   6.125   5.937   3.625  0.3090  0.9516 -0.6649
11341TIP3    H255515   6.102   5.922   3.774  1.0679 -1.9892 -0.7740
11342TIP3   OH255516   4.911   5.628  15.313  0.6120  0.0839  0.1456
11342TIP3    H155517   4.828   5.606  15.271  1.1878 -0.2854 -0.8167
11342TIP3    H255518   4.974   5.567  15.276  1.2113 -0.0354  1.3044
11343TIP3   OH255519   4.535   4.295  13.674 -0.7655 -0.0336 -0.8339
11343TIP3    H155520   4.560   4.237  13.746  0.3489  1.6079  0.1729
11343TIP3    H255521   4.447   4.265  13.648 -0.6016 -1.5572  0.2296
11344TIP3   OH255522   0.743   2.370   2.073  0.1059  0.3524 -0.4706
11344TIP3    H155523   0.654   2.351   2.105  0.2326  0.4182 -0.0705
11344TIP3    H255524   0.728   2.419   1.992 -0.2568  1.5939  0.3060
11345TIP3   OH255525   4.710   3.729  15.481 -0.3473  0.1852 -0.1026
11345TIP3    H155526   4.616   3.730  15.463 -0.0383 -0.1000 -2.0086
11345TIP3    H255527   4.745   3.806  15.435  0.6137 -0.9907 -1.4595
11346TIP3   OH255528   6.688   5.191  13.254  0.2307  0.1967 -0.0023
11346TIP3    H155529   6.604   5.183  13.208  0.9771  0.7022 -1.5338
11346TIP3    H255530   6.751   5.150  13.195  1.1358  0.2675  0.9012
11347TIP3   OH255531   3.360   0.344   1.563  0.4070 -0.1757  0.1851
11347TIP3    H155532   3.321   0.411   1.506  1.1540  0.0813 -0.0336
11347TIP3    H255533   3.342   0.262   1.518 -1.3000 -0.2443  0.8916
11348TIP3   OH255534   0.880   6.523  14.610 -0.7017  0.4157  0.3593
11348TIP3    H155535   0.837   6.606  14.630 -1.1499  0.4381 -0.6416
11348TIP3    H255536   0.888   6.522  14.515  1.7628  0.5169  0.4878
11349TIP3   OH255537   1.766   0.066  14.649  0.2701 -0.1208 -0.8772
11349TIP3    H155538   1.798   0.102  14.566  1.6463 -1.5768 -1.0287
11349TIP3    H255539   1.744  -0.025  14.627  0.4724 -0.4645  0.3245
11350TIP3   OH255540   3.582   2.455   5.995 -0.0281 -0.1763  0.1004
11350TIP3    H155541   3.600   2.417   5.909 -0.1284 -0.0013  0.0036
11350TIP3    H255542   3.669   2.474   6.031  0.0079  1.8660 -0.8957
11351TIP3   OH255543   5.884   4.112   1.278  0.4806  0.4217 -0.1070
11351TIP3    H155544   5.956   4.049   1.268 -0.1323 -0.2679 -0.2068
11351TIP3    H255545   5.925   4.187   1.322  1.0095 -0.4400  0.9410
11352TIP3   OH255546   4.958   3.066   2.439  0.0277  0.4176 -0.0746
11352TIP3    H155547   4.891   3.002   2.416  0.7115 -0.9543  1.5264
11352TIP3    H255548   4.939   3.090   2.530  1.5217  0.2149  0.3166
11353TIP3   OH255549   5.651   4.613   5.521  0.0605 -0.0699  0.4876
11353TIP3    H155550   5.671   4.661   5.441 -0.7371 -0.0270  0.3057
11353TIP3    H255551   5.719   4.546   5.527  0.2041  0.0158 -0.1577
11354TIP3   OH255552   2.276   2.168   3.313 -0.6287  0.0019  0.1312
11354TIP3    H155553   2.250   2.193   3.224 -0.7529  2.0257  0.6805
11354TIP3    H255554   2.331   2.090   3.302 -0.3732  0.4123 -1.7397
11355TIP3   OH255555   1.103   5.874  11.935  0.1390 -0.2694  0.5037
11355TIP3    H155556   1.067   5.953  11.893  0.2514  0.4699  1.7638
11355TIP3    H255557   1.197   5.888  11.937  0.3386 -1.2379 -0.8284
11356TIP3   OH255558   1.796   6.407   6.001  0.4431 -0.1779 -0.0715
11356TIP3    H155559   1.872   6.455   5.966  0.6894 -1.3570 -1.2214
11356TIP3    H255560   1.800   6.423   6.095  1.8018  0.2408 -0.1707
11357TIP3   OH255561   0.964   2.433   3.964 -0.5360  0.5246  0.2514
11357TIP3    H155562   0.977   2.495   3.892  0.9218  1.5757  1.3471
11357TIP3    H255563   1.045   2.382   3.966 -0.8735  0.0032  0.6609
11358TIP3   OH255564   1.082   1.793  16.275  0.6794 -0.2327  0.3447
11358TIP3    H155565   0.988   1.791  16.294  0.8226  1.1946  1.3210
11358TIP3    H255566   1.122   1.743  16.346  0.7748  0.5347  0.8429
11359TIP3   OH255567   0.973   3.629   4.963  0.0429 -0.1330  0.1454
11359TIP3    H155568   0.899   3.672   4.921  0.2240 -0.0557 -0.0925
11359TIP3    H255569   1.045   3.636   4.900 -0.1688 -1.6227 -0.3194
11360TIP3   OH255570   2.299   6.588   2.575 -0.4359 -0.0774 -0.0211
11360TIP3    H155571   2.261   6.672   2.602  1.4869  0.6124  0.7586
11360TIP3    H255572   2.363   6.612   2.509 -0.3085 -1.0147 -0.2440
11361TIP3   OH255573   4.484   5.283   5.204 -0.4003  0.5189 -0.4581
11361TIP3    H155574   4.435   5.266   5.123 -1.7690  2.4793 -0.1080
11361TIP3    H255575   4.425   5.256   5.274 -0.9942  2.7591 -0.0319
11362TIP3   OH255576   3.769   6.016   2.302  0.0021  0.7286  0.2137
11362TIP3    H155577   3.762   6.038   2.209 -0.6018 -2.3159 -0.5695
11362TIP3    H255578   3.681   5.986   2.326  0.3775  0.6155  1.5343
11363TIP3   OH255579   1.617   4.742   4.191  0.2175 -0.2177  0.0544
11363TIP3    H155580   1.568   4.697   4.260 -0.0984  1.0066  0.6452
11363TIP3    H255581   1.569   4.823   4.176  2.4039  1.3872  1.1796
11364TIP3   OH255582   3.222   0.744  15.941  0.5429 -0.0981  0.6119
11364TIP3    H155583   3.232   0.763  16.035  3.5101  1.1879  0.1496
11364TIP3    H255584   3.170   0.817  15.908 -0.6786 -0.6514  1.2457
11365TIP3   OH255585   2.283   1.136   3.591 -0.1253 -0.3117 -0.2810
11365TIP3    H155586   2.358   1.187   3.623 -0.4100  0.2205 -0.4474
11365TIP3    H255587   2.218   1.202   3.567  0.1587 -0.6590 -2.1777
11366TIP3   OH255588   3.293   3.000  13.650  0.3732  0.6188 -0.1284
11366TIP3    H155589   3.216   3.055  13.635 -0.2708  0.1044  1.1534
11366TIP3    H255590   3.322   2.973  13.562  0.8906  3.2051 -0.8419
11367TIP3   OH255591   2.787   4.053  16.015 -0.3161 -0.4447  0.3935
11367TIP3    H155592   2.768   4.126  15.956 -1.2658 -1.3368 -0.4647
11367TIP3    H255593   2.705   4.038  16.062  1.0215  1.7584  3.8121
11368TIP3   OH255594   0.178   1.299  12.048  0.0932 -0.4706  0.1072
11368TIP3    H155595   0.181   1.211  12.086  1.7936  0.3351  1.9826
11368TIP3    H255596   0.252   1.302  11.988 -2.5281 -1.7093 -3.5543
11369TIP3   OH255597   3.803   3.871   2.947  0.1133 -0.5025  0.8107
11369TIP3    H155598   3.858   3.802   2.910 -0.3528 -0.8347  0.7311
11369TIP3    H255599   3.714   3.845   2.924  0.0005  0.8160 -0.4240
11370TIP3   OH255600   6.369   4.627  12.844  0.4776 -0.0561 -0.0806
11370TIP3    H155601   6.384   4.606  12.751 -0.0901 -0.4207 -0.0987
11370TIP3    H255602   6.277   4.607  12.858  0.4694  0.3494  0.4773
11371TIP3   OH255603   4.623   1.044   4.659 -0.4092 -0.1710 -0.1744
11371TIP3    H155604   4.605   1.128   4.702 -1.0200 -1.6054  2.5990
11371TIP3    H255605   4.543   1.023   4.612 -0.7764  0.1254  0.3116
11372TIP3   OH255606   2.515   6.691   2.950  0.0641  0.0613  0.1131
11372TIP3    H155607   2.519   6.681   3.045 -1.3129 -1.2910  0.0603
11372TIP3    H255608   2.576   6.625   2.917 -1.1357 -1.0424  0.0306
11373TIP3   OH255609   2.143   0.029  17.677  0.6995 -0.1129 -0.3890
11373TIP3    H155610   2.145   0.084  17.755 -1.0058  0.2854 -0.5896
11373TIP3    H255611   2.206  -0.041  17.695  1.4356  0.7873  0.6944
11374TIP3   OH255612   2.087   1.351   6.805 -0.0202 -0.4269  0.2074
11374TIP3    H155613   2.052   1.430   6.763 -0.0548 -0.1219  0.8035
11374TIP3    H255614   2.045   1.279   6.758  0.6636 -0.1223 -0.9258
11375TIP3   OH255615   4.968   6.258  13.329 -0.1036  0.0589  0.5378
11375TIP3    H155616   4.913   6.324  13.370 -2.1041 -0.8426 -0.5484
11375TIP3    H255617   5.033   6.308  13.279 -2.5580  1.3700 -1.6287
11376TIP3   OH255618   0.559   3.540  16.414 -0.0388 -0.0271  0.1508
11376TIP3    H155619   0.651   3.556  16.437  0.2540 -1.0214 -0.2749
11376TIP3    H255620   0.551   3.573  16.324 -0.4888  1.3824  0.6783
11377TIP3   OH255621   5.754   6.147  14.642  0.4182  0.5039 -0.2089
11377TIP3    H155622   5.842   6.131  14.606  0.7087  0.8990  0.3086
11377TIP3    H255623   5.696   6.092  14.590  1.1707 -0.9853  0.4747
11378TIP3   OH255624   3.786   1.318   1.070  0.1892 -0.3078 -0.0001
11378TIP3    H155625   3.768   1.270   1.151  0.3135 -0.1178  0.1424
11378TIP3    H255626   3.803   1.407   1.099  3.1290 -0.7945  0.1161
11379TIP3   OH255627   6.088   5.323  15.142 -0.5096 -0.6339 -0.0244
11379TIP3    H155628   6.171   5.281  15.121 -0.6156 -0.5284 -0.6972
11379TIP3    H255629   6.112   5.413  15.164 -0.3631 -0.8301  0.6391
11380TIP3   OH255630   0.582   5.459   2.031  0.0019 -0.1736  0.4714
11380TIP3    H155631   0.677   5.453   2.026  0.0941  1.6886 -2.2289
11380TIP3    H255632   0.564   5.532   2.090  0.2191 -0.6730  1.1622
11381TIP3   OH255633   5.355   2.285  16.512 -0.0463 -0.2413  0.6516
11381TIP3    H155634   5.377   2.378  16.521 -1.4296  0.2159 -0.3477
11381TIP3    H255635   5.342   2.273  16.418  0.6099 -1.5815  0.7197
11382TIP3   OH255636   0.664   1.381   0.235 -0.8161  0.4854  0.7341
11382TIP3    H155637   0.749   1.425   0.231  0.2613 -1.1954  2.9237
11382TIP3    H255638   0.635   1.394   0.326 -0.9113 -2.3479  1.1879
11383TIP3   OH255639   2.475   4.737  17.049  0.5633 -0.4214  0.1950
11383TIP3    H155640   2.426   4.816  17.073  0.8958 -0.2588  0.3633
11383TIP3    H255641   2.450   4.719  16.959 -0.6658 -0.9997  0.6339
11384TIP3   OH255642   1.911   4.763  11.331 -0.8085 -0.3713 -0.1955
11384TIP3    H155643   1.883   4.698  11.267 -1.2312 -0.4863  0.1050
11384TIP3    H255644   1.901   4.847  11.287  1.3162 -0.5652 -1.1985
11385TIP3   OH255645   4.094   2.047   5.723  0.5583 -0.0960 -0.3584
11385TIP3    H155646   4.075   1.955   5.706 -0.3118 -0.1305  0.7512
11385TIP3    H255647   4.135   2.078   5.642  1.8142 -1.7035 -0.3821
11386TIP3   OH255648   0.001   2.741  11.819 -0.0204 -0.6287  0.2869
11386TIP3    H155649   0.041   2.786  11.894  0.5659 -0.1225 -0.3158
11386TIP3    H255650   0.060   2.760  11.746 -0.4720 -1.2949 -0.2605
11387TIP3   OH255651   5.945   3.700  14.060  0.2329 -0.3741  0.2633
11387TIP3    H155652   5.913   3.652  14.136  0.8649  0.1134  0.8430
11387TIP3    H255653   5.999   3.770  14.096 -0.2564  0.4662 -0.5974
11388TIP3   OH255654   3.615   0.663   4.629  0.7601 -0.6081  0.1250
11388TIP3    H155655   3.576   0.647   4.543 -1.9878  0.8717  0.9914
11388TIP3    H255656   3.705   0.691   4.609  0.1516 -0.1521 -2.2695
11389TIP3   OH255657   4.366   4.899  14.170 -0.1172  0.1969 -0.2826
11389TIP3    H155658   4.425   4.921  14.098  0.0978  1.4616  0.2611
11389TIP3    H255659   4.418   4.916  14.249 -0.6155 -0.4121  0.1887
11390TIP3   OH255660   6.127   3.724  14.413  0.4827 -0.2007 -0.0923
11390TIP3    H155661   6.160   3.785  14.346  2.1594 -1.1746 -0.2141
11390TIP3    H255662   6.131   3.775  14.494  0.5203  0.3017 -0.3989
11391TIP3   OH255663   4.248   4.228   3.814  0.2319  0.3561  0.1277
11391TIP3    H155664   4.284   4.290   3.750  1.2097 -1.0723 -0.7727
11391TIP3    H255665   4.156   4.218   3.789  0.2845  0.7767 -0.2522
11392TIP3   OH255666   0.574   0.680   5.815  0.5957  0.1665 -0.2271
11392TIP3    H155667   0.595   0.598   5.860  1.5438  0.1652 -0.6418
11392TIP3    H255668   0.560   0.743   5.886  0.0091 -0.3171  0.0922
11393TIP3   OH255669   2.760   1.519   3.109  0.3031 -0.2169  0.3151
11393TIP3    H155670   2.808   1.505   3.027  0.4570 -2.6034  0.7366
11393TIP3    H255671   2.705   1.595   3.092 -0.3517 -1.1689 -2.3374
11394TIP3   OH255672   0.948   6.103  13.955 -0.0940  0.1073 -0.0705
11394TIP3    H155673   0.898   6.145  14.025 -1.9311 -0.3082 -1.0578
11394TIP3    H255674   0.891   6.108  13.878  2.2596  1.5149 -1.8811
11395TIP3   OH255675   4.257   5.634   3.980 -0.1837  0.5642  0.2893
11395TIP3    H155676   4.229   5.626   4.071 -1.1780  0.5200 -0.0094
11395TIP3    H255677   4.313   5.557   3.966 -1.7875 -0.6605  0.2554
11396TIP3   OH255678   3.083   4.307  11.776  0.6041  0.3644  0.2704
11396TIP3    H155679   3.161   4.331  11.826 -0.0885 -0.2914  1.7102
11396TIP3    H255680   3.025   4.265  11.839  0.8484 -3.1686 -1.6052
11397TIP3   OH255681   5.657   6.319   4.676  0.4773 -0.3783  0.1475
11397TIP3    H155682   5.712   6.256   4.723  0.4668  0.6927  1.6771
11397TIP3    H255683   5.712   6.397   4.668 -1.1976  1.2770  3.0764
11398TIP3   OH255684   3.280   5.469  13.461  0.0633 -0.9315  0.3102
11398TIP3    H155685   3.271   5.373  13.465 -1.4829 -0.8916 -1.1114
11398TIP3    H255686   3.321   5.485  13.376 -1.0101 -0.2783 -0.0948
11399TIP3   OH255687   2.742   0.114  14.822 -0.2379  0.0161 -0.1555
11399TIP3    H155688   2.719   0.026  14.852 -0.4203 -0.7035 -2.2097
11399TIP3    H255689   2.662   0.146  14.780 -0.5564  1.6976  1.6309
11400TIP3   OH255690   5.813   4.371  15.440  0.0978  0.2411  0.5142
11400TIP3    H155691   5.853   4.288  15.465  1.3771  1.0437  1.2684
11400TIP3    H255692   5.880   4.416  15.388 -0.6365  0.7386 -0.0308
11401TIP3   OH255693   5.957   5.336  17.304  0.3209 -0.0026  0.1027
11401TIP3    H155694   6.016   5.261  17.291  1.4868  0.6097  1.5676
11401TIP3    H255695   5.889   5.304  17.363  0.7363  0.0480  0.6107
11402TIP3   OH255696   0.347   4.990  15.560 -0.6117  0.0405 -0.1480
11402TIP3    H155697   0.367   5.061  15.620  1.1548  1.3740 -2.1842
11402TIP3    H255698   0.252   4.994  15.549 -1.0542 -0.4932  2.7223
11403TIP3   OH255699   2.917   0.308   5.630 -0.0425  0.1005 -0.2087
11403TIP3    H155700   2.976   0.330   5.558  0.6962  0.3208  0.4510
11403TIP3    H255701   2.879   0.223   5.606  0.5055 -0.0165 -0.6608
11404TIP3   OH255702   1.441   0.023  14.753 -0.6714 -0.4780 -0.0214
11404TIP3    H155703   1.514   0.021  14.814 -0.1611  1.9681 -0.4273
11404TIP3    H255704   1.476  -0.014  14.672 -0.4877 -1.0861  0.3300
11405TIP3   OH255705   3.110   3.842   5.645  0.2911  0.1267  0.6615
11405TIP3    H155706   3.133   3.774   5.582  0.5679 -0.6443  1.5706
11405TIP3    H255707   3.045   3.897   5.600  0.8731 -0.0975 -0.4653
11406TIP3   OH255708   4.635   1.679   4.407 -0.1622 -0.5276 -0.6670
11406TIP3    H155709   4.602   1.629   4.482  0.0761  0.5845  0.2128
11406TIP3    H255710   4.596   1.636   4.331 -1.2984 -1.0227  0.1507
11407TIP3   OH255711   0.120   3.099   1.333  0.1155 -0.3418 -0.0094
11407TIP3    H155712   0.121   3.092   1.428 -1.0789 -0.6208  0.0023
11407TIP3    H255713   0.116   3.008   1.302 -0.9164 -0.2280 -0.2659
11408TIP3   OH255714   3.960   6.581   1.117 -0.0084  0.3000 -0.0668
11408TIP3    H155715   4.049   6.615   1.124 -0.2045  0.4205  2.9825
11408TIP3    H255716   3.968   6.507   1.057  2.1894  0.1885  0.2681
11409TIP3   OH255717   0.300   5.161   0.476 -0.7606 -0.2297 -0.1768
11409TIP3    H155718   0.327   5.236   0.528 -1.6169 -0.4429  0.5889
11409TIP3    H255719   0.253   5.198   0.401  0.8062  0.1001 -1.0712
11410TIP3   OH255720   5.556   4.219   1.946 -0.6985 -0.0335 -0.0337
11410TIP3    H155721   5.589   4.134   1.974 -1.0064 -0.8548 -2.0018
11410TIP3    H255722   5.480   4.235   2.001  0.9733  0.3439  2.3079
11411TIP3   OH255723   0.144   3.511   4.002 -0.2745 -0.1286  0.0450
11411TIP3    H155724   0.188   3.482   3.922  1.2417  3.1665 -0.4508
11411TIP3    H255725   0.072   3.566   3.972 -2.2708 -2.0849  0.9724
11412TIP3   OH255726   4.647   4.019   4.598 -0.1168 -0.4292 -0.0491
11412TIP3    H155727   4.726   3.968   4.614 -0.2715 -0.4836  0.5513
11412TIP3    H255728   4.627   4.059   4.682 -1.4344 -1.4006  0.1236
11413TIP3   OH255729   2.019   0.832   3.752 -0.1560  0.4545 -0.5772
11413TIP3    H155730   1.934   0.794   3.733  0.2132 -0.3678 -0.5941
11413TIP3    H255731   2.025   0.907   3.692 -0.7830  0.4051 -0.7095
11414TIP3   OH255732   4.527   2.561   2.606 -0.4447 -0.1913 -0.3636
11414TIP3    H155733   4.465   2.597   2.669 -0.7351 -0.8201 -0.2862
11414TIP3    H255734   4.504   2.602   2.523 -0.4467  0.1829 -0.1816
11415TIP3   OH255735   3.022   0.568   3.778 -0.3254  0.2787  0.4276
11415TIP3    H155736   2.937   0.605   3.800 -0.0237  2.2560 -1.3680
11415TIP3    H255737   3.085   0.619   3.829 -0.1477 -1.1693  1.7448
11416TIP3   OH255738   4.443   1.007  14.448 -0.1439 -0.3118  0.3896
11416TIP3    H155739   4.522   1.013  14.501  0.2742 -1.3561 -0.0804
11416TIP3    H255740   4.454   0.926  14.399 -2.0198 -1.0741  1.1430
11417TIP3   OH255741   2.982   6.321  17.662  0.0469 -0.3735  0.1247
11417TIP3    H155742   2.982   6.318  17.567  0.7658  1.8994 -0.0232
11417TIP3    H255743   3.018   6.408  17.683 -3.8883  0.9852  2.3642
11418TIP3   OH255744   5.776   3.711   4.355  0.5617  0.2117 -0.2988
11418TIP3    H155745   5.853   3.660   4.382  0.0976 -0.4729 -0.2358
11418TIP3    H255746   5.733   3.656   4.290  0.1405  0.6114 -0.3598
11419TIP3   OH255747   2.294   2.395  17.576  0.3237  0.0920  0.3025
11419TIP3    H155748   2.277   2.480  17.537 -2.0506 -0.2015  0.5461
11419TIP3    H255749   2.358   2.354  17.518  0.2465  1.4076 -0.7470
11420TIP3   OH255750   4.449   3.024   1.877  0.0383  0.0705  0.2647
11420TIP3    H155751   4.372   3.068   1.841 -0.3368 -0.9416 -0.1988
11420TIP3    H255752   4.446   3.044   1.971 -1.4291 -0.8563  0.4482
11421TIP3   OH255753   3.599   4.424   4.854  0.0312 -0.3333 -0.1524
11421TIP3    H155754   3.652   4.422   4.775  0.0165  0.5227 -0.1935
11421TIP3    H255755   3.660   4.396   4.924  0.1741 -0.6162 -0.3861
11422TIP3   OH255756   0.652   0.240   4.389 -0.1453 -0.0799  0.0069
11422TIP3    H155757   0.601   0.244   4.308  0.0316  0.9637 -0.0672
11422TIP3    H255758   0.742   0.226   4.361 -0.2657 -1.1833  0.1073
11423TIP3   OH255759   1.545   5.568   6.289  0.7158 -0.3050  0.0278
11423TIP3    H155760   1.626   5.604   6.324  0.2307  0.8953 -0.0491
11423TIP3    H255761   1.561   5.560   6.195  0.5285  0.5332 -0.0778
11424TIP3   OH255762   6.706   4.451  15.606  0.0096 -0.2414 -0.1141
11424TIP3    H155763   6.775   4.429  15.543 -1.4280 -1.3898 -1.3474
11424TIP3    H255764   6.672   4.535  15.574 -0.0980 -0.3667 -0.3343
11425TIP3   OH255765   0.114   1.338   2.916 -0.0239 -0.0533  0.0401
11425TIP3    H155766   0.173   1.378   2.980 -0.7513  0.1528  0.5924
11425TIP3    H255767   0.039   1.308   2.967 -0.4717 -0.1773 -0.6693
11426TIP3   OH255768   2.037   0.883  14.851 -1.0676  0.5326  0.7202
11426TIP3    H155769   2.107   0.947  14.835  1.5245 -2.1950  0.3386
11426TIP3    H255770   1.994   0.873  14.766 -2.6643  2.8491  1.1426
11427TIP3   OH255771   4.446   1.103  12.941 -0.4262 -0.6593 -0.2136
11427TIP3    H155772   4.526   1.146  12.971 -0.8061 -0.2503  0.2387
11427TIP3    H255773   4.468   1.070  12.854  0.5040 -1.3245  0.2493
11428TIP3   OH255774   3.442   0.119   0.143 -0.4552 -0.8948 -0.3693
11428TIP3    H155775   3.450   0.079   0.230 -0.3358  0.4890  0.2806
11428TIP3    H255776   3.351   0.147   0.138  0.0413  0.9847  0.2337
11429TIP3   OH255777   0.775   1.466  16.519 -0.1446  0.2401  0.1862
11429TIP3    H155778   0.809   1.377  16.524  0.6664  0.5800  1.3469
11429TIP3    H255779   0.734   1.480  16.604  1.7854  1.7154  0.9623
11430TIP3   OH255780   0.285   4.707  14.349  0.2194  0.1337  0.0365
11430TIP3    H155781   0.198   4.724  14.385  0.5610  2.3951 -0.0756
11430TIP3    H255782   0.270   4.646  14.277 -1.2048  0.0958  0.3489
11431TIP3   OH255783   2.324   0.088  14.377 -0.1915  0.3636 -0.4139
11431TIP3    H155784   2.309  -0.004  14.396  0.3930  0.1240 -1.0860
11431TIP3    H255785   2.419   0.100  14.390 -0.2671  0.8764 -0.3080
11432TIP3   OH255786   3.275   0.708  10.976 -0.4041  0.5325  0.5544
11432TIP3    H155787   3.247   0.638  10.916 -2.0454 -0.1319  2.0042
11432TIP3    H255788   3.370   0.710  10.967 -0.3814 -1.3412 -0.1438
11433TIP3   OH255789   3.555   2.261  15.526 -0.1729 -0.3353 -0.3798
11433TIP3    H155790   3.587   2.290  15.441  1.0337  0.3613  0.2921
11433TIP3    H255791   3.629   2.217  15.567 -0.2967  0.5431  0.8626
11434TIP3   OH255792   2.047   1.288   6.501 -0.4417 -0.1513  0.3622
11434TIP3    H155793   2.047   1.233   6.423 -1.0169 -2.5341  1.9388
11434TIP3    H255794   2.059   1.377   6.468 -1.8712 -0.9229 -2.5110
11435TIP3   OH255795   3.866   2.736   1.739  0.2840  0.2605 -0.0767
11435TIP3    H155796   3.789   2.765   1.690 -0.4945 -0.9665  0.3940
11435TIP3    H255797   3.838   2.738   1.831  1.3325  1.3298  0.2515
11436TIP3   OH255798   2.801   4.833   2.823  0.8185  0.0028 -0.2888
11436TIP3    H155799   2.799   4.786   2.739 -0.7672  0.2597 -0.4230
11436TIP3    H255800   2.709   4.853   2.842  1.1469  0.0362  1.4701
11437TIP3   OH255801   0.289   5.098  13.777  0.2810 -0.2428  0.1842
11437TIP3    H155802   0.269   5.007  13.755 -2.2333  0.0206  1.0390
11437TIP3    H255803   0.222   5.149  13.732  0.4419  1.0195  1.3079
11438TIP3   OH255804   0.127   3.166  17.484  0.1753 -0.3668 -0.2887
11438TIP3    H155805   0.145   3.190  17.393 -0.7722  0.5173 -0.2733
11438TIP3    H255806   0.031   3.174  17.493  0.2035 -0.8602  0.6685
11439TIP3   OH255807   0.323   4.252  15.631 -0.0974  0.4579  0.3561
11439TIP3    H155808   0.291   4.307  15.559  0.9252 -1.1029 -1.3749
11439TIP3    H255809   0.268   4.174  15.628  0.2552  0.1811  0.9955
11440TIP3   OH255810   2.853   1.753  15.881  0.4822 -0.1235 -0.2712
11440TIP3    H155811   2.833   1.713  15.966  0.1487  1.1221  0.2629
11440TIP3    H255812   2.769   1.753  15.834  0.7263 -1.0716 -0.7330
11441TIP3   OH255813   5.422   5.604   6.607  0.6185  0.3292  0.6962
11441TIP3    H155814   5.353   5.553   6.649  1.0170  1.4361  2.8042
11441TIP3    H255815   5.502   5.555   6.625  0.9142  1.2952  2.1349
11442TIP3   OH255816   6.532   5.339  15.926  0.1982  0.2181 -0.2381
11442TIP3    H155817   6.520   5.245  15.914 -0.1458  0.2264  0.0230
11442TIP3    H255818   6.452   5.368  15.969  0.0988  0.7095 -0.7346
11443TIP3   OH255819   5.001   2.538  12.291 -0.2321  0.3168 -0.1199
11443TIP3    H155820   4.910   2.511  12.300 -0.2021  0.3062  0.1836
11443TIP3    H255821   5.022   2.578  12.376 -0.1575  0.9317 -0.4227
11444TIP3   OH255822   1.023   5.728  15.518 -0.1585  0.2983  0.5300
11444TIP3    H155823   0.966   5.718  15.441 -0.0342  1.1360  0.3174
11444TIP3    H255824   0.999   5.814  15.554  1.9849  1.3482 -0.4149
11445TIP3   OH255825   5.970   2.511  12.868  0.1133  0.4089 -0.0207
11445TIP3    H155826   5.998   2.424  12.841  1.7742  0.3864  1.5834
11445TIP3    H255827   6.038   2.570  12.834  0.5882  0.7094  1.3798
11446TIP3   OH255828   2.654   0.812  12.499  0.0600 -0.0985 -0.1746
11446TIP3    H155829   2.640   0.883  12.437 -0.2273  2.7311  2.8593
11446TIP3    H255830   2.744   0.824  12.530 -0.4825 -0.0819  1.4793
11447TIP3   OH255831   1.409   6.273   0.251  0.0073  0.0681 -0.2612
11447TIP3    H155832   1.479   6.255   0.314 -0.5031  0.0633  0.3148
11447TIP3    H255833   1.451   6.325   0.182  1.6507 -3.5431 -2.2344
11448TIP3   OH255834   6.733   0.568   1.669  0.1201  0.0776 -0.0970
11448TIP3    H155835   6.725   0.663   1.663 -0.7479 -0.0611 -2.1497
11448TIP3    H255836   6.644   0.536   1.652  0.4094 -1.1155  0.5173
11449TIP3   OH255837   6.332   2.093   3.898  0.2380 -0.1957 -0.2944
11449TIP3    H155838   6.322   2.037   3.821  0.8444  0.8916 -1.1950
11449TIP3    H255839   6.422   2.077   3.928  0.9313  1.3513 -1.4493
11450TIP3   OH255840   2.377   3.803  17.617  0.4588 -0.1520  0.0931
11450TIP3    H155841   2.470   3.784  17.630  0.4383 -0.5860 -0.3695
11450TIP3    H255842   2.337   3.782  17.701  0.8954  0.8392  0.5639
11451TIP3   OH255843   3.323   3.748   6.100  0.2307 -0.2018  0.3039
11451TIP3    H155844   3.287   3.784   6.181  0.3795  0.3419  0.1305
11451TIP3    H255845   3.248   3.740   6.041  0.0465 -0.9891  0.6257
11452TIP3   OH255846   4.688   6.048  17.577  0.4256 -0.0087  0.5457
11452TIP3    H155847   4.604   6.071  17.539 -0.3793 -0.6297  1.8776
11452TIP3    H255848   4.667   5.984  17.645  2.0174 -0.4807  0.6354
11453TIP3   OH255849   2.791   0.661  13.320 -0.1858  0.0489 -0.2612
11453TIP3    H155850   2.743   0.588  13.360  0.3294 -0.8687 -1.2552
11453TIP3    H255851   2.781   0.733  13.382 -1.4217 -0.6126  0.3508
11454TIP3   OH255852   1.264   6.033   2.556 -0.0086 -0.0352 -0.0321
11454TIP3    H155853   1.332   6.079   2.507  1.4597 -2.2125 -0.1744
11454TIP3    H255854   1.302   6.017   2.642  0.2300 -2.3497 -0.4940
11455TIP3   OH255855   2.175   1.103  11.902 -0.1425 -0.3019 -0.1741
11455TIP3    H155856   2.203   1.025  11.950 -2.3692 -1.4433 -0.6017
11455TIP3    H255857   2.181   1.174  11.966 -0.4608 -1.2913  0.9848
11456TIP3   OH255858   0.952   0.510  12.510  0.1954 -0.5358  0.4614
11456TIP3    H155859   1.036   0.554  12.521  1.6603 -2.5120 -1.7500
11456TIP3    H255860   0.890   0.580  12.493  1.7526  0.8690  0.3142
11457TIP3   OH255861   0.492   6.728   0.011  0.0463  0.5721  0.2633
11457TIP3    H155862   0.490   6.683   0.095 -1.6459  1.2920  0.6361
11457TIP3    H255863   0.438   6.674  -0.047 -1.1219  1.5126  0.4291
11458TIP3   OH255864   5.749   0.256  12.291 -0.2829 -0.1273  0.1039
11458TIP3    H155865   5.765   0.161  12.293 -0.7872 -0.2235 -0.2890
11458TIP3    H255866   5.724   0.274  12.201  2.1984  0.8018 -0.4961
11459TIP3   OH255867   6.219   6.589   2.812 -0.0736 -0.2528  0.0456
11459TIP3    H155868   6.302   6.605   2.856 -1.2345 -0.0948  2.3700
11459TIP3    H255869   6.232   6.619   2.722  2.7689 -1.5367 -0.0736
11460TIP3   OH255870   0.289   3.422   0.913 -0.2561 -0.2045 -0.1758
11460TIP3    H155871   0.291   3.350   0.976  1.1617  1.3368  1.6688
11460TIP3    H255872   0.286   3.379   0.828 -2.4909 -2.3958  0.8642
11461TIP3   OH255873   5.413   2.694   4.021  0.4944  0.0035 -0.2240
11461TIP3    H155874   5.442   2.624   3.963  1.9439 -0.8725  1.4997
11461TIP3    H255875   5.493   2.736   4.051 -0.1939  0.2935  1.3166
11462TIP3   OH255876   5.981   4.582  13.395  0.0197 -0.2522  0.1394
11462TIP3    H155877   6.014   4.544  13.477  1.6146  2.3993  0.8247
11462TIP3    H255878   5.886   4.580  13.405  0.1754 -0.3613  1.8993
11463TIP3   OH255879   1.994   5.778   2.088  0.0471 -0.5483 -0.2183
11463TIP3    H155880   2.047   5.836   2.033 -1.3205  0.9472  0.0049
11463TIP3    H255881   2.030   5.789   2.176  0.9244 -1.4303 -0.4333
11464TIP3   OH255882   6.163   4.158  15.414  0.2616 -0.4134 -0.4427
11464TIP3    H155883   6.209   4.137  15.333 -0.7368  0.4329 -1.2511
11464TIP3    H255884   6.167   4.253  15.420 -0.4647 -0.4009  0.0253
11465TIP3   OH255885   0.355   6.365  12.645  0.0042  0.8476 -0.0031
11465TIP3    H155886   0.377   6.352  12.553  0.1604  0.3229  0.1094
11465TIP3    H255887   0.401   6.296  12.691  1.9782  2.5813  0.7686
11466TIP3   OH255888   3.254   4.708   1.805  0.5872  0.2320 -0.1397
11466TIP3    H155889   3.167   4.748   1.807 -0.1935 -1.2926 -1.1756
11466TIP3    H255890   3.273   4.700   1.711  0.7589 -1.6381  0.0278
11467TIP3   OH255891   6.301   1.306  13.581  0.0191 -0.6728 -0.3136
11467TIP3    H155892   6.241   1.370  13.543  1.8154  0.7058 -0.9660
11467TIP3    H255893   6.322   1.246  13.509  0.7741 -0.0874 -0.5965
11468TIP3   OH255894   0.338   5.008   3.297 -0.1805  0.1950  0.2749
11468TIP3    H155895   0.264   5.067   3.310 -0.4518 -0.2596  0.8153
11468TIP3    H255896   0.368   5.027   3.208  0.5202  2.0347  0.8420
11469TIP3   OH255897   5.619   1.756   0.004 -0.0256 -0.3247  0.0318
11469TIP3    H155898   5.702   1.711  -0.007  0.6272  0.5230  1.2833
11469TIP3    H255899   5.639   1.848  -0.014 -0.7801 -0.1660 -0.0433
11470TIP3   OH255900   6.296   4.775   0.708 -0.5964  0.1018 -0.5924
11470TIP3    H155901   6.372   4.728   0.672 -0.4220 -0.1863  0.1242
11470TIP3    H255902   6.321   4.867   0.704 -0.4348  0.0469 -0.8762
11471TIP3   OH255903   3.446   4.972  16.580  0.2324 -0.0481 -0.5655
11471TIP3    H155904   3.366   4.961  16.530  0.3641  0.2750 -0.8489
11471TIP3    H255905   3.425   4.939  16.667 -0.6838  1.4334 -0.1871
11472TIP3   OH255906   6.356   0.470   5.878 -0.2754 -0.6751  0.5963
11472TIP3    H155907   6.367   0.519   5.959 -0.2950  2.2884 -1.0633
11472TIP3    H255908   6.274   0.423   5.890 -1.2194  1.1210  1.6649
11473TIP3   OH255909   5.507   2.528  12.052  0.4903 -0.4639  0.3826
11473TIP3    H155910   5.549   2.613  12.038 -1.6879  0.4947 -0.8771
11473TIP3    H255911   5.535   2.502  12.140  0.5116  1.9874  1.1875
11474TIP3   OH255912   2.150   3.225  12.256  0.2677  0.4173 -0.1961
11474TIP3    H155913   2.081   3.276  12.299  1.0604  1.7404 -0.4556
11474TIP3    H255914   2.201   3.190  12.329 -0.2037  0.0789 -0.0196
11475TIP3   OH255915   4.327   2.747   2.787 -0.0122  0.3295  0.8365
11475TIP3    H155916   4.238   2.725   2.759  0.2608 -2.2904  1.7090
11475TIP3    H255917   4.315   2.797   2.868 -0.6806  1.4225  0.0813
11476TIP3   OH255918   2.555   2.054   6.752  0.1579  0.7592  0.0448
11476TIP3    H155919   2.607   2.115   6.804  1.7080  0.2618 -0.8818
11476TIP3    H255920   2.578   2.073   6.661  1.8830 -2.1302 -0.2604
11477TIP3   OH255921   0.280   3.357  15.612  0.4909 -0.1863 -0.0554
11477TIP3    H155922   0.318   3.274  15.642 -1.3520 -1.1694 -0.2916
11477TIP3    H255923   0.337   3.384  15.540  1.6369 -0.7794  0.6004
11478TIP3   OH255924   0.062   4.993   5.453 -0.4976  0.0500  0.0526
11478TIP3    H155925   0.011   5.057   5.403 -1.3469 -1.2793 -0.8441
11478TIP3    H255926   0.019   4.910   5.436 -0.3510 -0.5737  2.4055
11479TIP3   OH255927   3.896   2.185   3.617 -0.1100  0.1271  0.2261
11479TIP3    H155928   3.853   2.111   3.661  0.6991 -0.3070  0.3234
11479TIP3    H255929   3.887   2.166   3.524  0.4795 -0.3386  0.2552
11480TIP3   OH255930   2.877   4.928   4.145  0.6707  0.4892 -0.3014
11480TIP3    H155931   2.908   5.012   4.178 -1.0224  1.4807 -1.1118
11480TIP3    H255932   2.807   4.950   4.084  1.3876 -1.4499 -1.9157
11481TIP3   OH255933   0.593   2.402  13.071  0.3213 -1.0676 -0.2039
11481TIP3    H155934   0.623   2.439  12.989  0.3188 -1.4551 -0.3840
11481TIP3    H255935   0.518   2.348  13.047 -1.1238  0.6032  0.3634
11482TIP3   OH255936   3.021   2.769  15.548 -0.0231 -0.1298 -0.5282
11482TIP3    H155937   2.996   2.677  15.554 -1.1396  0.2177  0.4810
11482TIP3    H255938   2.940   2.814  15.523  0.6769  0.5130 -1.7286
11483TIP3   OH255939   3.079   3.715   4.205 -0.6740 -0.2987 -0.2039
11483TIP3    H155940   3.074   3.622   4.225 -1.7314 -1.0806 -3.3837
11483TIP3    H255941   3.095   3.718   4.110 -0.5098  2.7640 -0.1815
11484TIP3   OH255942   2.388   1.390  14.316 -0.0398  0.1824  0.3956
11484TIP3    H155943   2.335   1.461  14.352  0.7159  2.0257 -1.8719
11484TIP3    H255944   2.474   1.401  14.357  0.0951  0.6781  0.0025
11485TIP3   OH255945   6.385   6.366  12.612 -0.1480  0.4563 -0.2287
11485TIP3    H155946   6.348   6.288  12.570 -1.0085  0.6395  0.1644
11485TIP3    H255947   6.437   6.408  12.544 -0.3933  0.0072 -0.7001
11486TIP3   OH255948   1.648   3.459   4.383 -0.5017 -0.1675  0.0261
11486TIP3    H155949   1.717   3.422   4.328  0.7346 -0.2019  1.5191
11486TIP3    H255950   1.591   3.506   4.322  0.0488 -1.3031 -1.4303
11487TIP3   OH255951   3.776   2.834   5.937 -0.0438 -0.0156 -0.0479
11487TIP3    H155952   3.764   2.835   6.032 -0.1054  2.1430 -0.0242
11487TIP3    H255953   3.732   2.754   5.908  0.1182 -0.8009  1.7489
11488TIP3   OH255954   4.273   2.147  16.815  0.3955  0.1784  0.3802
11488TIP3    H155955   4.197   2.179  16.863  0.3813 -0.5665  0.8647
11488TIP3    H255956   4.279   2.055  16.838  0.9042  0.0141 -0.3782
11489TIP3   OH255957   6.524   6.173   1.743 -1.1374  0.0807 -0.5159
11489TIP3    H155958   6.573   6.189   1.662  0.2632 -0.4380  0.1952
11489TIP3    H255959   6.516   6.259   1.784 -0.2513  0.0999 -0.3524
11490TIP3   OH255960   4.112   6.272  12.546 -1.1924  0.5760  0.2219
11490TIP3    H155961   4.129   6.324  12.625 -2.9044  1.6933 -0.0845
11490TIP3    H255962   4.020   6.247  12.553 -0.9817 -0.5321 -0.7460
11491TIP3   OH255963   6.471   0.361   4.986 -0.0053  0.7560  0.3918
11491TIP3    H155964   6.507   0.381   4.899  1.6380  0.8732  1.0782
11491TIP3    H255965   6.407   0.431   5.002 -1.1035  0.1644 -1.1244
11492TIP3   OH255966   6.352   0.370  13.197  0.4935 -0.5219 -0.3729
11492TIP3    H155967   6.426   0.423  13.228  0.7150 -1.2507  0.4048
11492TIP3    H255968   6.359   0.289  13.247 -1.7725 -0.0150  0.9248
11493TIP3   OH255969   3.592   4.429  16.373 -0.7206  1.4476  0.2152
11493TIP3    H155970   3.588   4.354  16.432 -1.6529  1.5946  0.3442
11493TIP3    H255971   3.652   4.490  16.416 -0.0637  0.8441  0.1724
11494TIP3   OH255972   2.019   4.670   1.212 -0.4782 -0.0624 -0.4121
11494TIP3    H155973   1.936   4.700   1.249 -0.2807  1.6544 -1.2651
11494TIP3    H255974   2.024   4.713   1.127  2.1397  1.4203  0.3687
11495TIP3   OH255975   0.927   3.960  10.953  0.1235  0.4242 -1.2371
11495TIP3    H155976   1.020   3.949  10.972  0.0282  2.2015  0.6253
11495TIP3    H255977   0.925   4.020  10.878  0.4689  0.1562 -1.4638
11496TIP3   OH255978   0.983   5.603  11.895 -0.3797 -0.2602  0.2941
11496TIP3    H155979   0.930   5.590  11.973 -0.0245  0.2296  0.6263
11496TIP3    H255980   1.052   5.664  11.922  0.2008 -0.6784 -0.1944
11497TIP3   OH255981   0.425   5.993  12.525  0.4049  0.1226 -0.4801
11497TIP3    H155982   0.487   5.932  12.485  0.5858  0.7378 -1.1568
11497TIP3    H255983   0.340   5.950  12.514  0.6247 -0.4153 -0.1485
11498TIP3   OH255984   0.841   0.738   4.353  0.1122 -0.3826  0.0071
11498TIP3    H155985   0.789   0.731   4.273  0.0679  3.3432 -0.4662
11498TIP3    H255986   0.778   0.722   4.423 -0.7017 -0.1643 -0.6570
11499TIP3   OH255987   6.181   5.512  17.319  0.2478 -0.0681  0.6292
11499TIP3    H155988   6.106   5.466  17.357 -0.7082  1.6902  1.0206
11499TIP3    H255989   6.244   5.444  17.297 -0.3442 -1.3882  2.8018
11500TIP3   OH255990   0.423   4.974   2.235  0.6837 -0.8315  0.0664
11500TIP3    H155991   0.328   4.968   2.246  0.3054 -0.2669 -2.2339
11500TIP3    H255992   0.457   4.983   2.324 -1.5990  1.2595  0.8560
11501TIP3   OH255993   2.063   4.624   2.731  0.5091 -0.3797  0.0630
11501TIP3    H155994   1.980   4.583   2.754  0.3666 -1.1026 -1.5787
11501TIP3    H255995   2.129   4.560   2.755  0.5269 -0.1651  0.5825
11502TIP3   OH255996   2.300   6.519  12.489 -0.2977 -0.4897  0.6195
11502TIP3    H155997   2.222   6.575  12.477 -0.0840 -0.4811 -0.9533
11502TIP3    H255998   2.327   6.535  12.579 -0.8923  1.1313  0.5520
11503TIP3   OH255999   3.622   1.585   1.852 -0.1418 -0.3106 -0.2969
11503TIP3    H156000   3.717   1.588   1.866 -0.1724 -1.5832  0.3178
11503TIP3    H256001   3.585   1.604   1.939 -0.4153 -1.4300 -0.1549
11504TIP3   OH256002   2.463   3.428  11.522  0.1220  0.5535 -0.6153
11504TIP3    H156003   2.423   3.441  11.608 -0.6829  1.1068 -1.0634
11504TIP3    H256004   2.504   3.512  11.502  0.8694  0.2252 -0.4999
11505TIP3   OH256005   2.406   1.267   1.611 -0.1236  0.5010 -0.2277
11505TIP3    H156006   2.469   1.318   1.560  1.0488  1.3802  1.9922
11505TIP3    H256007   2.459   1.220   1.675 -1.5185 -0.7610  0.0622
11506TIP3   OH256008   6.262   5.386  13.634 -0.1278  0.1616 -0.0228
11506TIP3    H156009   6.357   5.394  13.627  0.0746 -0.2582  1.7431
11506TIP3    H256010   6.248   5.308  13.688 -1.5091 -0.0661 -0.6465
11507TIP3   OH256011   2.301   1.390   4.351  0.3265 -0.2401  0.8128
11507TIP3    H156012   2.284   1.415   4.442  0.2133  1.9320  0.2535
11507TIP3    H256013   2.236   1.439   4.300  1.8131  0.3804 -0.5784
11508TIP3   OH256014   1.667   2.871   0.391 -0.3484 -0.5777  0.3916
11508TIP3    H156015   1.726   2.795   0.386 -0.6937 -0.7704 -1.8377
11508TIP3    H256016   1.723   2.943   0.419  0.7907 -0.9335 -0.8732
11509TIP3   OH256017   6.032   2.587  13.886  0.4938  0.0132  0.6505
11509TIP3    H156018   6.078   2.631  13.957 -0.1818  0.9839  0.5060
11509TIP3    H256019   5.966   2.651  13.857  0.7259 -0.3750 -0.8061
11510TIP3   OH256020   5.505   6.674   1.298 -1.0244 -0.4964  0.2442
11510TIP3    H156021   5.570   6.686   1.367 -2.0440  2.3998  0.8258
11510TIP3    H256022   5.424   6.654   1.346 -1.5825  0.8191 -0.1265
11511TIP3   OH256023   4.294   0.156   5.043  0.0982  0.0900  0.1308
11511TIP3    H156024   4.320   0.068   5.070  1.2912  0.8618  1.6487
11511TIP3    H256025   4.225   0.181   5.105  0.2847  0.4867  0.1843
11512TIP3   OH256026   1.917   4.208   1.576 -0.6522  0.4180  0.4109
11512TIP3    H156027   1.971   4.221   1.497 -1.0739  3.1781  0.4655
11512TIP3    H256028   1.924   4.115   1.595  2.3176  0.2659 -0.8575
11513TIP3   OH256029   4.456   0.471  17.543  0.3956  0.0571 -0.4814
11513TIP3    H156030   4.361   0.476  17.560  0.7016 -1.4534  2.1410
11513TIP3    H256031   4.471   0.380  17.519  1.2792  0.1247 -0.1871
11514TIP3   OH256032   1.240   2.029   5.819 -0.2334  0.1678 -0.1874
11514TIP3    H156033   1.335   2.015   5.826 -0.4415 -1.6286 -0.4827
11514TIP3    H256034   1.231   2.117   5.782  1.2711  1.0662  1.4484
11515TIP3   OH256035   1.457   0.554   2.495  0.4118  0.0034 -0.3436
11515TIP3    H156036   1.511   0.513   2.429  0.8184  1.9466 -1.3078
11515TIP3    H256037   1.518   0.607   2.547 -0.0016 -0.9607  1.1976
11516TIP3   OH256038   1.101   0.231   3.838 -0.1298  0.0837 -1.2007
11516TIP3    H156039   1.142   0.317   3.843  1.4459 -0.7117  2.0012
11516TIP3    H256040   1.017   0.247   3.795  1.2148  2.6970 -3.1270
11517TIP3   OH256041   2.768   5.889   4.397 -0.1535 -0.6984 -0.2974
11517TIP3    H156042   2.811   5.809   4.368 -0.2576  0.0536 -2.7374
11517TIP3    H256043   2.696   5.902   4.335 -0.3479  1.0931  0.2415
11518TIP3   OH256044   5.603   6.138  15.308 -0.0033 -0.0599  0.3842
11518TIP3    H156045   5.656   6.200  15.259  0.4591 -1.1540 -0.5436
11518TIP3    H256046   5.665   6.094  15.367  0.3990 -2.0538 -1.4113
11519TIP3   OH256047   0.036   0.151  11.505 -0.0660 -0.1670 -0.0869
11519TIP3    H156048   0.063   0.081  11.564  0.3652  1.0412  1.1918
11519TIP3    H256049   0.050   0.115  11.418 -0.4274 -1.8885  0.5185
11520TIP3   OH256050   3.986   0.685   1.007 -0.0850 -0.0096  0.2869
11520TIP3    H156051   4.068   0.651   1.044  0.4711 -0.0941 -0.9642
11520TIP3    H256052   4.014   0.734   0.930 -1.2956 -0.8607 -0.7124
11521TIP3   OH256053   6.306   2.238  17.292  0.5646  0.1470  0.3665
11521TIP3    H156054   6.295   2.192  17.375  0.6631 -0.8361 -0.1527
11521TIP3    H256055   6.355   2.318  17.316  1.6762 -0.7106  1.0816
11522TIP3   OH256056   5.690   3.082  16.009 -0.0558 -0.0958 -0.5111
11522TIP3    H156057   5.603   3.116  15.988  0.4392  1.5966  0.0070
11522TIP3    H256058   5.689   3.068  16.104  1.0911  2.7679  0.0197
11523TIP3   OH256059   2.728   4.378   5.310 -0.1470  0.2105  0.2467
11523TIP3    H156060   2.676   4.403   5.234 -0.6822  0.3141  0.6454
11523TIP3    H256061   2.787   4.452   5.325  0.8824 -0.3368 -0.8503
11524TIP3   OH256062   5.707   4.558   3.635  0.1036  0.2309 -0.0139
11524TIP3    H156063   5.705   4.482   3.693 -0.1600 -0.5310 -1.0023
11524TIP3    H256064   5.772   4.536   3.569  0.0969  0.9185 -0.2580
11525TIP3   OH256065   2.423   3.873   5.784  0.0245 -0.0560  0.5097
11525TIP3    H156066   2.374   3.898   5.862  0.9691  0.6603  0.8966
11525TIP3    H256067   2.427   3.954   5.732  0.2264 -0.2760  0.1805
11526TIP3   OH256068   5.581   1.868  12.913 -0.3130 -0.1050 -0.9094
11526TIP3    H156069   5.539   1.913  12.840  0.5322  3.2438  0.4730
11526TIP3    H256070   5.640   1.805  12.872 -2.2252 -0.6577 -2.9695
11527TIP3   OH256071   4.805   6.113   2.143  0.4328 -0.1035 -0.4358
11527TIP3    H156072   4.792   6.019   2.126  0.5177 -0.9185  3.1192
11527TIP3    H256073   4.889   6.133   2.102  1.8848 -2.4443  1.1234
11528TIP3   OH256074   0.227   3.547  14.511  0.6659 -0.4689 -0.2366
11528TIP3    H156075   0.257   3.456  14.507  0.0309 -0.6384 -2.3656
11528TIP3    H256076   0.285   3.594  14.451  0.6655  0.4413  0.4550
11529TIP3   OH256077   2.013   4.395   4.708  0.1900 -0.0916 -0.2534
11529TIP3    H156078   2.084   4.410   4.771 -0.9871 -1.0742  1.3986
11529TIP3    H256079   1.934   4.421   4.755 -0.7050 -0.5109 -1.4811
11530TIP3   OH256080   0.255   5.699   0.735  0.1782  0.2836 -0.2752
11530TIP3    H156081   0.160   5.688   0.727 -0.0045  1.2444  0.3751
11530TIP3    H256082   0.275   5.663   0.822  0.0915  1.7671  0.4021
11531TIP3   OH256083   5.214   4.170   5.111 -0.0089  0.1763 -0.3680
11531TIP3    H156084   5.153   4.240   5.087  0.1274  0.4496  0.0637
11531TIP3    H256085   5.250   4.139   5.028 -0.4457  0.2788 -0.5967
11532TIP3   OH256086   1.310   1.566  16.988 -0.0756 -0.1807 -0.4818
11532TIP3    H156087   1.250   1.584  17.060  1.1456  2.2584  0.0286
11532TIP3    H256088   1.254   1.564  16.910 -0.9174  1.4795  0.0450
11533TIP3   OH256089   5.627   3.967  12.454  0.3584 -0.4785  0.3698
11533TIP3    H156090   5.702   4.022  12.479 -0.8312  1.0547  0.7142
11533TIP3    H256091   5.611   3.912  12.531 -0.0257  0.5334  1.0377
11534TIP3   OH256092   4.683   5.492   4.574  0.6767  0.2009 -0.0337
11534TIP3    H156093   4.654   5.402   4.561 -1.8312  0.6666  1.7604
11534TIP3    H256094   4.617   5.545   4.529  0.9465  1.2101  0.7247
11535TIP3   OH256095   0.132   0.061  14.476 -0.2799 -0.0674  0.4222
11535TIP3    H156096   0.187  -0.011  14.507 -1.0574 -0.6043  0.5653
11535TIP3    H256097   0.125   0.046  14.381 -0.8337 -0.4588  0.5218
11536TIP3   OH256098   6.098   0.442   2.724  0.3055 -0.4088 -0.6719
11536TIP3    H156099   6.104   0.533   2.694  2.8530  0.1323  1.1227
11536TIP3    H256100   6.159   0.394   2.668  0.5556 -0.5871 -0.2515
11537TIP3   OH256101   5.325   2.043  13.228 -0.1569 -0.8015  0.1693
11537TIP3    H156102   5.381   2.118  13.249 -0.8045 -1.0257  3.0906
11537TIP3    H256103   5.237   2.079  13.221 -0.1331 -0.9449 -0.9576
11538TIP3   OH256104   3.775   2.466  14.315 -0.3373  0.0696  0.0141
11538TIP3    H156105   3.813   2.533  14.371  0.8010 -0.3325 -0.2377
11538TIP3    H256106   3.814   2.384  14.345  0.6463 -0.1089 -1.5964
11539TIP3   OH256107   0.683   1.769   1.716  0.2476 -0.0345 -0.2803
11539TIP3    H156108   0.666   1.705   1.648  0.2588 -0.3880  0.0428
11539TIP3    H256109   0.752   1.729   1.770 -0.5175 -0.2532  0.5728
11540TIP3   OH256110   1.540   1.791   4.737 -0.3286 -0.4994  0.4932
11540TIP3    H156111   1.506   1.755   4.819 -0.6932  0.8334  0.9570
11540TIP3    H256112   1.612   1.733   4.714 -0.7245 -1.3635  1.3322
11541TIP3   OH256113   5.365   4.625  12.078  0.1504 -0.2808 -0.3972
11541TIP3    H156114   5.456   4.600  12.092  0.0695 -1.1050 -1.2468
11541TIP3    H256115   5.318   4.541  12.070 -0.4640  0.1366 -1.2988
11542TIP3   OH256116   2.949   4.490   5.924 -0.4766  0.1872 -0.0180
11542TIP3    H156117   3.018   4.426   5.941 -1.0150 -0.4166 -0.0571
11542TIP3    H256118   2.887   4.478   5.996 -0.8404  0.3090 -0.3075
11543TIP3   OH256119   3.519   3.898   0.708  1.2424  0.4907 -0.2379
11543TIP3    H156120   3.457   3.867   0.775 -1.3392 -0.3395 -2.8181
11543TIP3    H256121   3.605   3.872   0.741  0.0495 -0.5014  2.3951
11544TIP3   OH256122   5.723   2.679   1.865  0.1002  0.1423 -0.1227
11544TIP3    H156123   5.733   2.589   1.899 -0.2781 -1.0633 -2.9428
11544TIP3    H256124   5.798   2.691   1.806  1.0919  2.4023  1.4311
11545TIP3   OH256125   1.839   0.421   0.986 -0.0707  0.1313 -0.5933
11545TIP3    H156126   1.823   0.361   1.059 -1.7346 -1.6612 -2.3194
11545TIP3    H256127   1.880   0.497   1.027  0.0482 -1.2159  2.0398
11546TIP3   OH256128   5.259   5.415   2.072 -0.4882 -0.2859 -0.0178
11546TIP3    H156129   5.216   5.390   1.991 -0.6244 -0.4658  0.1077
11546TIP3    H256130   5.191   5.406   2.139 -1.0224  1.9514 -0.1644
11547TIP3   OH256131   1.676   0.550   3.081 -0.3000  0.5061 -0.0392
11547TIP3    H156132   1.769   0.528   3.089 -0.7810 -0.9677  2.7593
11547TIP3    H256133   1.671   0.642   3.106  0.2703  0.1552  1.4702
11548TIP3   OH256134   4.469   2.086   0.511  0.4173  0.2605 -0.0821
11548TIP3    H156135   4.504   2.002   0.481 -1.8167 -0.3846 -1.1283
11548TIP3    H256136   4.486   2.086   0.606 -1.9037 -2.7299  0.4939
11549TIP3   OH256137   6.150   3.823   5.500 -0.0736 -0.3541  0.5068
11549TIP3    H156138   6.073   3.826   5.556 -0.7314  0.6892 -0.4236
11549TIP3    H256139   6.127   3.762   5.430 -0.6620  1.0797 -0.5947
11550TIP3   OH256140   4.128   3.784  13.862  0.0240 -0.0314 -0.4585
11550TIP3    H156141   4.111   3.793  13.768 -4.2495 -1.0887  0.0087
11550TIP3    H256142   4.097   3.866  13.901 -3.0352 -1.4160  0.3271
11551TIP3   OH256143   4.980   1.988  16.021 -0.4116  0.3935  0.2946
11551TIP3    H156144   5.037   1.911  16.023 -1.2045 -0.2604 -1.0056
11551TIP3    H256145   5.026   2.054  16.073 -0.1395 -1.2327  2.2665
11552TIP3   OH256146   1.999   6.465  10.625  0.0884 -0.0466  0.1899
11552TIP3    H156147   1.969   6.404  10.692 -2.4515  1.0296  0.1592
11552TIP3    H256148   2.022   6.410  10.551 -1.5100 -1.0349  0.3853
11553TIP3   OH256149   3.558   2.991  17.379 -0.2045 -0.5528 -0.2684
11553TIP3    H156150   3.564   2.896  17.379 -0.8828 -0.6095  0.9221
11553TIP3    H256151   3.471   3.010  17.415  0.1135  0.5226 -0.0322
11554TIP3   OH256152   1.039   5.373  11.221 -0.5750  0.7095 -0.3121
11554TIP3    H156153   1.000   5.398  11.137 -0.3531  0.5812 -0.4532
11554TIP3    H256154   1.099   5.445  11.242  0.2173  0.2174 -0.8180
11555TIP3   OH256155   0.468   1.627  11.788  0.2331  0.2581 -0.2385
11555TIP3    H156156   0.410   1.703  11.800  1.5143  1.8588 -3.0363
11555TIP3    H256157   0.461   1.607  11.695  1.5938 -1.7137  0.0279
11556TIP3   OH256158   3.750   2.250   1.559  0.2311  0.2316  0.6182
11556TIP3    H156159   3.820   2.216   1.616  0.0883  0.6942  1.0789
11556TIP3    H256160   3.687   2.179   1.554  0.8016 -0.2467  0.0810
11557TIP3   OH256161   0.982   4.400   4.089 -0.3542 -0.6544  0.6192
11557TIP3    H156162   1.014   4.483   4.053 -1.2796  0.5656  2.4553
11557TIP3    H256163   0.920   4.368   4.023  3.0422 -2.1702 -2.1394
11558TIP3   OH256164   2.029   4.881  14.685 -0.0966  0.3352 -0.2199
11558TIP3    H156165   1.975   4.823  14.739 -2.1681  0.6465 -1.8743
11558TIP3    H256166   2.020   4.967  14.726 -0.2008  0.2359 -0.0320
11559TIP3   OH256167   0.388   3.029  10.841  0.0363 -0.5889 -0.1273
11559TIP3    H156168   0.348   2.967  10.903 -0.1793 -2.0376 -1.6370
11559TIP3    H256169   0.316   3.085  10.813 -0.0215 -0.4185  0.3569
11560TIP3   OH256170   6.019   0.512  16.530  0.3385  0.1698  0.0072
11560TIP3    H156171   6.108   0.490  16.558 -0.2392 -0.8309  1.1548
11560TIP3    H256172   5.968   0.514  16.610 -1.0944 -1.4001 -0.7852
11561TIP3   OH256173   0.752   4.240  12.868 -0.6629 -0.4693  0.3414
11561TIP3    H156174   0.675   4.297  12.874 -0.9748 -0.7617 -0.6484
11561TIP3    H256175   0.727   4.162  12.917 -0.6597 -0.2087  0.7633
11562TIP3   OH256176   1.224   0.283   1.121  0.4289  0.3646 -0.5848
11562TIP3    H156177   1.222   0.193   1.090 -1.3644  0.4832 -0.9649
11562TIP3    H256178   1.204   0.277   1.214  1.1394  0.3212 -0.4323
11563TIP3   OH256179   1.465   2.792   4.483 -0.4976 -0.8250  0.5331
11563TIP3    H156180   1.553   2.829   4.494 -0.6549 -0.4046  0.4197
11563TIP3    H256181   1.452   2.737   4.560 -0.3723 -0.3983  0.8640
11564TIP3   OH256182   3.994   6.611   1.403 -0.5451  0.0457 -0.5558
11564TIP3    H156183   3.967   6.599   1.312 -1.8081  0.9591 -0.3322
11564TIP3    H256184   3.959   6.697   1.428 -0.8452 -0.4843  0.9993
11565TIP3   OH256185   0.026   1.356  15.886  0.6185 -0.2538 -0.1321
11565TIP3    H156186   0.014   1.378  15.794 -0.6707 -0.6830 -0.0904
11565TIP3    H256187   0.087   1.283  15.886  0.0790 -0.7168 -0.7152
11566TIP3   OH256188   2.662   5.699  16.662  0.0843 -0.4264  0.0113
11566TIP3    H156189   2.713   5.741  16.592 -0.7371 -0.1603 -0.4425
11566TIP3    H256190   2.580   5.675  16.620  0.0530 -1.3588  0.5938
11567TIP3   OH256191   4.451   5.134   5.457 -0.2988 -0.2317 -0.0319
11567TIP3    H156192   4.546   5.128   5.465 -0.3291 -0.4470  0.2408
11567TIP3    H256193   4.423   5.174   5.540 -0.4445 -0.1709 -0.1110
11568TIP3   OH256194   4.725   4.663   0.557  0.2753  0.1407  0.6391
11568TIP3    H156195   4.786   4.653   0.484 -1.2905 -0.8954 -0.5893
11568TIP3    H256196   4.710   4.574   0.589  1.1803  0.5957  2.5042
11569TIP3   OH256197   2.145   1.845   0.487 -0.1291 -0.2567 -0.2575
11569TIP3    H156198   2.055   1.858   0.519 -1.7113 -0.7565 -3.9653
11569TIP3    H256199   2.160   1.920   0.429  1.9520 -0.1710  0.3137
11570TIP3   OH256200   1.614   4.744  17.199 -0.4870  0.3534 -0.0741
11570TIP3    H156201   1.593   4.651  17.199  0.0834  0.2202  0.2289
11570TIP3    H256202   1.681   4.754  17.131 -0.5803  0.5487 -0.1387
11571TIP3   OH256203   3.324   0.510  14.420  0.3658 -0.3155 -0.4535
11571TIP3    H156204   3.300   0.418  14.419 -0.5015 -0.0951 -2.0958
11571TIP3    H256205   3.301   0.543  14.333 -0.0477  1.6351  0.3385
11572TIP3   OH256206   0.361   1.960   4.923 -0.0678  0.1917 -0.1065
11572TIP3    H156207   0.380   1.940   5.014 -0.6608 -0.4102 -0.1019
11572TIP3    H256208   0.405   1.890   4.874  2.7419  2.0931 -0.5222
11573TIP3   OH256209   3.615   6.513  12.647  0.1266  0.4290 -0.5288
11573TIP3    H156210   3.555   6.483  12.716  0.2398  1.0185 -0.1643
11573TIP3    H256211   3.702   6.499  12.683  0.2010  0.0274 -0.8637
11574TIP3   OH256212   4.749   4.955   5.188  0.4169 -0.4832  0.4182
11574TIP3    H156213   4.799   5.030   5.220  0.9468  0.7891 -3.0440
11574TIP3    H256214   4.659   4.985   5.186  0.3824 -0.5680  0.5871
11575TIP3   OH256215   3.961   1.454   0.565  0.1426  0.2071 -0.0619
11575TIP3    H156216   3.899   1.503   0.619  0.0000  0.2776 -0.2879
11575TIP3    H256217   4.037   1.513   0.556  0.1747  0.1876  0.0750
11576TIP3   OH256218   2.425   0.818   4.641  0.0368 -0.0490  0.0085
11576TIP3    H156219   2.521   0.809   4.636 -0.1511 -1.5772 -2.1631
11576TIP3    H256220   2.406   0.894   4.586  0.0516  1.0378  1.4541
11577TIP3   OH256221   2.599   1.413   3.922  0.3679  0.5553  0.2002
11577TIP3    H156222   2.543   1.393   3.997 -0.2573 -0.1186 -0.4424
11577TIP3    H256223   2.686   1.421   3.960  0.1665 -0.4104  0.9150
11578TIP3   OH256224   1.670   0.570  14.683  0.8330 -0.0143  0.0449
11578TIP3    H156225   1.629   0.494  14.723 -0.6735 -0.5746 -2.3014
11578TIP3    H256226   1.763   0.552  14.685  0.5675 -1.4812  0.3781
11579TIP3   OH256227   1.283   1.053  16.176  0.3989  0.6415 -0.3211
11579TIP3    H156228   1.283   1.014  16.264 -0.1043  1.2121 -0.0554
11579TIP3    H256229   1.229   1.132  16.185 -1.5616 -0.4572 -1.6697
11580TIP3   OH256230   5.727   5.364  15.265  0.0440  0.6071  0.2587
11580TIP3    H156231   5.811   5.381  15.222  0.5916  1.8350  1.7250
11580TIP3    H256232   5.677   5.445  15.251 -0.3656  0.4077  0.5704
11581TIP3   OH256233   0.418   5.679   4.860  0.3880  0.0522 -0.1057
11581TIP3    H156234   0.439   5.714   4.773  0.4547  0.3422  0.0250
11581TIP3    H256235   0.444   5.588   4.857  0.7073  0.1507 -0.2791
11582TIP3   OH256236   0.192   1.074   4.243 -0.2443  0.1361  0.2217
11582TIP3    H156237   0.276   1.104   4.208 -0.5715 -0.8278 -1.4827
11582TIP3    H256238   0.127   1.129   4.199 -0.5821  0.0342  0.5867
11583TIP3   OH256239   1.348   5.392   2.713  0.0384 -0.3174 -0.0701
11583TIP3    H156240   1.298   5.431   2.641 -1.5459 -0.9437  0.6382
11583TIP3    H256241   1.402   5.325   2.672  1.5051  1.3749 -1.0668
11584TIP3   OH256242   4.161   3.996   0.581 -0.3906 -0.4378 -0.0847
11584TIP3    H156243   4.143   3.944   0.659  0.7325 -0.0473  0.4555
11584TIP3    H256244   4.211   3.938   0.524 -2.5149 -1.2511 -1.2349
11585TIP3   OH256245   6.579   3.709  13.684  0.3699  0.3542 -0.0639
11585TIP3    H156246   6.522   3.750  13.748  0.8290 -0.4955  0.9156
11585TIP3    H256247   6.574   3.615  13.704  1.1617  0.1554 -0.7402
11586TIP3   OH256248   6.540   4.820  17.171  0.3634 -0.3144  0.0693
11586TIP3    H156249   6.498   4.801  17.255 -0.5503 -0.2257 -0.3490
11586TIP3    H256250   6.602   4.748  17.158  1.4581  0.3436  1.4059
11587TIP3   OH256251   4.902   5.899   5.887  0.7157 -0.4684  0.2919
11587TIP3    H156252   4.873   5.820   5.842  0.6251 -0.2244 -0.0875
11587TIP3    H256253   4.951   5.948   5.820  2.0516 -0.8914  0.9194
11588TIP3   OH256254   1.645   3.673  12.649 -0.0985  0.2268 -0.1650
11588TIP3    H156255   1.710   3.697  12.584  0.1537  2.0796  0.7216
11588TIP3    H256256   1.592   3.605  12.606  0.8117  0.5267 -1.8271
11589TIP3   OH256257   3.011   0.002   2.376  0.5245 -0.2478 -0.5741
11589TIP3    H156258   3.021  -0.054   2.453 -0.3009 -0.1221 -0.3745
11589TIP3    H256259   2.948  -0.044   2.321 -1.2474  1.1277  0.2221
11590TIP3   OH256260   2.475   2.020   4.122  0.6376  0.0585 -0.3593
11590TIP3    H156261   2.384   1.993   4.110  0.5217  0.5595 -0.6569
11590TIP3    H256262   2.474   2.074   4.200  0.4280  1.1558 -1.0950
11591TIP3   OH256263   1.169   4.913  12.724  0.7569  0.0364 -0.3650
11591TIP3    H156264   1.228   4.839  12.742  0.2418 -1.5303 -4.1300
11591TIP3    H256265   1.150   4.906  12.630 -1.0801  3.7524 -0.4461
11592TIP3   OH256266   1.922   5.982   3.364  0.7285  0.4867  0.3230
11592TIP3    H156267   1.984   6.028   3.308  0.3399  0.3835 -0.2010
11592TIP3    H256268   1.855   5.949   3.304 -0.5003  1.6427  0.9883
11593TIP3   OH256269   1.176   1.416  17.321  0.0517  0.7730 -0.1916
11593TIP3    H156270   1.123   1.465  17.258  2.2165  0.2249 -2.6361
11593TIP3    H256271   1.166   1.325  17.294  1.6990  0.6146 -0.3466
11594TIP3   OH256272   0.553   2.072  13.870  0.2679 -0.7646  0.2831
11594TIP3    H156273   0.543   2.130  13.795 -0.8313  0.4203  1.2957
11594TIP3    H256274   0.496   1.997  13.851  0.0327 -0.4924 -0.0863
11595TIP3   OH256275   1.651   2.940   4.060 -0.3840 -0.2938 -0.2750
11595TIP3    H156276   1.719   2.981   4.113 -0.6297 -1.6177  1.1326
11595TIP3    H256277   1.574   2.995   4.073  0.3192  1.1308 -1.7646
11596TIP3   OH256278   1.401   2.934   0.462 -0.1541  0.1125 -0.1026
11596TIP3    H156279   1.388   2.984   0.381  1.9314 -0.0207 -0.5834
11596TIP3    H256280   1.492   2.904   0.457 -0.8133 -2.3271  0.9521
11597TIP3   OH256281   1.450   6.435  17.222  0.5767  0.4759 -0.4070
11597TIP3    H156282   1.451   6.462  17.314  1.4239 -1.4243  0.1795
11597TIP3    H256283   1.542   6.428  17.197  0.5456 -3.0310 -0.0780
11598TIP3   OH256284   0.558   6.694  15.650 -0.1054  0.4705  0.5052
11598TIP3    H156285   0.506   6.641  15.589  1.3421  0.6389 -0.9392
11598TIP3    H256286   0.515   6.682  15.734 -2.3494  0.4389 -0.5658
11599TIP3   OH256287   4.576   0.772   3.402  0.8070 -0.0727 -0.5684
11599TIP3    H156288   4.506   0.731   3.452  1.3684 -0.3587 -0.0049
11599TIP3    H256289   4.618   0.832   3.464 -0.0916  1.4879 -1.4097
11600TIP3   OH256290   0.554   6.425  17.448  0.2339 -0.0584  0.1996
11600TIP3    H156291   0.497   6.371  17.504  0.8636 -2.4542 -1.3212
11600TIP3    H256292   0.514   6.420  17.361  0.1765  2.2411  0.0266
11601TIP3   OH256293   4.511   5.102  14.713 -0.1059  0.2384  0.2002
11601TIP3    H156294   4.420   5.084  14.737 -0.1843 -1.0771 -0.9202
11601TIP3    H256295   4.562   5.046  14.771  0.1218  1.9932  1.7899
11602TIP3   OH256296   1.429   3.532   0.397  0.1533  0.2796 -0.0985
11602TIP3    H156297   1.519   3.515   0.368  0.3508 -0.9084  1.0678
11602TIP3    H256298   1.416   3.470   0.469 -2.0710 -0.4953 -1.1048
11603TIP3   OH256299   0.819   2.107   4.420  0.0293  0.1104 -0.7207
11603TIP3    H156300   0.814   2.165   4.496  1.8835  1.1082 -1.2885
11603TIP3    H256301   0.747   2.135   4.364 -1.3884 -0.6603  0.6301
11604TIP3   OH256302   5.010   6.546  17.516 -0.4760 -0.8233 -0.8285
11604TIP3    H156303   4.968   6.564  17.432  0.7551 -0.0950 -1.3205
11604TIP3    H256304   5.003   6.451  17.526 -3.0375 -0.6478 -0.4111
11605TIP3   OH256305   2.929   2.694   6.180  0.3011 -0.6078 -0.4900
11605TIP3    H156306   2.875   2.715   6.104  1.3696  0.0467 -1.1058
11605TIP3    H256307   2.960   2.605   6.163 -0.4563 -0.9254 -0.2091
11606TIP3   OH256308   5.603   0.658   1.014  0.6528 -0.0551 -0.4001
11606TIP3    H156309   5.547   0.580   1.016 -0.3021  0.6236 -0.1627
11606TIP3    H256310   5.609   0.680   0.921 -0.1556  0.3403 -0.3660
11607TIP3   OH256311   0.539   5.866  12.175  0.2370  0.6055  0.3933
11607TIP3    H156312   0.446   5.863  12.152  0.0696  1.7375  0.8684
11607TIP3    H256313   0.584   5.882  12.092  0.2756 -2.5211 -0.3145
11608TIP3   OH256314   6.582   0.280   3.991  0.5114  0.3379  0.4245
11608TIP3    H156315   6.537   0.361   4.017  0.1860  0.2667  0.0912
11608TIP3    H256316   6.629   0.303   3.911  1.8734  0.6763  1.2903
11609TIP3   OH256317   1.695   1.122   1.208 -0.6772 -0.5963 -0.1986
11609TIP3    H156318   1.625   1.071   1.249 -0.9726 -1.1619 -1.3728
11609TIP3    H256319   1.775   1.085   1.244 -0.9398 -0.5960  0.4097
11610TIP3   OH256320   4.953   2.692  15.689  0.0535  0.1648  0.0393
11610TIP3    H156321   5.019   2.729  15.630  0.6089  0.5127  0.8590
11610TIP3    H256322   4.985   2.604  15.709  0.0613  0.1824  0.1051
11611TIP3   OH256323   6.159   0.833   1.632  0.3317 -0.4735 -0.2818
11611TIP3    H156324   6.167   0.927   1.616  0.2588 -0.6336 -1.3621
11611TIP3    H256325   6.248   0.799   1.621  0.1812 -0.6694 -0.9942
11612TIP3   OH256326   0.525   1.384  12.130 -0.0711  0.3143  0.0117
11612TIP3    H156327   0.553   1.301  12.090 -0.3437  0.4470 -0.4656
11612TIP3    H256328   0.528   1.367  12.224 -0.0568 -0.2182 -0.0776
11613TIP3   OH256329   0.073   0.124   1.111 -0.2343  0.7682  0.3521
11613TIP3    H156330   0.161   0.139   1.145  0.3866  0.2520 -0.9514
11613TIP3    H256331   0.073   0.166   1.025 -0.3211 -1.5580 -0.8826
11614TIP3   OH256332   5.964   1.090  10.945 -0.0912 -0.5111  0.4203
11614TIP3    H156333   5.984   1.141  10.866 -2.1535  0.4439  0.4493
11614TIP3    H256334   6.020   1.129  11.012 -1.2868  1.5370  0.3363
11615TIP3   OH256335   6.656   2.945  13.632  0.2476  0.2397  0.1552
11615TIP3    H156336   6.606   2.869  13.662 -0.4179  0.3913 -0.5444
11615TIP3    H256337   6.713   2.910  13.563 -0.4281  0.4529 -0.5297
11616TIP3   OH256338   1.846   1.594   4.056 -0.0263 -0.1390  0.1482
11616TIP3    H156339   1.792   1.664   4.019  2.4012  0.8010 -1.8886
11616TIP3    H256340   1.808   1.513   4.021 -0.6917  0.4146 -0.4340
11617TIP3   OH256341   2.982   4.486  16.619 -0.1977  0.3319  0.0262
11617TIP3    H156342   2.894   4.455  16.601  0.3337 -3.2100  2.5445
11617TIP3    H256343   3.039   4.426  16.571  0.8866  1.2018  0.1856
11618TIP3   OH256344   1.741   1.225  13.356  0.0443 -0.2120 -0.1906
11618TIP3    H156345   1.737   1.187  13.444 -2.5306  1.4252  0.5137
11618TIP3    H256346   1.801   1.298  13.364 -2.3984  1.8204  1.1641
11619TIP3   OH256347   3.013   5.924  17.446  0.6956  0.0197 -0.1566
11619TIP3    H156348   2.944   5.858  17.447 -0.8120  1.4787 -0.9392
11619TIP3    H256349   3.065   5.904  17.368 -0.6068  0.5207 -1.1967
11620TIP3   OH256350   4.741   3.256   1.749 -0.0461 -0.6424 -0.2358
11620TIP3    H156351   4.781   3.306   1.677 -0.2278 -0.0992  0.0294
11620TIP3    H256352   4.793   3.279   1.825 -0.6190 -0.2186  0.0410
11621TIP3   OH256353   1.282   0.126  16.532 -0.7759 -0.3550 -0.3061
11621TIP3    H156354   1.336   0.200  16.559 -1.2133 -0.1795  0.0943
11621TIP3    H256355   1.193   0.150  16.557 -0.8809 -1.1541  0.1170
11622TIP3   OH256356   5.591   1.156   3.304 -0.3697 -0.2899 -0.1780
11622TIP3    H156357   5.549   1.217   3.364 -0.7942  0.8417 -1.5759
11622TIP3    H256358   5.591   1.072   3.351 -1.6147  0.3179  0.9667
11623TIP3   OH256359   3.998   4.402   6.829  0.0643 -0.1722  0.1821
11623TIP3    H156360   4.023   4.362   6.912  2.2793 -1.9674 -1.1960
11623TIP3    H256361   4.067   4.466   6.812  0.3847 -0.7580 -0.8290
11624TIP3   OH256362   4.795   5.385   2.977 -0.1781  0.0721  0.2314
11624TIP3    H156363   4.705   5.399   2.947 -0.0816  3.4966  1.1253
11624TIP3    H256364   4.792   5.404   3.071  1.0251 -2.5783  0.8997
11625TIP3   OH256365   3.024   4.342   1.255  0.0252  0.5169 -0.2945
11625TIP3    H156366   2.938   4.346   1.297  0.8030  0.3787  1.3871
11625TIP3    H256367   3.062   4.429   1.270  0.7358  0.1204  0.2364
11626TIP3   OH256368   0.045   2.126   5.521  0.2926  0.2012  0.4249
11626TIP3    H156369  -0.001   2.204   5.554 -0.0985  0.1505  0.0062
11626TIP3    H256370  -0.014   2.054   5.540 -0.8312  0.3696 -2.0390
11627TIP3   OH256371   1.348   3.649  15.404  0.1765 -0.2998  0.0192
11627TIP3    H156372   1.380   3.739  15.396  1.2859 -0.8302 -2.5298
11627TIP3    H256373   1.274   3.644  15.343 -0.7395 -0.8097  1.1250
11628TIP3   OH256374   2.102   4.971   0.467 -0.0789  0.8087  0.1310
11628TIP3    H156375   2.078   4.890   0.513  0.3019 -1.8153 -3.7799
11628TIP3    H256376   2.026   4.992   0.414 -0.0754  2.9789  0.9096
11629TIP3   OH256377   2.873   1.117   3.744  1.0774  0.6076  0.0891
11629TIP3    H156378   2.857   1.210   3.727  1.4651  0.6271 -0.1808
11629TIP3    H256379   2.915   1.085   3.664  2.7225  0.6360  0.9105
11630TIP3   OH256380   5.070   0.222  15.416 -0.2676  1.0912 -0.0854
11630TIP3    H156381   5.129   0.186  15.349 -2.2480 -0.8100 -0.9434
11630TIP3    H256382   5.127   0.238  15.491  1.3828 -0.5089 -0.8940
11631TIP3   OH256383   1.035   4.400   2.895 -0.6798  0.1638 -0.1211
11631TIP3    H156384   1.068   4.341   2.962 -1.0033 -0.9853 -0.9529
11631TIP3    H256385   0.962   4.353   2.855 -0.0640  0.5059 -1.7481
11632TIP3   OH256386   1.435   2.488   1.190 -0.1272 -0.1996 -0.6740
11632TIP3    H156387   1.398   2.450   1.270  0.3158  1.7063  0.5027
11632TIP3    H256388   1.378   2.563   1.171  0.8083  0.4241 -1.0882
11633TIP3   OH256389   4.745   4.238  14.548 -0.5917  0.0925 -0.3403
11633TIP3    H156390   4.808   4.240  14.620  0.7679 -0.6822 -1.4706
11633TIP3    H256391   4.660   4.256  14.590  0.0141 -1.3053  1.6112
11634TIP3   OH256392   0.375   2.780  15.545  0.4645  0.3743 -0.4154
11634TIP3    H156393   0.333   2.696  15.564  2.3972 -0.4556  0.4482
11634TIP3    H256394   0.364   2.791  15.450 -0.9314 -0.1936 -0.3429
11635TIP3   OH256395   4.505   4.796   1.153 -0.3356 -0.6372 -0.7471
11635TIP3    H156396   4.433   4.859   1.156  2.3953  2.7598  0.0241
11635TIP3    H256397   4.534   4.796   1.061  0.5620  0.4577 -0.4889
11636TIP3   OH256398   4.365   0.149  15.178 -0.1791 -0.0794  0.4128
11636TIP3    H156399   4.302   0.198  15.125 -1.8629 -3.2821 -0.8029
11636TIP3    H256400   4.324   0.141  15.263 -2.2236 -3.2500 -0.7324
11637TIP3   OH256401   1.688   3.561   3.674 -0.2513  0.1128  0.1621
11637TIP3    H156402   1.595   3.569   3.696 -0.0044 -0.7444  1.7204
11637TIP3    H256403   1.732   3.622   3.734  0.3325 -1.0784  0.9951
11638TIP3   OH256404   1.351   1.694   5.854 -0.2977 -0.2801  0.4803
11638TIP3    H156405   1.306   1.776   5.832 -0.6049 -0.4900  0.3234
11638TIP3    H256406   1.293   1.650   5.916 -0.7052 -0.9377 -0.3615
11639TIP3   OH256407   0.752   1.290   6.128  0.4768 -0.0992  0.4085
11639TIP3    H156408   0.822   1.260   6.186  0.0866 -0.1705  0.8460
11639TIP3    H256409   0.718   1.368   6.172  0.6053  0.2180 -0.0515
11640TIP3   OH256410   4.640   1.811  17.561 -0.1470 -0.3870 -0.2014
11640TIP3    H156411   4.666   1.897  17.528 -1.5642  0.3196  0.4338
11640TIP3    H256412   4.597   1.769  17.486 -0.1924 -0.2096 -0.2765
11641TIP3   OH256413   5.859   6.289  12.680 -0.7348  0.5049  0.4045
11641TIP3    H156414   5.864   6.269  12.774 -0.8435 -1.8297 -0.0287
11641TIP3    H256415   5.855   6.204  12.637 -2.7626  1.5134 -1.6351
11642TIP3   OH256416   5.237   0.957  15.904  0.1183 -0.0183  0.5820
11642TIP3    H156417   5.178   0.900  15.953  0.4755 -1.2593 -0.3858
11642TIP3    H256418   5.296   0.992  15.971  0.4582 -1.4957  1.0954
11643TIP3   OH256419   2.983   2.133   6.197  0.0937  0.2451 -0.2872
11643TIP3    H156420   3.060   2.174   6.235 -1.5381  3.6209 -0.2305
11643TIP3    H256421   3.010   2.106   6.109  1.2940  1.5162 -0.3309
11644TIP3   OH256422   6.004   4.038   2.295  0.2847  0.2103  0.5375
11644TIP3    H156423   5.945   3.977   2.251  1.3085  0.6602 -1.5894
11644TIP3    H256424   5.959   4.122   2.290 -1.1587 -0.2704  3.5328
11645TIP3   OH256425   3.411   1.109   5.482 -0.9692 -0.2918 -0.0290
11645TIP3    H156426   3.321   1.129   5.457 -0.1347  1.9546 -1.5650
11645TIP3    H256427   3.460   1.111   5.399  0.6664 -0.3872  0.8973
11646TIP3   OH256428   2.882   2.054  12.627  0.3250  0.1444 -0.2450
11646TIP3    H156429   2.950   2.035  12.692 -0.3624 -2.2725 -0.1431
11646TIP3    H256430   2.835   1.971  12.617 -1.8629  1.4262 -1.1930
11647TIP3   OH256431   1.151   4.174   4.093 -0.2471 -0.4842  0.0697
11647TIP3    H156432   1.084   4.242   4.100 -0.4547 -0.3428 -2.4246
11647TIP3    H256433   1.217   4.199   4.158 -0.3471  2.1129 -0.6943
11648TIP3   OH256434   6.089   4.828  11.402  0.0036 -0.0313  0.7560
11648TIP3    H156435   6.176   4.867  11.408  0.9268 -0.9672 -3.3162
11648TIP3    H256436   6.030   4.902  11.391  0.5945  0.5190  1.2015
11649TIP3   OH256437   4.686   6.185   5.885 -0.2905  0.3550  0.1156
11649TIP3    H156438   4.773   6.176   5.925 -0.8475 -2.8847  0.9018
11649TIP3    H256439   4.698   6.156   5.795 -0.7530 -1.6353  0.6412
11650TIP3   OH256440   0.690   5.700   1.720  0.2542  0.0562  0.6596
11650TIP3    H156441   0.619   5.642   1.692  0.1947  1.2777 -1.9721
11650TIP3    H256442   0.744   5.711   1.642  1.0435  2.4271  1.4607
11651TIP3   OH256443   0.375   5.192  15.790 -0.1204 -0.2933 -0.6735
11651TIP3    H156444   0.323   5.134  15.846  0.1969  0.3497  0.3140
11651TIP3    H256445   0.465   5.176  15.818  0.3234 -1.7486 -2.6834
11652TIP3   OH256446   5.502   5.083  17.315  0.0183 -0.0506 -0.3436
11652TIP3    H156447   5.421   5.088  17.366  0.7581  2.3044  0.7277
11652TIP3    H256448   5.497   4.998  17.271 -2.5712 -0.3871  0.4276
11653TIP3   OH256449   2.917   0.261   4.498  0.3717 -0.4211 -0.3611
11653TIP3    H156450   2.855   0.250   4.426  0.7238  1.1262 -0.9297
11653TIP3    H256451   2.866   0.243   4.577 -0.5732 -0.0241 -0.8711
11654TIP3   OH256452   3.254   0.222   1.036 -0.3192 -0.8631  0.6098
11654TIP3    H156453   3.174   0.182   1.002 -0.3663  0.0861 -0.4540
11654TIP3    H256454   3.273   0.294   0.975  1.4242 -1.1589  0.7499
11655TIP3   OH256455   3.572   0.773  14.132  0.5482  0.0926 -0.4590
11655TIP3    H156456   3.523   0.694  14.154 -0.6184  0.8665 -0.2229
11655TIP3    H256457   3.513   0.845  14.153  1.2536  1.0117 -1.5102
11656TIP3   OH256458   2.195   4.565   6.526 -0.3094  0.2538 -0.1366
11656TIP3    H156459   2.117   4.510   6.537  0.7431 -0.9689  1.8371
11656TIP3    H256460   2.160   4.654   6.521 -1.8285 -0.0971  2.3114
11657TIP3   OH256461   0.652   5.304  14.437  0.3460 -0.4958  0.0254
11657TIP3    H156462   0.700   5.363  14.494  2.1239 -0.8992 -0.9624
11657TIP3    H256463   0.685   5.323  14.349 -1.5445 -0.6018 -0.7597
11658TIP3   OH256464   4.438   3.405   4.830 -0.2140 -0.1981 -0.4103
11658TIP3    H156465   4.399   3.351   4.898  2.8237 -0.5205  1.2517
11658TIP3    H256466   4.428   3.495   4.862  0.8535 -0.3217  0.3094
11659TIP3   OH256467   4.031   5.504  13.110 -0.1772 -0.3728  0.3930
11659TIP3    H156468   4.079   5.466  13.183  0.7990 -2.2024 -1.1069
11659TIP3    H256469   3.949   5.455  13.107 -0.5956  0.2871  0.7540
11660TIP3   OH256470   3.335   0.940   6.123  0.6602 -0.2372  0.4111
11660TIP3    H156471   3.241   0.923   6.114  0.5437  0.0996  0.9762
11660TIP3    H256472   3.376   0.860   6.092  0.2660  0.4261 -2.0616
11661TIP3   OH256473   6.418   0.811   3.493  0.2487 -0.4316  0.5317
11661TIP3    H156474   6.401   0.782   3.583  0.5828  0.6654  0.9641
11661TIP3    H256475   6.443   0.903   3.502  0.7084 -0.4270 -0.6515
11662TIP3   OH256476   3.457   1.173  12.743 -0.0499 -0.1963  0.1809
11662TIP3    H156477   3.413   1.169  12.828  0.8871 -1.6632  0.6463
11662TIP3    H256478   3.437   1.089  12.702  1.4736 -0.5015  0.0012
11663TIP3   OH256479   2.176   2.460   1.759  0.3975  0.6429  0.9395
11663TIP3    H156480   2.082   2.472   1.744  0.3239  1.5618  2.0187
11663TIP3    H256481   2.183   2.439   1.852  0.9567 -3.3848  0.1912
11664TIP3   OH256482   3.416   2.744   5.336  0.2354  0.3524  0.0179
11664TIP3    H156483   3.336   2.779   5.375 -0.9897 -0.7220 -1.4158
11664TIP3    H256484   3.422   2.787   5.251 -0.0740 -1.2353 -0.8317
11665TIP3   OH256485   3.573   2.380   2.825  0.4218 -0.0426 -0.1090
11665TIP3    H156486   3.638   2.323   2.865 -0.3423  0.0130  1.2631
11665TIP3    H256487   3.624   2.454   2.790  1.2106 -0.6289 -0.2152
11666TIP3   OH256488   1.301   4.225   0.624 -0.6347  0.5820  0.0415
11666TIP3    H156489   1.392   4.249   0.607  0.7101 -3.4184  0.4350
11666TIP3    H256490   1.281   4.265   0.709  1.3459  0.2992  0.6894
11667TIP3   OH256491   6.713   0.690   0.452  0.3055 -0.1945 -0.3325
11667TIP3    H156492   6.642   0.697   0.388 -0.6369 -0.2884  0.6623
11667TIP3    H256493   6.763   0.613   0.425 -0.2506 -0.4026 -0.7810
11668TIP3   OH256494   5.909   2.865   0.541 -0.1342  0.4027  0.1022
11668TIP3    H156495   5.925   2.959   0.531  0.1074  0.4684  1.0866
11668TIP3    H256496   5.842   2.859   0.609  1.0713 -0.2049  1.2626
11669TIP3   OH256497   5.176   1.927   2.808  0.6861  0.7177  0.5688
11669TIP3    H156498   5.202   1.943   2.899  1.2278 -0.2070  0.5901
11669TIP3    H256499   5.255   1.894   2.766 -0.4051 -2.2273  0.6380
11670TIP3   OH256500   4.785   3.468   4.834 -0.8690 -0.3008 -0.0372
11670TIP3    H156501   4.878   3.490   4.833 -0.7307 -0.9053 -0.7125
11670TIP3    H256502   4.748   3.514   4.759 -1.0746 -0.2699  0.0807
11671TIP3   OH256503   2.580   1.123  14.413 -0.2445  0.5018 -0.4507
11671TIP3    H156504   2.585   1.029  14.393  1.8583  0.2208  1.0589
11671TIP3    H256505   2.595   1.166  14.329 -2.6952 -0.4099 -1.4626
11672TIP3   OH256506   1.446   6.076   6.564  0.0588 -0.0418  0.8293
11672TIP3    H156507   1.451   5.989   6.604 -0.6861  0.1597  1.3866
11672TIP3    H256508   1.450   6.059   6.470  0.1506 -0.6634  0.9387
11673TIP3   OH256509   2.438   2.390   0.941  0.3239 -0.1531  0.0184
11673TIP3    H156510   2.415   2.298   0.931 -0.2372 -0.0800  0.5743
11673TIP3    H256511   2.359   2.431   0.976  0.8300  0.3805  0.5586
11674TIP3   OH256512   2.489   3.510   5.376 -0.5225  0.4642  0.5709
11674TIP3    H156513   2.581   3.530   5.360 -0.4444  0.9204  1.5160
11674TIP3    H256514   2.475   3.534   5.467 -0.6981 -2.8121  1.5467
11675TIP3   OH256515   3.354   6.080   1.702  0.1847  0.5855 -0.3462
11675TIP3    H156516   3.284   6.031   1.745  0.9900 -0.8559 -0.5821
11675TIP3    H256517   3.411   6.107   1.774 -0.8011  2.1388 -0.1108
11676TIP3   OH256518   0.275   4.934   5.140 -0.4508 -0.1971  0.0888
11676TIP3    H156519   0.254   4.840   5.140  0.1780 -0.5202 -4.1911
11676TIP3    H256520   0.370   4.937   5.134 -0.4485  0.7464  0.4494
11677TIP3   OH256521   6.127   5.975  12.842  0.3643 -0.0138  0.0286
11677TIP3    H156522   6.216   5.941  12.845  0.5271  0.3486 -0.5493
11677TIP3    H256523   6.134   6.064  12.874 -0.0759 -0.5118  1.6106
11678TIP3   OH256524   4.500   6.725   3.710 -0.6313 -0.3654  0.2390
11678TIP3    H156525   4.460   6.811   3.717 -0.5120 -0.0398 -2.2477
11678TIP3    H256526   4.582   6.732   3.759 -1.4634  0.3199  1.6087
11679TIP3   OH256527   0.683   2.571  10.876  0.4891 -0.6268 -0.0230
11679TIP3    H156528   0.729   2.640  10.926 -0.6740  0.2636 -0.1412
11679TIP3    H256529   0.631   2.619  10.812  0.3125 -1.6765 -0.6837
11680TIP3   OH256530   3.802   6.152   4.960 -0.4703 -0.4390  0.0245
11680TIP3    H156531   3.730   6.096   4.929 -2.7310  1.2162  1.8743
11680TIP3    H256532   3.765   6.241   4.959  1.4249  0.4387  1.4069
11681TIP3   OH256533   3.018   2.667   4.483 -0.0686 -0.2464  0.0971
11681TIP3    H156534   3.046   2.611   4.411  0.8266 -0.5837  0.6847
11681TIP3    H256535   3.029   2.613   4.561 -1.4381 -0.0333  0.4557
11682TIP3   OH256536   0.291   1.830  11.820 -0.4381 -0.0956  0.4027
11682TIP3    H156537   0.307   1.919  11.788 -0.4746 -0.1320  0.2836
11682TIP3    H256538   0.279   1.840  11.914 -1.5745  0.1737  0.2341
11683TIP3   OH256539   1.795   2.082  16.792 -0.0413 -0.5383 -0.5549
11683TIP3    H156540   1.710   2.078  16.836  0.2690  0.5282  0.1947
11683TIP3    H256541   1.824   1.991  16.786 -1.1474 -0.9015 -0.6711
11684TIP3   OH256542   6.418   3.323  13.785  0.1065  0.6490 -0.4086
11684TIP3    H156543   6.443   3.251  13.727 -0.2576  0.7757 -0.7268
11684TIP3    H256544   6.340   3.361  13.744  0.9170  1.9285 -0.8549
11685TIP3   OH256545   2.769   5.932   1.620  0.1850 -0.5406 -0.7030
11685TIP3    H156546   2.705   5.874   1.579  0.7545 -1.6311 -0.0921
11685TIP3    H256547   2.843   5.932   1.561  0.1604 -0.3744 -0.7350
11686TIP3   OH256548   0.502   4.932   1.771  0.3575 -0.0192 -0.4033
11686TIP3    H156549   0.482   4.853   1.721 -2.6776  0.1187  0.3839
11686TIP3    H256550   0.457   5.002   1.724  0.1670  0.6553  0.7469
11687TIP3   OH256551   0.056   0.042   6.020 -0.6906 -0.3452 -0.2841
11687TIP3    H156552   0.040  -0.038   6.069  0.6753 -1.2237 -1.2344
11687TIP3    H256553   0.129   0.084   6.065 -1.2485  0.2687  0.0698
11688TIP3   OH256554   6.610   5.508  13.875  0.2596  0.2678  0.4265
11688TIP3    H156555   6.592   5.517  13.968 -0.1600 -1.6214  0.5648
11688TIP3    H256556   6.702   5.483  13.870  0.2971  0.4218  0.3109
11689TIP3   OH256557   0.122   6.045   3.250  0.2504  0.1409 -0.2339
11689TIP3    H156558   0.066   6.060   3.326  0.3903 -1.0878  0.1476
11689TIP3    H256559   0.168   6.127   3.236 -2.0108  1.3917 -0.8971
11690TIP3   OH256560   0.029   4.928   6.915  0.2414  0.4413  0.0640
11690TIP3    H156561   0.059   4.890   6.833  0.7689 -0.9857  0.8695
11690TIP3    H256562   0.095   4.900   6.979 -0.9573  0.2275  1.2443
11691TIP3   OH256563   2.142   3.736  11.972  0.4006  0.3840  0.0708
11691TIP3    H156564   2.124   3.772  12.059  1.5264  0.6814  0.2026
11691TIP3    H256565   2.211   3.793  11.937  0.1727  0.0812 -0.8927
11692TIP3   OH256566   5.585   4.681   2.723 -0.0842 -0.4581  0.1006
11692TIP3    H156567   5.635   4.616   2.772 -1.2862 -0.8217  0.9131
11692TIP3    H256568   5.644   4.710   2.654  1.2302 -0.8491  1.0137
11693TIP3   OH256569   1.299   0.165   4.938  0.0125 -0.2393  0.1804
11693TIP3    H156570   1.312   0.259   4.927 -0.5107 -0.1840  0.0130
11693TIP3    H256571   1.252   0.138   4.859  1.1090 -0.8388 -0.2803
11694TIP3   OH256572   0.792   3.712  12.732  0.0827 -0.3794 -0.5247
11694TIP3    H156573   0.792   3.680  12.642 -0.6729  1.5713 -1.2656
11694TIP3    H256574   0.722   3.777  12.735  0.1653 -0.3218  1.4480
11695TIP3   OH256575   3.230   3.050  15.539 -0.2152  0.3020  0.6078
11695TIP3    H156576   3.278   2.968  15.552  0.1313  0.5988  1.1898
11695TIP3    H256577   3.250   3.103  15.616  0.5237  1.4173 -0.3204
11696TIP3   OH256578   0.525   1.152  15.207  0.0398 -0.4036  0.2387
11696TIP3    H156579   0.454   1.216  15.211  0.0377 -0.2843 -1.2243
11696TIP3    H256580   0.559   1.149  15.297 -2.9459 -1.8132  1.4552
11697TIP3   OH256581   4.358   3.156  11.775  0.6064 -0.0844  0.0745
11697TIP3    H156582   4.430   3.215  11.793  0.4678 -0.1541  0.9139
11697TIP3    H256583   4.355   3.149  11.680  1.0498  0.7203 -0.0006
11698TIP3   OH256584   3.224   4.286  15.608 -0.8457 -0.6006  0.3073
11698TIP3    H156585   3.190   4.300  15.520  2.2758 -1.6868 -1.2284
11698TIP3    H256586   3.275   4.366  15.627  0.4343 -1.3321  0.0632
11699TIP3   OH256587   0.789   1.639   5.515  0.3551  0.3427  0.5288
11699TIP3    H156588   0.868   1.591   5.490  0.5573  0.4493  0.9507
11699TIP3    H256589   0.718   1.576   5.503  0.5772  0.0505  0.7327
11700TIP3   OH256590   6.714   5.004  16.944  0.0724  0.3520 -0.3747
11700TIP3    H156591   6.753   5.082  16.905 -0.0153  0.7455  0.2964
11700TIP3    H256592   6.713   5.023  17.038  0.6358 -0.7159 -0.1335
11701TIP3   OH256593   2.589   5.880   0.562  0.2304 -0.1295 -0.1319
11701TIP3    H156594   2.531   5.810   0.530  0.8895 -0.4890 -0.5647
11701TIP3    H256595   2.542   5.918   0.636  0.3959 -1.8472  0.9152
11702TIP3   OH256596   6.053   6.519  12.751  0.0093 -0.1055  0.3164
11702TIP3    H156597   5.989   6.474  12.806 -0.6650  1.9616  1.3441
11702TIP3    H256598   6.000   6.567  12.687  0.6799 -0.4300 -0.5009
11703TIP3   OH256599   2.406   5.736   0.915 -0.4231  0.4298  0.0573
11703TIP3    H156600   2.484   5.685   0.932 -0.7798  0.3901  1.7418
11703TIP3    H256601   2.333   5.676   0.930 -0.8266  0.4079 -1.6698
11704TIP3   OH256602   3.825   5.224  17.446 -0.3367  0.4886 -0.2079
11704TIP3    H156603   3.774   5.225  17.527 -0.1322 -1.0830 -0.0331
11704TIP3    H256604   3.884   5.299  17.453 -1.0896  1.0229  0.5782
11705TIP3   OH256605   0.388   0.305   4.272  0.1051 -0.5927 -0.0887
11705TIP3    H156606   0.336   0.304   4.191  2.0196 -0.0443 -1.4084
11705TIP3    H256607   0.389   0.396   4.299 -0.0274 -0.6790  0.2082
11706TIP3   OH256608   2.301   3.367  14.254 -0.8261  0.3089  0.1394
11706TIP3    H156609   2.386   3.406  14.234  0.2779  0.2133  3.8907
11706TIP3    H256610   2.319   3.273  14.259 -1.9400 -0.0841 -2.0683
11707TIP3   OH256611   1.901   0.161   2.487 -0.7981  0.6879  0.0057
11707TIP3    H156612   1.989   0.157   2.449  0.0512  1.4271  1.7439
11707TIP3    H256613   1.842   0.161   2.412  0.6510 -0.2460 -1.2041
11708TIP3   OH256614   6.024   1.489   2.141 -0.0324  0.1541  0.0909
11708TIP3    H156615   5.947   1.546   2.137 -0.4321 -0.3780  0.0615
11708TIP3    H256616   6.009   1.433   2.217 -0.0476 -0.4718 -0.3620
11709TIP3   OH256617   5.182   3.180  12.431  0.0447  0.4231 -0.0030
11709TIP3    H156618   5.224   3.107  12.386 -1.0982 -0.5112  0.4042
11709TIP3    H256619   5.110   3.140  12.480  0.0128  1.6922  1.0312
11710TIP3   OH256620   3.779   4.425  15.826  0.0796 -0.0270  0.6305
11710TIP3    H156621   3.851   4.485  15.805  0.3778 -1.3787 -2.8339
11710TIP3    H256622   3.805   4.383  15.907  3.0008 -0.0712 -0.2299
11711TIP3   OH256623   6.707   1.127   4.581  0.1105 -0.6309  0.1002
11711TIP3    H156624   6.793   1.096   4.554 -0.1623 -1.4383  0.1171
11711TIP3    H256625   6.715   1.139   4.676  0.5091  0.3470 -0.0445
11712TIP3   OH256626   6.027   2.275  11.619 -0.2388 -0.0563 -0.3729
11712TIP3    H156627   6.075   2.239  11.544 -0.2746 -2.6973  0.7430
11712TIP3    H256628   5.939   2.292  11.586 -0.2503 -1.1763 -0.9686
11713TIP3   OH256629   0.367   3.267   3.854 -0.2073  0.2049  0.0010
11713TIP3    H156630   0.375   3.180   3.893 -1.1977 -0.0811 -0.4144
11713TIP3    H256631   0.447   3.277   3.802  0.2377 -0.1699  0.5971
11714TIP3   OH256632   1.241   0.916  17.349  0.1957 -0.4469  0.1494
11714TIP3    H156633   1.158   0.892  17.308 -1.1473  2.3320  0.9817
11714TIP3    H256634   1.226   0.902  17.442 -0.1811  2.0776  0.5225
11715TIP3   OH256635   2.983   1.582   0.918 -0.1916 -0.3598 -0.1997
11715TIP3    H156636   2.941   1.529   0.850  2.2434 -1.5090 -0.9513
11715TIP3    H256637   3.024   1.518   0.976 -0.7087  0.6629  1.3421
11716TIP3   OH256638   5.859   4.200   6.438 -0.8855 -0.0905 -0.4007
11716TIP3    H156639   5.793   4.181   6.506 -0.8161 -0.5013 -0.4447
11716TIP3    H256640   5.940   4.163   6.473 -0.8204 -0.1777 -0.6431
11717TIP3   OH256641   2.017   0.742   1.641  0.4298  0.0455  0.0472
11717TIP3    H156642   2.057   0.828   1.637  0.7206  0.0961  2.5749
11717TIP3    H256643   1.927   0.758   1.670  0.1599 -0.4364 -0.4991
11718TIP3   OH256644   1.529   1.018  17.442 -0.0135 -0.1414 -0.4095
11718TIP3    H156645   1.450   0.997  17.491 -0.3325  0.6611 -0.5567
11718TIP3    H256646   1.575   1.082  17.497 -0.4527  0.8870 -1.1889
11719TIP3   OH256647   5.558   6.192  11.569 -0.5506 -0.0165 -0.3549
11719TIP3    H156648   5.465   6.212  11.567 -0.5005  0.1687 -1.1427
11719TIP3    H256649   5.601   6.277  11.559 -0.3043 -0.1950 -0.8038
11720TIP3   OH256650   2.763   3.481  14.828 -0.3632  0.0155  0.4935
11720TIP3    H156651   2.760   3.500  14.734  1.8666  1.1378  0.5816
11720TIP3    H256652   2.676   3.448  14.848 -0.6627 -1.0315 -2.1076
11721TIP3   OH256653   3.055   0.026   4.446 -0.7542 -0.5562  0.2042
11721TIP3    H156654   3.022   0.115   4.439  2.8822  1.0745  1.6140
11721TIP3    H256655   3.038   0.001   4.537  0.5125 -0.2352  0.5496
11722TIP3   OH256656   1.069   1.332   2.593 -0.4645 -0.0279  0.4685
11722TIP3    H156657   1.070   1.239   2.571 -1.5765  0.3323 -1.2639
11722TIP3    H256658   0.989   1.344   2.645 -0.8003  0.0949 -0.0640
11723TIP3   OH256659   0.599   1.500  14.452 -0.3253  0.0553 -0.5573
11723TIP3    H156660   0.650   1.485  14.372 -1.1023 -1.6523 -0.7819
11723TIP3    H256661   0.589   1.413  14.490 -2.5228  0.4158 -0.1873
11724TIP3   OH256662   6.250   0.145   0.188 -0.5161 -0.1197  0.2834
11724TIP3    H156663   6.218   0.055   0.194 -1.7890  0.3511  0.9190
11724TIP3    H256664   6.171   0.197   0.171  0.5570  0.5764 -3.4379
11725TIP3   OH256665   5.231   5.110   6.130 -0.5696 -0.3326 -0.1813
11725TIP3    H156666   5.165   5.049   6.162 -1.5720  1.8211  2.2920
11725TIP3    H256667   5.195   5.144   6.048 -2.6982  0.8122  1.1324
11726TIP3   OH256668   5.371   3.347   5.326 -0.1741  0.2559  0.2861
11726TIP3    H156669   5.433   3.287   5.285  0.3095 -0.4414  1.9348
11726TIP3    H256670   5.415   3.433   5.322 -0.7602  0.5005 -1.8483
11727TIP3   OH256671   0.469   6.496   6.356  0.4211  0.2465 -0.1817
11727TIP3    H156672   0.376   6.518   6.356  0.9963  3.0732 -0.0531
11727TIP3    H256673   0.486   6.463   6.445 -0.6036 -1.2873 -0.5207
11728TIP3   OH256674   5.079   5.727  16.594 -0.7119  0.1746 -0.1855
11728TIP3    H156675   5.115   5.752  16.509  0.4496 -0.5126  0.0827
11728TIP3    H256676   4.985   5.745  16.587 -0.6823 -0.1598 -1.7155
11729TIP3   OH256677   4.574   4.965  12.504  0.4356  0.3194  0.4229
11729TIP3    H156678   4.580   5.046  12.555  0.4011  1.3736 -1.1931
11729TIP3    H256679   4.581   4.895  12.570  0.1958  1.6152  1.8827
11730TIP3   OH256680   6.064   0.801  15.862 -1.0620  0.2062  0.3195
11730TIP3    H156681   6.047   0.708  15.846 -0.7873  0.1863  0.1432
11730TIP3    H256682   6.026   0.818  15.948 -0.8019 -0.1533  0.5063
11731TIP3   OH256683   3.255   1.629  12.935  0.8737 -0.3188 -0.3292
11731TIP3    H156684   3.223   1.581  12.859  2.7514  0.2458 -1.5318
11731TIP3    H256685   3.230   1.720  12.919  1.6909 -0.1217 -0.5314
11732TIP3   OH256686   1.888   5.165   6.443  0.1025  0.2441  0.0438
11732TIP3    H156687   1.865   5.205   6.359 -0.0815 -1.8169 -0.9387
11732TIP3    H256688   1.940   5.233   6.488  0.6838  1.2075 -1.9466
11733TIP3   OH256689   3.657   2.780   0.652  0.6594  0.6032 -0.5179
11733TIP3    H156690   3.743   2.810   0.684  0.0695 -1.5088  3.7679
11733TIP3    H256691   3.609   2.758   0.731 -2.7386 -1.4018 -2.8980
11734TIP3   OH256692   5.354   6.094  12.261 -0.7321 -0.3953 -0.2996
11734TIP3    H156693   5.411   6.168  12.281 -3.4313  1.7815 -0.1938
11734TIP3    H256694   5.346   6.095  12.166 -2.0088  0.4637 -0.1947
11735TIP3   OH256695   4.775   1.097  14.359  0.1557 -0.8783  0.5850
11735TIP3    H156696   4.722   1.168  14.396  0.3701 -1.4418  2.0452
11735TIP3    H256697   4.801   1.045  14.435  0.4296 -2.2342 -0.4064
11736TIP3   OH256698   1.975   4.506  14.654 -0.1373  0.0564 -0.3336
11736TIP3    H156699   2.004   4.517  14.563  0.6383 -3.7003 -0.7013
11736TIP3    H256700   2.047   4.541  14.706 -0.1114  1.2734 -1.1387
11737TIP3   OH256701   6.046   2.676   5.000 -0.2684  0.5226 -0.0566
11737TIP3    H156702   6.108   2.612   4.966 -0.8175 -0.0163 -0.0582
11737TIP3    H256703   6.100   2.746   5.037  0.3802 -0.9031  1.8161
11738TIP3   OH256704   6.410   5.086  15.391  0.2899  0.2551  0.6584
11738TIP3    H156705   6.333   5.051  15.436  1.0403 -3.2691 -0.4886
11738TIP3    H256706   6.481   5.028  15.417  1.7655  1.1093 -1.2155
11739TIP3   OH256707   2.889   5.288  12.564  0.3060  0.2114  0.0254
11739TIP3    H156708   2.917   5.200  12.590  1.2976 -0.1857 -2.1364
11739TIP3    H256709   2.799   5.275  12.532  0.9753 -0.4072 -1.7693
11740TIP3   OH256710   0.444   3.728   3.998 -0.2036  0.1782 -0.6387
11740TIP3    H156711   0.522   3.737   3.942  1.6411 -3.1955  1.0938
11740TIP3    H256712   0.383   3.678   3.944 -0.0549  0.4115 -1.0329
11741TIP3   OH256713   5.940   4.932   2.876  1.3527 -0.2645  0.7524
11741TIP3    H156714   5.854   4.941   2.916  0.7848 -0.1972 -0.4436
11741TIP3    H256715   5.923   4.901   2.787  2.5189  0.2932  0.3027
11742TIP3   OH256716   3.479   1.389   0.264 -0.1019 -0.2409 -0.0502
11742TIP3    H156717   3.410   1.452   0.246  0.2195  0.0598 -0.2395
11742TIP3    H256718   3.450   1.308   0.223 -0.7227 -0.3395  0.5711
11743TIP3   OH256719   0.344   3.129  15.022 -0.1281  0.0294  0.5712
11743TIP3    H156720   0.332   3.116  15.116  0.6914 -2.5036  0.4033
11743TIP3    H256721   0.438   3.116  15.008 -0.2769  0.1694 -0.6315
11744TIP3   OH256722   0.924   5.224  11.784  0.2106  0.5377  0.2045
11744TIP3    H156723   0.990   5.294  11.779  0.5860  0.2771  1.2682
11744TIP3    H256724   0.930   5.179  11.700  0.0320  1.7206 -0.4581
11745TIP3   OH256725   4.003   5.870  16.782 -0.1344 -0.5010  0.3030
11745TIP3    H156726   3.954   5.803  16.735 -0.4984 -0.8660  1.1869
11745TIP3    H256727   4.078   5.889  16.725  1.0082 -3.0117  0.8529
11746TIP3   OH256728   3.020   5.037   4.460  0.1207  0.3646 -0.4488
11746TIP3    H156729   2.933   5.033   4.500  0.6177  1.3841  0.7653
11746TIP3    H256730   3.071   4.970   4.505  0.2745  0.5266 -0.3803
11747TIP3   OH256731   2.959   1.773  14.457 -0.5907 -0.3321 -0.6945
11747TIP3    H156732   3.009   1.729  14.389 -1.6280 -0.4529 -1.3969
11747TIP3    H256733   2.988   1.732  14.539  0.6365 -0.2082 -1.0445
11748TIP3   OH256734   5.755   3.055   3.070 -0.4793  0.1622 -0.3504
11748TIP3    H156735   5.689   3.095   3.126 -0.3402  0.5305 -0.4489
11748TIP3    H256736   5.826   3.119   3.066  0.4387 -0.7402  0.7766
11749TIP3   OH256737   4.686   1.337  14.498  0.3829  0.1230  0.3104
11749TIP3    H156738   4.625   1.293  14.557  1.5764 -1.6079  0.3232
11749TIP3    H256739   4.763   1.353  14.552  2.2528 -3.2200 -1.1084
11750TIP3   OH256740   0.932   4.269  12.645 -0.7647  0.4901  0.0697
11750TIP3    H156741   0.877   4.245  12.719  0.7389 -0.9387  0.7849
11750TIP3    H256742   0.889   4.230  12.569 -0.6012 -0.8940  0.6632
11751TIP3   OH256743   0.811   4.860  11.699 -0.3380  0.2155  0.4705
11751TIP3    H156744   0.778   4.770  11.706  0.4350 -0.2208 -1.0130
11751TIP3    H256745   0.732   4.914  11.703 -0.8783 -0.5686  0.7453
11752TIP3   OH256746   2.635   4.968  14.399 -0.4293 -0.2358 -0.7967
11752TIP3    H156747   2.634   5.054  14.357 -0.5868  0.9150  1.4162
11752TIP3    H256748   2.701   4.976  14.468  0.5756 -2.3897 -1.4027
11753TIP3   OH256749   0.639   1.499  11.466  0.2853 -0.0994  0.2769
11753TIP3    H156750   0.548   1.473  11.482  0.2481  0.7263  1.5045
11753TIP3    H256751   0.637   1.539  11.379 -0.8408  1.2547  0.8879
11754TIP3   OH256752   0.686   5.393   1.354  0.6465  0.0620 -0.5537
11754TIP3    H156753   0.634   5.473   1.343 -0.8416 -0.4956  1.6974
11754TIP3    H256754   0.725   5.402   1.441 -1.0478 -2.3913  0.5615
11755TIP3   OH256755   4.076   6.338   2.350  0.2797 -0.9425 -0.0696
11755TIP3    H156756   4.055   6.426   2.382 -0.1404 -0.8684 -0.5334
11755TIP3    H256757   4.036   6.334   2.263  1.3374 -1.1704 -0.5556
11756TIP3   OH256758   6.344   2.363  15.362 -0.0958 -0.3414  0.0114
11756TIP3    H156759   6.318   2.376  15.453 -0.3888  0.9540 -0.2313
11756TIP3    H256760   6.283   2.418  15.312  2.0568  1.5397 -0.7169
11757TIP3   OH256761   6.021   5.122  12.360 -0.5720 -0.1341 -0.1011
11757TIP3    H156762   6.048   5.142  12.450  0.0606 -0.7855 -0.1406
11757TIP3    H256763   5.956   5.190  12.339  1.1672  1.6142 -0.0745
11758TIP3   OH256764   5.750   3.629   3.358 -0.4226  0.2266  0.1716
11758TIP3    H156765   5.705   3.582   3.428 -0.5048  2.0831  1.4246
11758TIP3    H256766   5.789   3.705   3.401 -0.3542  1.3596 -1.7783
11759TIP3   OH256767   4.463   0.637   6.713  0.4019 -0.5573  0.4690
11759TIP3    H156768   4.424   0.681   6.788 -0.8776  0.6258 -0.8297
11759TIP3    H256769   4.467   0.704   6.645  4.4398 -0.6861  0.3418
11760TIP3   OH256770   3.006   6.356  13.337 -0.3239  0.2450 -0.0719
11760TIP3    H156771   3.030   6.293  13.270  1.0505 -0.2837  0.8718
11760TIP3    H256772   2.917   6.383  13.314  0.2342  0.3837 -2.3005
11761TIP3   OH256773   2.038   3.375  15.048 -0.7752 -0.0336  0.0812
11761TIP3    H156774   2.028   3.384  15.143  0.1156  0.4758  0.1375
11761TIP3    H256775   2.115   3.318  15.038  0.8280  2.0699 -0.3078
11762TIP3   OH256776   0.650   4.993  12.733  0.1295 -0.3134  0.1355
11762TIP3    H156777   0.619   4.916  12.782  2.3250  0.7485  3.5639
11762TIP3    H256778   0.583   5.060  12.749  0.6019 -0.1169  1.4258
11763TIP3   OH256779   0.172   6.246   1.100 -0.0067  0.6108 -0.2486
11763TIP3    H156780   0.183   6.340   1.118 -2.0972  0.6396  1.2661
11763TIP3    H256781   0.083   6.239   1.066  0.8936 -0.6069 -2.5280
11764TIP3   OH256782   5.751   3.755  11.099 -0.2257  0.0082 -0.0369
11764TIP3    H156783   5.767   3.685  11.036 -0.7082  1.5148 -1.9196
11764TIP3    H256784   5.830   3.809  11.095  0.0272 -0.2370  1.1950
11765TIP3   OH256785   4.996   0.990   1.067 -0.1494 -0.0056 -0.1629
11765TIP3    H156786   5.036   1.047   1.001  1.6020 -1.3520 -0.3317
11765TIP3    H256787   5.052   0.999   1.144  0.3732 -1.7510 -0.3154
11766TIP3   OH256788   2.602   6.666  12.951 -0.1830  0.4294 -0.0378
11766TIP3    H156789   2.593   6.632  13.040  0.8158  3.1119  1.2236
11766TIP3    H256790   2.697   6.679  12.940 -0.4369  1.8895 -0.7189
11767TIP3   OH256791   4.464   5.820  16.975 -0.6953  0.7135 -0.3987
11767TIP3    H156792   4.532   5.868  17.022  0.0467  0.6517 -1.3794
11767TIP3    H256793   4.423   5.766  17.042  0.1608  0.8241  0.2375
11768TIP3   OH256794   4.038   0.896   2.546 -0.6938  0.3253  0.2802
11768TIP3    H156795   4.102   0.855   2.603 -0.3569  1.4549  0.7480
11768TIP3    H256796   4.041   0.844   2.465  1.2153  0.6602  0.0851
11769TIP3   OH256797   5.598   5.749  14.182  0.5648  0.0743  0.0363
11769TIP3    H156798   5.689   5.750  14.152  0.6018  0.8923  0.1505
11769TIP3    H256799   5.561   5.831  14.149 -0.4167 -0.6918 -0.8497
11770TIP3   OH256800   6.321   5.701   0.920 -0.4999  0.4957  0.2229
11770TIP3    H156801   6.276   5.781   0.946  1.4234  2.1498 -1.2167
11770TIP3    H256802   6.273   5.669   0.844 -0.7772  0.7706  0.2824
11771TIP3   OH256803   1.259   2.063  15.688 -0.4455 -0.2607 -0.1555
11771TIP3    H156804   1.353   2.063  15.673 -0.6179  0.1764 -1.3694
11771TIP3    H256805   1.222   2.108  15.611 -1.7219 -1.4533 -0.2848
11772TIP3   OH256806   5.237   6.707  14.830 -0.3773  0.4158  0.3203
11772TIP3    H156807   5.176   6.778  14.810 -0.4898  0.0848 -0.5416
11772TIP3    H256808   5.182   6.633  14.853 -0.4807 -0.7748 -3.2993
11773TIP3   OH256809   4.330   6.713   2.242 -0.6634  0.1366  0.3868
11773TIP3    H156810   4.319   6.783   2.306 -0.5464  0.2938  0.2374
11773TIP3    H256811   4.401   6.744   2.185  0.3764 -0.7428  1.1726
11774TIP3   OH256812   2.950   1.659  12.805  0.5167  0.7366  0.4386
11774TIP3    H156813   2.864   1.697  12.821 -0.0018 -0.0409 -0.4518
11774TIP3    H256814   2.939   1.565  12.824  0.1399 -0.0770 -3.1345
11775TIP3   OH256815   5.694   0.958   2.657  0.2371  0.2283  0.2952
11775TIP3    H156816   5.767   0.999   2.705 -0.0617 -0.0113  0.9636
11775TIP3    H256817   5.633   0.930   2.725  0.7509 -1.9933 -0.0525
11776TIP3   OH256818   1.253   5.349  16.388  0.0080  0.1343  0.6590
11776TIP3    H156819   1.292   5.295  16.457  1.4086  0.8144  0.4360
11776TIP3    H256820   1.277   5.439  16.411  0.5149  0.3735 -0.6877
11777TIP3   OH256821   1.337   1.897   4.601  0.3183  0.0736 -0.3783
11777TIP3    H156822   1.407   1.863   4.656 -0.1648 -2.4766 -1.2100
11777TIP3    H256823   1.308   1.822   4.549 -4.3191  0.3969  1.2412
11778TIP3   OH256824   6.720   1.650  11.811  0.3092 -0.2842  0.3796
11778TIP3    H156825   6.629   1.619  11.801  0.5190 -0.6888 -0.4127
11778TIP3    H256826   6.729   1.669  11.904 -1.0045  1.0567  0.2641
11779TIP3   OH256827   4.659   5.416   4.115 -0.6046  0.1760 -0.0679
11779TIP3    H156828   4.702   5.346   4.067 -1.8166 -1.5332  1.2275
11779TIP3    H256829   4.685   5.402   4.206 -2.2438  0.3134  0.4559
11780TIP3   OH256830   3.332   2.801   4.286 -0.1703  0.6235 -0.1350
11780TIP3    H156831   3.292   2.868   4.343 -1.5570 -1.0355  0.9318
11780TIP3    H256832   3.258   2.751   4.253  0.8912 -3.6363  3.1771
11781TIP3   OH256833   4.410   2.649  17.063 -0.1924 -0.4511 -0.4835
11781TIP3    H156834   4.377   2.564  17.034  1.0284 -0.7017 -1.2293
11781TIP3    H256835   4.483   2.627  17.122  0.1205  0.0759 -0.6705
11782TIP3   OH256836   4.092   6.340   5.911  0.0433 -0.0982 -0.0073
11782TIP3    H156837   4.146   6.323   5.834  0.3514  0.0743  0.1716
11782TIP3    H256838   4.086   6.256   5.956 -0.6371 -0.3464 -0.5334
11783TIP3   OH256839   1.788   4.598   5.971  0.7475  0.5025 -0.2259
11783TIP3    H156840   1.828   4.685   5.973  0.1525  0.7772  0.0699
11783TIP3    H256841   1.841   4.546   6.032  1.0265  0.6857 -0.3077
11784TIP3   OH256842   0.240   4.871  13.293 -0.1376 -0.0312  0.0955
11784TIP3    H156843   0.185   4.814  13.346  2.4375 -2.2777  0.5846
11784TIP3    H256844   0.324   4.872  13.338  1.2380  0.5312 -2.3170
11785TIP3   OH256845   1.080   6.354  14.734  0.0818  0.6932  0.2241
11785TIP3    H156846   1.089   6.262  14.711 -0.3705  0.5225  0.7094
11785TIP3    H256847   0.994   6.379  14.698  0.5113  1.1126 -0.5203
11786TIP3   OH256848   3.461   3.365  15.874  0.4057  0.2883  0.3232
11786TIP3    H156849   3.535   3.401  15.922  1.1474  1.2969 -1.4661
11786TIP3    H256850   3.386   3.378  15.931  1.6459 -1.2982  2.4496
11787TIP3   OH256851   0.862   3.443  17.002 -0.2530  0.5358 -0.3232
11787TIP3    H156852   0.786   3.501  17.000  0.5701  1.6620 -0.2452
11787TIP3    H256853   0.859   3.396  16.919 -2.2765 -1.1392  0.6156
11788TIP3   OH256854   3.737   0.848   5.215 -0.1180  0.1761  0.2222
11788TIP3    H156855   3.642   0.849   5.215 -0.1232  0.0009  0.9198
11788TIP3    H256856   3.761   0.765   5.175 -0.2696 -0.1372  0.7746
11789TIP3   OH256857   0.780   1.578  14.268  0.1503  0.4016  0.3858
11789TIP3    H156858   0.862   1.529  14.267  0.4598  0.9202  0.5290
11789TIP3    H256859   0.792   1.648  14.204 -0.5924 -0.1848 -0.4238
11790TIP3   OH256860   4.534   1.553  13.577 -0.0296  0.0993 -0.2037
11790TIP3    H156861   4.498   1.565  13.665 -0.5439  1.5682 -0.5863
11790TIP3    H256862   4.518   1.461  13.557 -2.7637  0.4275  0.0258
11791TIP3   OH256863   2.072   2.927   4.849 -0.4111 -0.1534  0.4001
11791TIP3    H156864   2.168   2.930   4.850 -0.3208 -1.8393  0.6059
11791TIP3    H256865   2.049   2.920   4.757 -0.3683  0.6390  0.3232
11792TIP3   OH256866   6.227   4.910  14.241  0.0980  0.4761  0.1344
11792TIP3    H156867   6.187   4.931  14.157  3.7181 -1.0788 -2.2645
11792TIP3    H256868   6.302   4.969  14.247  0.7506 -0.4493  1.5147
11793TIP3   OH256869   1.657   5.003  15.536  0.2134 -0.1766  0.5364
11793TIP3    H156870   1.708   4.998  15.617  0.6847 -0.4120  0.2292
11793TIP3    H256871   1.704   4.947  15.475 -0.1866 -0.0618  0.1222
11794TIP3   OH256872   1.706   3.265   2.483 -0.2434 -0.0333 -0.6041
11794TIP3    H156873   1.796   3.277   2.514  0.5331  1.7678 -3.2544
11794TIP3    H256874   1.652   3.295   2.556  1.3205  0.0087  0.5921
11795TIP3   OH256875   0.558   0.009   0.451 -0.4628  0.2080  0.0513
11795TIP3    H156876   0.469  -0.024   0.456 -1.1796  1.8332 -1.0752
11795TIP3    H256877   0.596  -0.033   0.373 -0.9694  1.0757 -0.6820
11796TIP3   OH256878   1.915   3.771  12.573  0.1857  0.3887 -0.4166
11796TIP3    H156879   1.931   3.728  12.489  1.0520 -3.8480  1.6336
11796TIP3    H256880   1.998   3.813  12.595 -0.1034  1.6877 -1.6589
11797TIP3   OH256881   4.965   4.457  14.829  0.4726 -0.5454  0.0428
11797TIP3    H156882   4.996   4.462  14.920  0.4276  0.2735  0.0183
11797TIP3    H256883   4.892   4.519  14.825  0.0007 -1.1178 -0.3693
11798TIP3   OH256884   2.863   2.040  16.531  0.0500 -0.7003  0.1103
11798TIP3    H156885   2.908   2.070  16.451  0.9486 -1.2675  0.3879
11798TIP3    H256886   2.933   2.034  16.596 -0.8711  1.0036  1.3263
11799TIP3   OH256887   6.471   4.462  16.258  0.0747  0.1714 -0.4266
11799TIP3    H156888   6.509   4.549  16.247  0.8318  0.3740  2.7998
11799TIP3    H256889   6.380   4.472  16.230  0.3963  1.7411 -1.0002
11800TIP3   OH256890   0.700   2.732   4.402 -0.5266  0.3170 -0.4824
11800TIP3    H156891   0.741   2.710   4.486 -1.0574 -0.7366 -0.4853
11800TIP3    H256892   0.618   2.683   4.401  0.8978 -2.3208 -2.9407
11801TIP3   OH256893   4.594   3.265  17.642 -0.1752  0.0008 -0.4770
11801TIP3    H156894   4.501   3.274  17.666  0.2235 -1.3292  1.8449
11801TIP3    H256895   4.635   3.345  17.676 -0.1375 -0.3960  0.4265
11802TIP3   OH256896   0.657   5.721  13.556  0.7786  0.0395 -0.5766
11802TIP3    H156897   0.562   5.722  13.546  0.5482 -1.6339  0.9028
11802TIP3    H256898   0.677   5.799  13.608 -0.0011 -0.3818  0.3996
11803TIP3   OH256899   3.019   5.063  16.958  0.3121 -0.4364  0.0789
11803TIP3    H156900   3.052   5.134  17.012  0.3199  0.3618 -0.9572
11803TIP3    H256901   3.067   4.986  16.987  2.0867  0.4302 -0.4238
11804TIP3   OH256902   2.074   2.818  12.164  0.0694  0.2757  0.1004
11804TIP3    H156903   2.002   2.872  12.134  2.4914  3.0373 -1.2572
11804TIP3    H256904   2.072   2.741  12.107 -1.4050  0.6091 -0.3311
11805TIP3   OH256905   4.461   5.892  13.195  0.2375  0.3500 -0.9644
11805TIP3    H156906   4.507   5.809  13.201  1.7503  1.1682 -0.7313
11805TIP3    H256907   4.496   5.933  13.116  2.5120  2.4385  0.9805
11806TIP3   OH256908   1.296   5.742  14.131  0.0980 -0.1962 -0.5865
11806TIP3    H156909   1.353   5.670  14.156 -1.4312 -1.4658 -0.6039
11806TIP3    H256910   1.246   5.709  14.057 -1.2793  0.5291 -0.0271
11807TIP3   OH256911   5.707   4.187   5.959  0.2122 -0.3456 -0.0770
11807TIP3    H156912   5.790   4.233   5.967 -0.4418  1.6517 -2.9496
11807TIP3    H256913   5.730   4.096   5.942  1.7466 -0.0647  0.4148
11808TIP3   OH256914   2.365   0.286  16.116  0.3793 -0.1140  0.0325
11808TIP3    H156915   2.293   0.230  16.144  0.1606  0.3549  0.4178
11808TIP3    H256916   2.398   0.245  16.036 -1.0059  0.2584 -0.7611
11809TIP3   OH256917   2.115   4.682   1.752  0.3722 -0.0422  0.5244
11809TIP3    H156918   2.155   4.621   1.690  2.0923  1.9214 -0.4304
11809TIP3    H256919   2.071   4.626   1.815 -2.0737 -2.1922 -2.7616
11810TIP3   OH256920   0.029   3.518  12.997  0.4229  0.9652 -0.2874
11810TIP3    H156921  -0.021   3.443  12.965 -2.5102  3.2650 -1.5040
11810TIP3    H256922   0.008   3.589  12.937 -0.2273  3.8571  3.0263
11811TIP3   OH256923   2.175   6.405   6.546  0.0987  0.0458 -0.1004
11811TIP3    H156924   2.143   6.321   6.580 -0.8055 -0.5892 -2.3686
11811TIP3    H256925   2.198   6.386   6.455  0.2948  2.1703 -0.5262
11812TIP3   OH256926   4.687   0.793  13.944  0.0537  0.2674 -0.4206
11812TIP3    H156927   4.680   0.881  13.980  0.5476  0.2479 -0.2604
11812TIP3    H256928   4.612   0.745  13.980 -0.9181  0.9501 -1.4836
11813TIP3   OH256929   2.283   1.521   1.663  0.4742  1.0138 -0.2137
11813TIP3    H156930   2.301   1.428   1.649 -1.6859  0.6817 -1.1832
11813TIP3    H256931   2.341   1.546   1.735  3.1572 -0.3427 -1.7360
11814TIP3   OH256932   1.933   2.888   6.243  0.5270  0.1821  0.0398
11814TIP3    H156933   1.851   2.932   6.264 -1.2449 -2.6018 -0.4421
11814TIP3    H256934   1.927   2.869   6.150  1.7219 -0.1045  0.0017
11815TIP3   OH256935   6.232   1.597   3.760 -0.3926 -0.4594  0.1448
11815TIP3    H156936   6.301   1.637   3.812  0.5365 -1.4101 -0.3288
11815TIP3    H256937   6.160   1.660   3.764 -0.2113 -0.3208  2.2171
11816TIP3   OH256938   0.097   1.999   2.559 -0.1139 -0.3561  0.1890
11816TIP3    H156939   0.111   2.013   2.653  2.2544 -0.9747 -0.0080
11816TIP3    H256940   0.117   2.084   2.520  1.0273 -0.6297  0.1167
11817TIP3   OH256941   4.470   5.783   2.177 -0.4447 -0.5178 -0.7462
11817TIP3    H156942   4.524   5.861   2.184 -0.6497 -0.3837 -0.6339
11817TIP3    H256943   4.487   5.735   2.258 -0.2157 -0.6540 -0.8773
11818TIP3   OH256944   2.479   2.263  17.401  0.5365  0.1267  0.0008
11818TIP3    H156945   2.544   2.322  17.363  0.2663  1.0704  0.9646
11818TIP3    H256946   2.524   2.221  17.473 -0.1475  1.4626  1.2531
11819TIP3   OH256947   5.793   1.638   1.339  0.7101 -0.6033  0.7831
11819TIP3    H156948   5.866   1.700   1.345 -0.2734  0.6065  0.5244
11819TIP3    H256949   5.764   1.627   1.430 -2.1387  3.0986  0.5456
11820TIP3   OH256950   1.108   4.651  17.203  0.2298 -0.0592  0.1640
11820TIP3    H156951   1.107   4.557  17.222 -0.1875 -0.1214 -0.1509
11820TIP3    H256952   1.201   4.673  17.195  0.2993 -0.6651 -0.8368
11821TIP3   OH256953   4.546   3.234   2.282 -0.0910 -0.5195 -0.1310
11821TIP3    H156954   4.603   3.183   2.224 -1.4650 -0.4953 -1.5643
11821TIP3    H256955   4.573   3.325   2.268  2.2510 -0.7210  2.3055
11822TIP3   OH256956   3.953   3.147  12.483 -0.0038 -0.5543  0.1466
11822TIP3    H156957   3.885   3.143  12.416  0.4221 -1.4274 -0.2482
11822TIP3    H256958   4.034   3.123  12.437  0.5046  0.0671  0.6990
11823TIP3   OH256959   5.401   5.963  15.260  0.7342 -0.4604  0.9571
11823TIP3    H156960   5.477   6.010  15.295  1.4817 -0.9605  0.0582
11823TIP3    H256961   5.413   5.965  15.165  0.2479 -1.5733  0.8545
11824TIP3   OH256962   3.412   4.016  13.765 -0.1759 -0.3118  0.2557
11824TIP3    H156963   3.360   3.936  13.780 -0.0588 -0.2986  0.7646
11824TIP3    H256964   3.406   4.031  13.671  0.3651 -1.3091  0.0538
11825TIP3   OH256965   4.992   6.572  14.658 -0.1476  0.0396 -0.1875
11825TIP3    H156966   4.999   6.541  14.748  2.6419 -1.4076 -0.7758
11825TIP3    H256967   4.962   6.496  14.608 -1.9229  0.9027 -0.4886
11826TIP3   OH256968   6.410   3.947  12.025 -0.1903 -0.0281  0.1069
11826TIP3    H156969   6.414   3.978  11.934 -0.3071 -3.0926 -1.0450
11826TIP3    H256970   6.330   3.895  12.029  0.0861 -0.3713  1.8525
11827TIP3   OH256971   6.273   1.365  17.461  0.1214  0.0043  0.3738
11827TIP3    H156972   6.187   1.405  17.449  0.5986  0.8772 -0.2358
11827TIP3    H256973   6.291   1.323  17.378 -0.2231 -1.2369  0.8964
11828TIP3   OH256974   3.888   4.020   3.177 -0.2227 -0.2232  0.9813
11828TIP3    H156975   3.854   3.983   3.096  0.6899 -0.4783  0.7100
11828TIP3    H256976   3.905   4.112   3.156  3.5681 -1.0594 -0.3191
11829TIP3   OH256977   2.222   6.669   2.962 -0.4422  0.2585  0.2249
11829TIP3    H156978   2.313   6.686   2.937 -0.3993  0.5420  0.5626
11829TIP3    H256979   2.224   6.582   3.003 -0.6306 -0.5207 -1.3387
11830TIP3   OH256980   0.399   4.439  13.928 -0.9074 -0.5977  0.0953
11830TIP3    H156981   0.447   4.356  13.935  0.4825  0.3152  2.6894
11830TIP3    H256982   0.461   4.498  13.885 -1.0452 -0.3116  0.2899
11831TIP3   OH256983   1.425   4.210   2.214  0.5336 -0.1168  0.6347
11831TIP3    H156984   1.510   4.227   2.255  1.0726  0.7013 -0.7735
11831TIP3    H256985   1.443   4.144   2.148 -0.2048 -0.9195  1.1994
11832TIP3   OH256986   2.822   1.700   0.417  0.7078  0.3863 -0.2009
11832TIP3    H156987   2.863   1.615   0.406 -1.0957 -0.5632  0.0269
11832TIP3    H256988   2.729   1.681   0.428  0.3021  2.3597  0.2543
11833TIP3   OH256989   5.349   3.119   0.862 -0.2081 -0.2964  0.0421
11833TIP3    H156990   5.406   3.190   0.830 -2.0345  0.7249 -1.1124
11833TIP3    H256991   5.336   3.140   0.954 -0.7726  0.9347 -0.2975
11834TIP3   OH256992   4.009   5.264  11.301  0.4943  0.3932  0.3121
11834TIP3    H156993   4.048   5.345  11.270 -1.1066  0.7769 -0.8446
11834TIP3    H256994   3.920   5.289  11.326  0.3635 -0.7826  1.0795
11835TIP3   OH256995   4.692   2.054  11.186  0.4031  0.3465  0.0234
11835TIP3    H156996   4.731   2.058  11.099 -0.3838  3.1182 -0.3047
11835TIP3    H256997   4.721   1.970  11.223  3.6776  0.6947 -1.5199
11836TIP3   OH256998   0.512   0.401   2.120 -0.3540  0.7847 -0.5384
11836TIP3    H156999   0.583   0.427   2.179 -1.7603  0.1486  1.5562
11836TIP3    H257000   0.512   0.468   2.052  2.9229  0.2063 -1.2970
11837TIP3   OH257001   1.821   0.176  13.813 -0.5778 -0.0174 -0.5013
11837TIP3    H157002   1.887   0.107  13.806  0.4071  0.9972 -1.4742
11837TIP3    H257003   1.870   0.257  13.809 -1.8135  0.7628 -0.3420
11838TIP3   OH257004   6.514   0.129  10.869  0.1358  0.0186  0.3766
11838TIP3    H157005   6.466   0.061  10.915 -1.1045  1.2180  0.9069
11838TIP3    H257006   6.472   0.211  10.895  0.4821  0.8709 -1.5566
11839TIP3   OH257007   4.269   1.886   4.515  0.5064  0.3220  0.3282
11839TIP3    H157008   4.218   1.949   4.565 -1.4965  0.2173 -1.4516
11839TIP3    H257009   4.214   1.807   4.512  1.0458 -0.0438 -1.0598
11840TIP3   OH257010   3.058   5.201  11.662 -0.0827  0.2810  0.1771
11840TIP3    H157011   3.086   5.252  11.586 -0.3668 -1.2764 -1.0287
11840TIP3    H257012   3.074   5.110  11.636 -2.6545 -0.4536  0.9122
11841TIP3   OH257013   0.912   5.325  16.064  0.1211  0.0813 -0.7018
11841TIP3    H157014   1.006   5.320  16.048  0.8093  0.0078  2.6238
11841TIP3    H257015   0.894   5.419  16.074 -0.0114  0.0463 -0.6049
11842TIP3   OH257016   4.164   2.536  14.009  0.0212  0.3302  0.0863
11842TIP3    H157017   4.247   2.519  14.053  0.3527 -0.0001 -0.6515
11842TIP3    H257018   4.134   2.449  13.980  0.1120  0.6041 -0.8633
11843TIP3   OH257019   0.904   2.625  16.082 -0.3559 -0.1418  0.4047
11843TIP3    H157020   0.888   2.542  16.036  0.2715 -0.0741  0.0566
11843TIP3    H257021   0.931   2.598  16.170 -0.3094 -0.3049  0.3425
11844TIP3   OH257022   3.361   0.346  11.495  0.5771 -0.0654  0.4158
11844TIP3    H157023   3.381   0.366  11.404  2.3880  0.3135  0.8578
11844TIP3    H257024   3.446   0.337  11.537 -0.2155 -0.1616  2.0953
11845TIP3   OH257025   0.854   2.333   1.247 -0.1891  0.1693 -0.0466
11845TIP3    H157026   0.883   2.354   1.336  0.0354  1.3849 -0.3827
11845TIP3    H257027   0.760   2.316   1.256 -0.7312  2.7758  0.1015
11846TIP3   OH257028   6.647   4.295   1.981 -0.2234 -0.1635 -0.1829
11846TIP3    H157029   6.554   4.285   1.958 -0.4994 -1.1661  1.2592
11846TIP3    H257030   6.685   4.209   1.965  1.4550  1.1413 -4.6042
11847TIP3   OH257031   3.596   2.258   0.681  0.1955  0.0531 -0.1377
11847TIP3    H157032   3.671   2.318   0.686  2.1904 -2.3168  0.0226
11847TIP3    H257033   3.534   2.294   0.745 -0.7222  4.3103 -2.9402
11848TIP3   OH257034   0.982   1.091  16.984 -0.3522  0.0398 -0.2563
11848TIP3    H157035   1.028   1.163  16.941  0.4409 -1.3551 -1.8600
11848TIP3    H257036   0.889   1.113  16.973 -0.1648 -0.0275 -2.3403
11849TIP3   OH257037   3.897   6.194  15.692  0.0276 -0.0435  0.1011
11849TIP3    H157038   3.984   6.206  15.731 -0.5612 -0.1962  1.5534
11849TIP3    H257039   3.856   6.280  15.699 -0.0535 -0.0495 -0.2921
11850TIP3   OH257040   3.746   2.139   5.194 -0.6643 -0.3073  0.3688
11850TIP3    H157041   3.655   2.116   5.213 -1.8041  2.5007 -1.0918
11850TIP3    H257042   3.740   2.198   5.119  2.2743  1.0207  1.0733
11851TIP3   OH257043   5.879   3.278   3.451 -0.0690 -0.4047 -0.0802
11851TIP3    H157044   5.964   3.234   3.451  0.0486 -0.2636 -2.1452
11851TIP3    H257045   5.817   3.209   3.472  0.4899 -0.6394  0.8589
11852TIP3   OH257046   2.038   0.417   4.473 -0.5499 -0.3723 -0.1984
11852TIP3    H157047   2.095   0.372   4.534 -1.0059 -0.6238  0.0450
11852TIP3    H257048   1.996   0.486   4.525 -0.8415 -0.5032 -0.2594
11853TIP3   OH257049   4.282   6.475   6.984  0.5378  0.2416  0.5690
11853TIP3    H157050   4.329   6.511   6.909 -1.4505 -0.3905 -1.0913
11853TIP3    H257051   4.323   6.390   6.999 -1.2500 -1.2875 -2.2592
11854TIP3   OH257052   1.505   5.209  13.005 -0.6866 -0.0517 -0.3863
11854TIP3    H157053   1.491   5.295  13.044 -0.5520  0.2955 -1.0957
11854TIP3    H257054   1.546   5.227  12.921 -0.7456 -0.8082 -0.5836
11855TIP3   OH257055   2.945   4.173   0.649 -0.0348  0.4733 -0.3735
11855TIP3    H157056   2.914   4.170   0.559 -1.0490  0.5923 -0.0414
11855TIP3    H257057   2.866   4.187   0.701  0.2554 -1.5565  0.6980
11856TIP3   OH257058   3.653   6.695   0.588  0.0768  0.6665  0.1295
11856TIP3    H157059   3.644   6.763   0.655 -0.8799  0.1367  0.5614
11856TIP3    H257060   3.731   6.647   0.614  1.0669  1.8827 -0.4630
11857TIP3   OH257061   2.451   4.370  14.988  0.4155 -0.2090 -0.6039
11857TIP3    H157062   2.458   4.278  15.015 -2.8643 -0.5509 -0.4100
11857TIP3    H257063   2.466   4.369  14.894  0.0597 -1.0454 -0.6599
11858TIP3   OH257064   2.955   0.336   3.004  0.1347  0.1642 -0.6139
11858TIP3    H157065   3.018   0.282   2.956 -0.2693 -0.7539 -0.1317
11858TIP3    H257066   2.889   0.361   2.940 -0.0157 -0.4540 -0.7042
11859TIP3   OH257067   4.599   4.034  12.315  0.6808  0.0322  0.5883
11859TIP3    H157068   4.572   3.982  12.239 -0.6465 -0.1794  1.1702
11859TIP3    H257069   4.671   4.088  12.283  0.3879 -0.3143 -0.7238
11860TIP3   OH257070   5.149   5.889  15.123  0.1153 -0.1651  0.7164
11860TIP3    H157071   5.204   5.957  15.083 -0.2166 -0.0393  0.4733
11860TIP3    H257072   5.127   5.830  15.051 -2.3911  1.3059  0.1587
11861TIP3   OH257073   1.053   2.225  15.936 -0.3104  0.3303 -0.6618
11861TIP3    H157074   1.102   2.173  15.873  0.4494  0.2971 -0.0594
11861TIP3    H257075   1.083   2.195  16.022  0.7640  2.2849 -0.2821
11862TIP3   OH257076   1.159   6.288  16.497  0.6411 -0.0589  0.1980
11862TIP3    H157077   1.065   6.285  16.514  0.7160 -0.8983  0.4932
11862TIP3    H257078   1.178   6.204  16.454  1.6364 -0.8882  2.1444
11863TIP3   OH257079   6.047   4.875   3.640 -0.3864 -0.0083  0.2766
11863TIP3    H157080   5.967   4.867   3.692  0.3590  0.4976  1.5466
11863TIP3    H257081   6.096   4.946   3.681  0.2260  0.4425 -1.1596
11864TIP3   OH257082   0.930   6.213   3.426  0.1168 -0.3352  0.1505
11864TIP3    H157083   0.997   6.247   3.367 -0.7579  0.7920 -0.2212
11864TIP3    H257084   0.854   6.199   3.370 -0.1307 -1.1082  0.6651
11865TIP3   OH257085   5.031   1.013   4.162  0.0004 -0.4221  0.1928
11865TIP3    H157086   4.998   0.953   4.095  1.6154 -0.3368 -0.7198
11865TIP3    H257087   5.120   0.983   4.180  0.2559  0.7139  0.9238
11866TIP3   OH257088   4.113   0.869   4.682  0.2047  0.5741  0.1439
11866TIP3    H157089   4.115   0.791   4.737  0.7103  0.7816  0.4288
11866TIP3    H257090   4.020   0.891   4.675  0.0036 -0.3735 -0.4109
11867TIP3   OH257091   1.387   5.937  14.935  0.2497  0.0542  0.0788
11867TIP3    H157092   1.320   5.917  15.001  0.4101 -2.1600 -0.3785
11867TIP3    H257093   1.408   5.853  14.896  0.2532  1.2718 -2.7581
11868TIP3   OH257094   5.322   3.381  12.545  0.0211 -0.1686 -0.1774
11868TIP3    H157095   5.271   3.324  12.488  0.3753 -0.2233 -0.4453
11868TIP3    H257096   5.258   3.418  12.606 -0.1256 -1.3701  0.4379
11869TIP3   OH257097   2.514   0.620  14.142 -0.5286  0.4789 -0.6847
11869TIP3    H157098   2.585   0.569  14.102 -1.5693 -0.2542 -1.6656
11869TIP3    H257099   2.558   0.695  14.181  0.9018 -0.4636 -0.3903
11870TIP3   OH257100   3.276   2.424  16.007  0.1879 -0.2547 -0.6099
11870TIP3    H157101   3.322   2.346  16.037 -1.6772 -1.2550 -0.1735
11870TIP3    H257102   3.323   2.497  16.047  2.0149 -1.1173 -1.0733
11871TIP3   OH257103   6.197   4.758  12.059 -0.2590  0.1539  0.3763
11871TIP3    H157104   6.169   4.678  12.014 -1.3228  0.3595  0.6379
11871TIP3    H257105   6.166   4.747  12.149 -0.5373  0.9088  0.3822
11872TIP3   OH257106   3.588   1.636   6.449  0.2159 -0.7009 -0.5710
11872TIP3    H157107   3.614   1.690   6.374 -1.2420  0.7042 -0.1145
11872TIP3    H257108   3.671   1.617   6.493  0.8876  0.2598 -1.3606
11873TIP3   OH257109   2.896   0.087  15.984  0.3370  0.1793 -0.1479
11873TIP3    H157110   2.900  -0.008  15.998 -1.5227  0.3956  2.8144
11873TIP3    H257111   2.822   0.099  15.925 -0.2703 -0.1986  0.5133
11874TIP3   OH257112   0.306   5.793  17.380  0.0838  0.0447 -0.1728
11874TIP3    H157113   0.280   5.717  17.330 -0.8997  0.5615 -0.4693
11874TIP3    H257114   0.307   5.763  17.471  1.0455 -0.6687 -0.4042
11875TIP3   OH257115   4.719   0.824   0.946 -0.4601 -0.0661  0.1694
11875TIP3    H157116   4.722   0.890   0.877 -0.5988 -0.9500 -0.7001
11875TIP3    H257117   4.801   0.835   0.993 -0.3590  0.5430 -0.1425
11876TIP3   OH257118   2.595   5.051  17.553 -0.4131 -0.2243 -0.5019
11876TIP3    H157119   2.587   5.147  17.554  1.3306 -0.0424 -0.0525
11876TIP3    H257120   2.679   5.034  17.511  0.0352 -1.4730  0.8079
11877TIP3   OH257121   4.894   3.381  12.558  0.4893  0.3109 -0.4214
11877TIP3    H157122   4.898   3.287  12.539  0.3026  0.2998 -0.4045
11877TIP3    H257123   4.805   3.407  12.534 -0.2526 -0.0053  1.7313
11878TIP3   OH257124   5.728   2.963  16.248  0.6519 -0.2504  0.2064
11878TIP3    H157125   5.817   2.967  16.284  1.1757 -2.1767 -0.7434
11878TIP3    H257126   5.701   2.871  16.260 -1.4642  0.4057  1.0080
11879TIP3   OH257127   3.818   3.406   1.215  0.2116  0.4931  0.6383
11879TIP3    H157128   3.816   3.416   1.310 -0.0546 -1.1475  0.8431
11879TIP3    H257129   3.733   3.368   1.193  0.9277 -0.8316 -0.0035
11880TIP3   OH257130   0.758   6.695   3.267 -0.2586 -0.5141 -0.4701
11880TIP3    H157131   0.778   6.733   3.353 -0.9143 -1.2832  0.0438
11880TIP3    H257132   0.812   6.744   3.206 -0.5418  0.7568  0.2482
11881TIP3   OH257133   0.198   2.080  16.290 -0.2693 -0.1332  0.4241
11881TIP3    H157134   0.218   2.165  16.329  0.3860 -1.0719  2.2328
11881TIP3    H257135   0.280   2.031  16.297 -1.2081 -1.6274  1.4092
11882TIP3   OH257136   3.878   6.605  15.970  0.2617  0.4250  0.4032
11882TIP3    H157137   3.843   6.615  16.058  1.4597  0.4642  0.8870
11882TIP3    H257138   3.969   6.577  15.983  0.2388 -0.3018 -0.8246
11883TIP3   OH257139   5.805   2.186   5.767 -0.3599  0.2597  0.6101
11883TIP3    H157140   5.796   2.117   5.702 -0.3877  1.9434 -1.2971
11883TIP3    H257141   5.869   2.152   5.830  0.4733 -1.0737 -0.8779
11884TIP3   OH257142   3.861   5.842  14.925 -0.0858 -0.6138 -0.0331
11884TIP3    H157143   3.876   5.906  14.994  3.6148 -0.1816 -1.0211
11884TIP3    H257144   3.946   5.799  14.913 -0.3605 -0.3633 -4.5385
11885TIP3   OH257145   3.924   0.952  13.873 -0.1525  0.0899 -0.4964
11885TIP3    H157146   3.883   0.993  13.797  0.3636 -0.9533 -1.3634
11885TIP3    H257147   4.014   0.935  13.846  0.3644  0.7070  0.7429
11886TIP3   OH257148   1.733   2.275  11.389 -0.5601 -0.1669 -0.0014
11886TIP3    H157149   1.811   2.263  11.335 -0.2616 -2.2640  0.7959
11886TIP3    H257150   1.661   2.238  11.337 -0.7558  0.2898 -0.0644
11887TIP3   OH257151   0.517   5.826  15.969 -0.1799 -0.2237  0.5804
11887TIP3    H157152   0.552   5.902  16.016  0.4755  0.3722 -0.7973
11887TIP3    H257153   0.547   5.751  16.020  0.7981  0.3809  0.9422
11888TIP3   OH257154   4.119   1.614   1.897  0.4542  0.6714  0.1739
11888TIP3    H157155   4.184   1.556   1.858  1.2904  0.8307  1.2623
11888TIP3    H257156   4.167   1.661   1.966 -0.2373  2.5163 -0.5296
11889TIP3   OH257157   1.570   1.577  16.869 -0.1575 -0.4679 -0.3204
11889TIP3    H157158   1.489   1.572  16.921  0.7624  1.1287  1.3956
11889TIP3    H257159   1.553   1.646  16.805 -0.5627 -0.9967 -0.7970
11890TIP3   OH257160   3.660   1.852   6.766 -0.8731  0.1344 -0.2589
11890TIP3    H157161   3.667   1.925   6.828  1.0669 -1.4497  1.5630
11890TIP3    H257162   3.632   1.892   6.684 -0.3178  2.8335  0.7691
11891TIP3   OH257163   5.200   5.981   2.403  0.3788 -0.3207 -0.3173
11891TIP3    H157164   5.169   6.050   2.344 -2.7060 -1.8136 -0.6525
11891TIP3    H257165   5.231   5.912   2.345 -1.5651 -1.3114 -0.2631
11892TIP3   OH257166   0.154   2.953   3.182 -0.0063 -0.1147 -0.1438
11892TIP3    H157167   0.223   3.012   3.214 -1.4453  0.9138  1.1952
11892TIP3    H257168   0.198   2.900   3.115  2.3716 -0.2004  1.3332
11893TIP3   OH257169   5.326   0.995  16.421  0.3032  0.6488 -0.0278
11893TIP3    H157170   5.362   0.910  16.448  0.1807  0.8943  0.9582
11893TIP3    H257171   5.397   1.035  16.370  0.4313  0.0341 -0.3429
11894TIP3   OH257172   1.152   4.215   5.354 -0.6194  0.1717  0.1538
11894TIP3    H157173   1.112   4.169   5.428  1.2679 -0.3035  0.9259
11894TIP3    H257174   1.121   4.168   5.277 -1.0791 -0.5450  0.7585
11895TIP3   OH257175   6.104   2.247  14.947 -0.0752 -0.6626 -0.4887
11895TIP3    H157176   6.047   2.281  14.879 -0.9882  1.0984  1.0694
11895TIP3    H257177   6.044   2.220  15.017  0.8327 -2.3592 -0.2990
11896TIP3   OH257178   0.895   5.667  15.256  0.2505  0.1644  0.2486
11896TIP3    H157179   0.961   5.601  15.237  0.2960 -0.0196  1.0228
11896TIP3    H257180   0.828   5.653  15.189  0.2868 -0.6363  0.3657
11897TIP3   OH257181   3.503   3.578   5.533 -0.0892 -0.2314 -0.2924
11897TIP3    H157182   3.495   3.484   5.548 -1.3889  0.0500  0.9860
11897TIP3    H257183   3.471   3.591   5.444  0.7161 -1.0613 -0.7184
11898TIP3   OH257184   2.631   1.795   5.681  0.0746 -0.0803 -0.0618
11898TIP3    H157185   2.619   1.757   5.768 -0.1146  0.1047 -0.0060
11898TIP3    H257186   2.726   1.802   5.671  0.2079 -1.9745 -0.6820
11899TIP3   OH257187   6.124   6.646   0.187  0.4630 -0.3999  0.5119
11899TIP3    H157188   6.096   6.652   0.278  1.0774 -0.4505  0.7038
11899TIP3    H257189   6.067   6.578   0.149 -0.7316  0.5672  0.4902
11900TIP3   OH257190   1.394   0.303   6.676  0.3978 -0.0152  0.4832
11900TIP3    H157191   1.326   0.243   6.704  0.5323 -0.6890 -0.5658
11900TIP3    H257192   1.354   0.390   6.682 -0.1484 -0.3018  1.0035
11901TIP3   OH257193   3.612   4.884   3.253 -0.6938  0.0716  0.1335
11901TIP3    H157194   3.552   4.811   3.267 -3.5085  2.1873  0.0453
11901TIP3    H257195   3.555   4.958   3.231  2.0963  1.8744 -1.7419
11902TIP3   OH257196   2.355   4.793   0.367  0.5115 -0.1552 -0.0849
11902TIP3    H157197   2.301   4.719   0.395 -1.7583  1.2301 -0.5195
11902TIP3    H257198   2.392   4.766   0.283 -0.4097 -0.7642 -0.3121
11903TIP3   OH257199   0.532   6.221  15.960  0.2611 -0.1465 -0.3460
11903TIP3    H157200   0.603   6.160  15.982  0.3312  0.6133  1.7370
11903TIP3    H257201   0.452   6.177  15.991  0.1776  0.3072  0.0884
11904TIP3   OH257202   2.093   2.553   7.056 -0.1808  0.8931 -0.3054
11904TIP3    H157203   2.066   2.495   7.127 -0.1462  2.0057  0.6593
11904TIP3    H257204   2.119   2.495   6.985  0.5109 -0.2727  0.8655
11905TIP3   OH257205   3.001   2.724   3.247 -0.1329 -0.2026 -0.5138
11905TIP3    H157206   3.070   2.680   3.297  0.8707 -0.0290 -1.6968
11905TIP3    H257207   2.926   2.666   3.254  0.7719 -1.4890 -0.9319
11906TIP3   OH257208   2.863   1.226  16.716 -0.0133 -0.0912  0.4116
11906TIP3    H157209   2.919   1.202  16.790 -0.5561 -0.4369  0.7161
11906TIP3    H257210   2.896   1.172  16.643 -0.6642 -1.1529  0.8710
11907TIP3   OH257211   5.311   5.765   0.603 -0.6057 -0.8931 -0.2447
11907TIP3    H157212   5.373   5.798   0.538  0.5175 -2.6417 -0.1153
11907TIP3    H257213   5.229   5.757   0.556 -0.2015 -0.6185 -1.0136
11908TIP3   OH257214   3.537   0.970   3.356  0.4141  0.5254  0.0270
11908TIP3    H157215   3.615   0.914   3.360  0.1387 -0.0004 -1.4415
11908TIP3    H257216   3.566   1.048   3.309  0.1042  0.3940 -0.3893
11909TIP3   OH257217   6.064   4.028   4.005  0.1884 -0.3833  0.3251
11909TIP3    H157218   6.123   4.085   4.054  1.6477 -0.5866 -1.1035
11909TIP3    H257219   6.079   3.941   4.042 -0.7353 -0.1546  1.3043
11910TIP3   OH257220   5.488   4.115  13.824  0.4276 -0.1035  0.1048
11910TIP3    H157221   5.552   4.055  13.785  1.7935  0.4375  1.4287
11910TIP3    H257222   5.516   4.125  13.915  0.9138  3.3002 -0.2737
11911TIP3   OH257223   1.527   3.674   1.074 -0.0030  0.7543 -0.6210
11911TIP3    H157224   1.449   3.621   1.060 -0.4111  1.0265  0.5065
11911TIP3    H257225   1.506   3.759   1.036 -0.9030  1.3326  1.0843
11912TIP3   OH257226   4.598   5.337   1.359 -0.5179 -0.3146 -0.8775
11912TIP3    H157227   4.622   5.250   1.327  0.4335  0.0371 -1.1364
11912TIP3    H257228   4.535   5.320   1.429  1.0852 -1.2974  0.3790
11913TIP3   OH257229   3.257   2.347   5.932 -0.1491  0.7410  0.2424
11913TIP3    H157230   3.188   2.335   5.867  0.1393  0.2263  0.0292
11913TIP3    H257231   3.331   2.382   5.883  0.1316  0.1746  0.2551
11914TIP3   OH257232   0.545   4.395   2.702  0.1526  0.1999 -1.3051
11914TIP3    H157233   0.504   4.330   2.759 -0.1366  0.1640 -1.5491
11914TIP3    H257234   0.499   4.477   2.723  1.0055  0.4936 -0.4758
11915TIP3   OH257235   2.126   2.623  11.778 -0.1160  0.2099 -0.1745
11915TIP3    H157236   2.112   2.695  11.717 -1.6774  0.7174  0.7273
11915TIP3    H257237   2.217   2.598  11.766  0.0259  1.3147 -1.5955
11916TIP3   OH257238   4.080   3.354  16.566 -0.0840  0.6339 -0.1911
11916TIP3    H157239   4.145   3.364  16.496 -1.2631  0.3419 -1.3666
11916TIP3    H257240   4.116   3.403  16.639  2.0709 -0.5713 -0.3681
11917TIP3   OH257241   5.556   1.538   4.485  0.0013 -0.3280 -0.2984
11917TIP3    H157242   5.588   1.450   4.500  1.5005  0.1725 -0.4381
11917TIP3    H257243   5.565   1.582   4.570 -1.8477 -0.6063  0.0926
11918TIP3   OH257244   5.050   5.433  15.202  0.4269 -0.5087 -0.2950
11918TIP3    H157245   5.117   5.428  15.135 -0.9943 -0.0145 -1.8321
11918TIP3    H257246   5.087   5.387  15.277  1.5437 -2.3065 -1.8668
11919TIP3   OH257247   2.557   1.572   4.284  0.5678  0.2557  0.1060
11919TIP3    H157248   2.524   1.488   4.251  1.4476 -0.5201  1.0944
11919TIP3    H257249   2.492   1.636   4.257 -0.3681 -0.8231 -0.2776
11920TIP3   OH257250   3.276   5.510   6.214 -0.9512  0.0321  0.6741
11920TIP3    H157251   3.252   5.438   6.273 -0.2992 -0.0146  0.8867
11920TIP3    H257252   3.192   5.546   6.185 -1.2881 -0.8205  0.5543
11921TIP3   OH257253   5.718   3.276   3.948 -0.4454  0.1707  0.3098
11921TIP3    H157254   5.760   3.299   4.031  0.4923 -0.7039  0.0947
11921TIP3    H257255   5.718   3.181   3.947  0.3107  0.1677 -1.0689
11922TIP3   OH257256   1.645   5.803   2.758 -0.3289  0.6048 -0.3967
11922TIP3    H157257   1.656   5.714   2.793 -1.0315  0.8052  0.3623
11922TIP3    H257258   1.585   5.792   2.684 -1.1216  0.5543  0.2399
11923TIP3   OH257259   6.322   4.533   2.993 -0.0899  0.3065 -0.8412
11923TIP3    H157260   6.237   4.573   2.976 -0.6685 -1.0980 -1.4012
11923TIP3    H257261   6.329   4.534   3.088  0.3969  2.6299 -0.8382
11924TIP3   OH257262   0.605   5.828  11.192 -0.5524  0.0916 -0.4218
11924TIP3    H157263   0.681   5.880  11.163 -1.6920  0.5515 -2.8797
11924TIP3    H257264   0.607   5.750  11.136 -1.7763  0.0316 -0.4123
11925TIP3   OH257265   3.672   1.581  16.225  0.1521 -0.2555  0.0963
11925TIP3    H157266   3.658   1.659  16.279  1.7473  0.8267 -0.9297
11925TIP3    H257267   3.659   1.612  16.135  0.4561 -1.2668 -0.3080
11926TIP3   OH257268   5.656   5.371   1.052 -0.0675 -0.0738  0.0923
11926TIP3    H157269   5.695   5.340   0.969 -0.8386 -0.3850 -0.1638
11926TIP3    H257270   5.729   5.411   1.099  0.1524  1.1833 -1.2465
11927TIP3   OH257271   1.441   0.793   1.011 -0.1491 -0.5902 -0.3204
11927TIP3    H157272   1.371   0.787   0.946  0.0839  2.1804 -0.9425
11927TIP3    H257273   1.423   0.721   1.073 -2.6250 -0.8954 -1.2942
11928TIP3   OH257274   5.714   1.291   5.469  0.0988 -0.3283  0.3748
11928TIP3    H157275   5.809   1.288   5.466  0.1039  0.1268 -2.5491
11928TIP3    H257276   5.693   1.385   5.468 -0.4136 -0.4122  1.5104
11929TIP3   OH257277   1.318   2.569  14.818  0.0780  0.3138 -0.5173
11929TIP3    H157278   1.314   2.640  14.755 -1.1291  0.8562  0.1320
11929TIP3    H257279   1.294   2.609  14.901  1.3245 -0.4521  0.2456
11930TIP3   OH257280   2.816   6.281  14.598 -0.5204 -0.2653  0.0240
11930TIP3    H157281   2.793   6.366  14.635 -1.1314 -0.7105  0.7077
11930TIP3    H257282   2.762   6.274  14.520  1.0836  0.8622 -1.2615
11931TIP3   OH257283   4.524   6.117  14.198  0.2143 -0.1092  0.2749
11931TIP3    H157284   4.502   6.080  14.284  1.1624  0.9760  1.0044
11931TIP3    H257285   4.439   6.144  14.162 -0.7102 -3.7773 -0.7535
11932TIP3   OH257286   1.945   0.151   0.387 -0.5354  0.0376 -0.2885
11932TIP3    H157287   1.966   0.170   0.478  0.1057 -0.3086 -0.3528
11932TIP3    H257288   1.855   0.178   0.376  0.0705  2.2467 -0.1616
11933TIP3   OH257289   5.969   4.692   2.090  0.5409 -0.8233 -0.8176
11933TIP3    H157290   5.963   4.640   2.010 -0.2403  0.0108 -1.3208
11933TIP3    H257291   5.911   4.767   2.074  0.4050 -0.6287  0.5134
11934TIP3   OH257292   6.063   5.172   5.726  0.7345  0.2099 -0.4213
11934TIP3    H157293   6.131   5.127   5.675  0.7791  1.6276 -1.6836
11934TIP3    H257294   6.109   5.201   5.805  1.6275  1.0925 -1.2286
11935TIP3   OH257295   0.137   5.595   4.092 -0.1496  0.2636 -0.6004
11935TIP3    H157296   0.057   5.552   4.122  0.4426  0.2758  1.0971
11935TIP3    H257297   0.174   5.535   4.027 -0.8232 -0.4144 -0.3669
11936TIP3   OH257298   6.512   5.462  17.484 -0.1977  0.2883 -0.0302
11936TIP3    H157299   6.447   5.424  17.425  1.3104  0.6059 -1.9816
11936TIP3    H257300   6.534   5.547  17.445  0.3781  0.8137  1.3579
11937TIP3   OH257301   4.287   2.711  12.246 -0.1351  0.6090  0.1725
11937TIP3    H157302   4.267   2.635  12.301 -0.1274 -0.9991 -1.9077
11937TIP3    H257303   4.201   2.747  12.224 -0.1423  1.1992  1.0992
11938TIP3   OH257304   4.706   6.044   5.216 -0.4656 -0.1923  0.2877
11938TIP3    H157305   4.755   5.968   5.249  0.0079  0.1930  0.4845
11938TIP3    H257306   4.626   6.045   5.268  0.1208  0.2118  1.2149
11939TIP3   OH257307   5.162   6.169  14.950  0.4086  0.0442 -0.1683
11939TIP3    H157308   5.101   6.197  15.019 -0.3969 -0.6910 -0.5590
11939TIP3    H257309   5.108   6.159  14.872  0.9969 -0.7359 -0.4986
11940TIP3   OH257310   5.236   5.854  12.546  0.0930 -0.2587  0.5807
11940TIP3    H157311   5.276   5.898  12.621 -0.7226  4.0177 -1.1947
11940TIP3    H257312   5.310   5.823  12.494  0.9417  1.9351  0.3942
11941TIP3   OH257313   5.124   1.867   5.079  0.5279  0.1003 -0.4188
11941TIP3    H157314   5.200   1.825   5.038  0.9339 -0.3955  0.7945
11941TIP3    H257315   5.163   1.931   5.139  0.0130 -0.3963  0.4675
11942TIP3   OH257316   4.727   3.824  13.833  0.0807  0.3633 -0.1797
11942TIP3    H157317   4.646   3.773  13.825 -0.0316  0.6386 -0.8316
11942TIP3    H257318   4.785   3.787  13.767 -0.6421  2.2733 -1.9891
11943TIP3   OH257319   2.817   3.318  15.473 -0.5811 -0.0972 -0.8669
11943TIP3    H157320   2.775   3.330  15.388  0.9629  0.6344 -1.5732
11943TIP3    H257321   2.874   3.394  15.482  2.0718 -1.9318 -0.8878
11944TIP3   OH257322   1.956   1.261   2.315  0.8670  0.2726 -0.2490
11944TIP3    H157323   1.896   1.222   2.379  1.8566 -0.8992  0.0089
11944TIP3    H257324   1.938   1.215   2.233  0.6070  0.7478 -0.4611
11945TIP3   OH257325   4.104   4.714  12.358  0.0329  0.3428  0.3691
11945TIP3    H157326   4.145   4.694  12.273  0.1083  2.0320 -0.0146
11945TIP3    H257327   4.173   4.757  12.408 -0.2721  0.1138  0.9861
11946TIP3   OH257328   3.013   4.541  15.435  0.0469 -0.3816 -0.0852
11946TIP3    H157329   2.939   4.560  15.493  1.3446 -1.4572  2.0175
11946TIP3    H257330   3.040   4.627  15.402  0.1924  0.4699  2.0916
11947TIP3   OH257331   1.939   4.933   6.242  0.2466  0.1608 -0.0602
11947TIP3    H157332   1.943   4.844   6.278  0.8361  0.0158 -0.4544
11947TIP3    H257333   1.925   4.989   6.318  2.7805 -0.0117  0.6479
11948TIP3   OH257334   5.237   1.887  15.291 -0.3747 -1.0045 -0.1365
11948TIP3    H157335   5.301   1.897  15.221  0.1313  0.1278  0.4439
11948TIP3    H257336   5.201   1.975  15.303  0.2005 -0.9664  1.6085
11949TIP3   OH257337   1.262   1.733  14.967  0.2457  0.6699 -0.4070
11949TIP3    H157338   1.269   1.718  14.872 -1.3966 -2.2807 -0.1632
11949TIP3    H257339   1.352   1.733  14.998  0.7207 -1.5065 -1.5986
11950TIP3   OH257340   4.366   4.112  16.996 -0.4657  0.1662 -0.2402
11950TIP3    H157341   4.304   4.046  17.027 -0.0610  0.2945  0.8815
11950TIP3    H257342   4.333   4.137  16.909 -2.0930  0.3558  0.3912
11951TIP3   OH257343   3.403   0.604  13.684  0.2056  0.1413  0.0455
11951TIP3    H157344   3.375   0.518  13.716 -1.5885 -0.4723 -2.8179
11951TIP3    H257345   3.484   0.588  13.637 -0.2975 -0.0803 -0.7637
11952TIP3   OH257346   4.330   2.617   0.201 -0.0260  0.0501  0.5444
11952TIP3    H157347   4.312   2.680   0.131 -0.5445  1.5011  1.9395
11952TIP3    H257348   4.344   2.534   0.155 -0.5620  0.9081 -1.2583
11953TIP3   OH257349   5.641   3.498   2.360  0.5954  0.1643  0.6948
11953TIP3    H157350   5.684   3.433   2.305  0.6223 -0.5827  1.5619
11953TIP3    H257351   5.655   3.466   2.450 -0.8271  0.4782  1.0547
11954TIP3   OH257352   3.036   6.081   1.234  0.0185  0.4875 -0.3097
11954TIP3    H157353   3.027   6.176   1.222  0.1547  0.3292 -1.7833
11954TIP3    H257354   3.015   6.043   1.149 -3.0399 -1.0586  0.9999
11955TIP3   OH257355   4.536   2.742  15.060 -0.1430 -0.5511  0.5775
11955TIP3    H157356   4.541   2.648  15.042  1.8773 -0.1839 -1.1211
11955TIP3    H257357   4.611   2.759  15.118  0.9105  0.3331 -0.9754
11956TIP3   OH257358   3.359   2.789  14.376  0.4150  0.7148 -0.5145
11956TIP3    H157359   3.270   2.778  14.342  0.0189  0.5136  0.5434
11956TIP3    H257360   3.407   2.716  14.338 -0.0303  0.4524 -0.5880
11957TIP3   OH257361   0.099   5.417   0.541 -0.2807  0.2513  0.2895
11957TIP3    H157362   0.072   5.417   0.450 -1.6031 -4.4771  0.4317
11957TIP3    H257363   0.017   5.411   0.590  0.4945 -1.2441  1.4921
11958TIP3   OH257364   4.062   5.352   1.967  0.2928 -0.2040 -0.4494
11958TIP3    H157365   4.010   5.405   2.027 -0.9980 -1.1221 -0.7130
11958TIP3    H257366   4.080   5.411   1.893  3.1027  1.4098  1.3036
11959TIP3   OH257367   6.303   4.170  12.135 -0.0666  0.0899 -0.1234
11959TIP3    H157368   6.334   4.205  12.219  0.4461  0.5197 -0.4854
11959TIP3    H257369   6.378   4.122  12.099 -1.0827 -2.4134  0.8756
11960TIP3   OH257370   0.627   0.305   3.176  0.0418  0.1118 -0.3184
11960TIP3    H157371   0.604   0.276   3.088  0.6288  2.2302 -1.2322
11960TIP3    H257372   0.608   0.399   3.177  0.9360  0.3292  1.4972
11961TIP3   OH257373   6.617   0.238  13.112  0.0197  0.3892 -0.2833
11961TIP3    H157374   6.559   0.165  13.133  0.5500  0.0282 -0.0351
11961TIP3    H257375   6.579   0.277  13.034 -2.0973  1.8578  1.3619
11962TIP3   OH257376   4.367   6.466   2.949 -0.0108 -0.2119  0.3553
11962TIP3    H157377   4.438   6.423   2.901  0.8268 -0.9239  2.1637
11962TIP3    H257378   4.287   6.429   2.911  0.6599 -1.8575  0.4896
11963TIP3   OH257379   3.078   2.294   5.684 -0.5866 -0.5908 -0.3038
11963TIP3    H157380   3.116   2.290   5.597 -1.6304 -1.0454 -0.7504
11963TIP3    H257381   3.049   2.384   5.694  0.0832 -0.3795 -0.1695
11964TIP3   OH257382   6.699   4.336  12.272  0.1986 -0.0705 -0.0213
11964TIP3    H157383   6.635   4.277  12.311 -0.6550  0.1989 -0.9642
11964TIP3    H257384   6.728   4.291  12.193  1.6260 -0.4469  0.6932
11965TIP3   OH257385   5.065   4.384  15.805 -0.0088  0.4218  0.0961
11965TIP3    H157386   5.108   4.402  15.722 -0.0138 -0.7840 -0.1776
11965TIP3    H257387   5.107   4.305  15.838 -0.1284  0.7851  1.1605
11966TIP3   OH257388   0.362   1.047   3.318  0.5953  0.2417  0.0048
11966TIP3    H157389   0.439   1.051   3.376  2.4612  0.2028 -2.3127
11966TIP3    H257390   0.379   1.114   3.251 -0.5919 -0.8819 -1.4837
11967TIP3   OH257391   1.821   6.149  15.323 -0.2591 -0.0341 -0.1467
11967TIP3    H157392   1.889   6.134  15.258  2.3528  0.5585  2.2191
11967TIP3    H257393   1.807   6.244  15.322 -0.4389 -0.0590 -0.0546
11968TIP3   OH257394   0.515   4.023   4.249 -0.3801 -0.1549 -0.1704
11968TIP3    H157395   0.485   3.941   4.287 -1.0584 -0.3170 -1.0275
11968TIP3    H257396   0.500   4.088   4.317  1.2355 -0.8859  0.9576
11969TIP3   OH257397   5.730   1.401   5.018  0.6606  0.3173 -0.5372
11969TIP3    H157398   5.764   1.318   4.986  1.8851  0.9834 -1.0207
11969TIP3    H257399   5.645   1.379   5.056  0.0231 -0.8157 -2.5244
11970TIP3   OH257400   4.459   6.456   5.317 -0.2886  0.1869  0.0308
11970TIP3    H157401   4.383   6.456   5.376  0.4370  0.0022  0.9931
11970TIP3    H257402   4.445   6.380   5.260 -1.3767  0.8000 -0.5676
11971TIP3   OH257403   6.117   1.197  11.587  0.6428  0.0622 -0.1424
11971TIP3    H157404   6.192   1.240  11.629  0.8320 -0.4177  0.0116
11971TIP3    H257405   6.106   1.115  11.635 -0.6597  0.6159  0.5256
11972TIP3   OH257406   4.090   5.573  12.067  0.3603  0.1992  0.1856
11972TIP3    H157407   4.025   5.615  12.122  1.2712  0.3661  1.1541
11972TIP3    H257408   4.122   5.642  12.009  0.8053  0.5142  0.7907
11973TIP3   OH257409   3.091   4.953   5.679  0.0615  0.7393 -0.1812
11973TIP3    H157410   3.148   4.969   5.755 -0.5427 -0.8555  0.6799
11973TIP3    H257411   3.151   4.946   5.605  0.6908  2.0642  0.1741
11974TIP3   OH257412   4.219   4.762   6.245 -0.0912 -0.2112  0.2900
11974TIP3    H157413   4.159   4.772   6.319 -0.7440  0.6468 -0.3373
11974TIP3    H257414   4.305   4.785   6.280 -0.4714  0.6770  0.6681
11975TIP3   OH257415   5.810   3.339  11.687  0.3702  0.5037 -0.0545
11975TIP3    H157416   5.844   3.254  11.715  2.5776  0.9483 -1.1454
11975TIP3    H257417   5.738   3.317  11.628 -0.0576 -0.5534  0.8219
11976TIP3   OH257418   5.679   6.441   3.018  0.2578 -0.0650 -0.7724
11976TIP3    H157419   5.690   6.351   2.989 -0.6481 -0.2007 -0.7435
11976TIP3    H257420   5.671   6.492   2.937 -1.6578 -0.3620 -0.8358
11977TIP3   OH257421   6.597   2.517   5.073 -0.0131 -0.1283  0.1450
11977TIP3    H157422   6.638   2.483   5.152  1.6347 -0.0721 -0.6595
11977TIP3    H257423   6.667   2.562   5.026 -1.4797  1.9962 -0.1934
11978TIP3   OH257424   4.993   0.318  13.389 -0.1637 -0.4619  0.2870
11978TIP3    H157425   5.082   0.285  13.377  0.9379  2.3618 -0.0399
11978TIP3    H257426   4.942   0.271  13.324  1.7511  0.0964 -1.7513
11979TIP3   OH257427   2.149   1.540  17.682 -0.1105  0.0367 -0.0885
11979TIP3    H157428   2.076   1.600  17.699  0.1304  0.8052 -1.5990
11979TIP3    H257429   2.225   1.582  17.723  0.0885  0.8864 -1.2680
11980TIP3   OH257430   2.147   2.852   5.177  0.0462 -0.6057 -0.0231
11980TIP3    H157431   2.164   2.793   5.103 -0.8638 -0.6142 -0.2358
11980TIP3    H257432   2.226   2.846   5.231  0.2293 -1.5214 -0.3738
11981TIP3   OH257433   5.961   6.255   6.377  0.6022  0.9950 -0.0642
11981TIP3    H157434   5.947   6.349   6.385 -1.3736  0.9001 -1.6356
11981TIP3    H257435   5.881   6.216   6.410  0.3436 -0.0040 -1.7621
11982TIP3   OH257436   3.838   0.699   5.769 -0.2302  0.4057  0.3305
11982TIP3    H157437   3.755   0.654   5.785 -0.0133  0.5365  2.0104
11982TIP3    H257438   3.834   0.724   5.676 -1.1491 -1.4146 -0.1839
11983TIP3   OH257439   4.951   5.855  12.325  0.3379  0.4158  0.3193
11983TIP3    H157440   4.983   5.891  12.408  0.6933  1.4590 -0.2474
11983TIP3    H257441   4.957   5.928  12.263  2.0255 -0.8676 -1.1457
11984TIP3   OH257442   3.610   2.238  12.101 -0.1479  0.5867  0.4641
11984TIP3    H157443   3.564   2.244  12.185 -1.0207  1.1225 -0.0295
11984TIP3    H257444   3.540   2.243  12.036  0.7644  4.0036 -0.4151
11985TIP3   OH257445   4.591   0.711  16.731  0.1760  0.5887 -0.2887
11985TIP3    H157446   4.575   0.704  16.637  0.0859 -0.7419 -0.1958
11985TIP3    H257447   4.506   0.696  16.771  0.6228 -1.3088  0.0525
11986TIP3   OH257448   6.351   3.388  11.081  0.2408  0.1714  0.5161
11986TIP3    H157449   6.424   3.449  11.088  0.2391  0.2255  0.0576
11986TIP3    H257450   6.298   3.421  11.009  0.0420 -0.1640  0.5051
11987TIP3   OH257451   3.156   1.204  14.967  0.2566 -0.2017  0.7505
11987TIP3    H157452   3.220   1.156  14.915  0.1527 -0.0259  0.4544
11987TIP3    H257453   3.181   1.296  14.955  2.0406 -0.2532  3.3674
11988TIP3   OH257454   3.824   1.604   2.431  0.2926  0.0870 -0.4568
11988TIP3    H157455   3.831   1.508   2.435 -1.6316 -0.1247 -1.3319
11988TIP3    H257456   3.819   1.631   2.522  1.2152 -0.5918 -0.1800
11989TIP3   OH257457   6.503   6.707  11.909  0.6747 -0.3884  0.3194
11989TIP3    H157458   6.472   6.627  11.952  2.5564 -1.1303  0.3604
11989TIP3    H257459   6.505   6.772  11.979  1.6023 -1.0065  0.8943
11990TIP3   OH257460   4.791   3.249  15.924  0.0290  0.1352  0.2386
11990TIP3    H157461   4.737   3.171  15.908  0.7259 -0.2718 -0.1767
11990TIP3    H257462   4.747   3.319  15.876 -0.6642  0.0384  0.7032
11991TIP3   OH257463   4.954   5.170  13.746  0.4203 -0.3844 -0.2383
11991TIP3    H157464   4.900   5.094  13.768 -0.0647  0.1552  0.5050
11991TIP3    H257465   4.933   5.234  13.814  2.9138 -0.5804  0.8247
11992TIP3   OH257466   5.792   5.593   6.851  0.0963  0.2605 -0.4338
11992TIP3    H157467   5.735   5.531   6.806  0.9547  1.2728 -3.0856
11992TIP3    H257468   5.733   5.661   6.883 -0.5189 -0.3915 -0.1641
11993TIP3   OH257469   5.733   5.339  16.532  0.2842 -0.2528 -0.5177
11993TIP3    H157470   5.719   5.351  16.625 -1.0866 -2.1026 -0.4340
11993TIP3    H257471   5.715   5.425  16.493 -0.9469  0.0794  0.7271
11994TIP3   OH257472   5.799   4.827   2.598 -1.0523 -0.3847  0.3178
11994TIP3    H157473   5.761   4.897   2.545  2.5790  1.8254  0.2800
11994TIP3    H257474   5.829   4.763   2.534 -0.5013  0.2025 -0.0275
11995TIP3   OH257475   6.531   5.937   1.957  0.0708 -0.3320 -1.4257
11995TIP3    H157476   6.499   5.849   1.942  1.2743 -0.9129 -0.7524
11995TIP3    H257477   6.463   5.994   1.922 -1.6260 -1.4839 -0.1486
11996TIP3   OH257478   1.839   2.865   3.833 -0.3156 -0.2838  0.6068
11996TIP3    H157479   1.824   2.933   3.899 -0.3101 -0.1948  0.5182
11996TIP3    H257480   1.752   2.840   3.803 -0.3680 -1.0844  1.4033
11997TIP3   OH257481   2.514   1.961  16.094 -0.0488 -0.9268  0.2360
11997TIP3    H157482   2.600   1.987  16.062  0.1922  0.1613  1.6689
11997TIP3    H257483   2.453   1.996  16.029  0.3320  2.5150  1.5264
11998TIP3   OH257484   3.060   6.605   2.983  0.1498 -0.1039  0.2164
11998TIP3    H157485   2.994   6.672   2.968 -0.9206 -0.7404  1.8398
11998TIP3    H257486   3.114   6.640   3.054  1.1822  0.1170 -0.6449
11999TIP3   OH257487   4.871   0.357  15.262 -0.2322 -0.5040  0.1895
11999TIP3    H157488   4.924   0.289  15.304 -2.9240 -2.8071  0.1003
11999TIP3    H257489   4.833   0.314  15.186 -2.0085  1.1012  0.1123
12000TIP3   OH257490   0.390   4.040   3.548  0.2820  0.6053 -0.4663
12000TIP3    H157491   0.463   4.039   3.610  0.4717  0.2884 -0.6926
12000TIP3    H257492   0.331   4.108   3.581  0.8731  1.1476 -0.5102
12001TIP3   OH257493   4.325   3.962  15.719 -0.0556 -0.3587  0.0535
12001TIP3    H157494   4.398   3.912  15.683  0.6280  0.6880 -0.0635
12001TIP3    H257495   4.338   4.051  15.685 -0.9437  0.0272  0.6787
12002TIP3   OH257496   2.244   3.866   6.105 -0.2094 -0.0767 -0.0377
12002TIP3    H157497   2.174   3.859   6.170 -0.6420 -1.0755 -0.5859
12002TIP3    H257498   2.290   3.782   6.110  1.4396  0.8260  0.8244
12003TIP3   OH257499   3.574   0.975  16.204  0.0772 -0.2134 -0.2065
12003TIP3    H157500   3.627   1.038  16.156  0.9219  0.7968  1.9149
12003TIP3    H257501   3.486   1.015  16.205  0.1130 -0.1157 -0.6619
12004TIP3   OH257502   0.457   6.490  15.499  0.3810  0.2839 -0.0987
12004TIP3    H157503   0.377   6.441  15.515  0.8229 -0.1840  0.7692
12004TIP3    H257504   0.522   6.423  15.475  0.9767  0.4242  1.0492
12005TIP3   OH257505   6.428   6.700  13.502 -0.3863  0.6722  0.0082
12005TIP3    H157506   6.335   6.690  13.521  0.0696  0.2184  2.2602
12005TIP3    H257507   6.465   6.613  13.514  0.6769  1.2795  1.3993
12006TIP3   OH257508   3.204   3.634  16.809 -0.3537  0.3895  0.1731
12006TIP3    H157509   3.256   3.709  16.780 -0.6868  0.6887  0.3458
12006TIP3    H257510   3.232   3.618  16.899 -0.0503  0.1028  0.0264
12007TIP3   OH257511   4.216   6.172  13.997 -0.5291  0.3148  0.0847
12007TIP3    H157512   4.182   6.252  14.037 -1.4626 -0.2739  0.5139
12007TIP3    H257513   4.148   6.145  13.935 -0.2235 -0.1393 -0.0620
12008TIP3   OH257514   4.809   5.336   2.694 -0.3433 -0.2817  1.0620
12008TIP3    H157515   4.811   5.317   2.788 -0.1729 -1.2708  0.8625
12008TIP3    H257516   4.718   5.320   2.668 -0.3869 -0.0239  1.0480
12009TIP3   OH257517   6.313   6.160  12.471 -0.2330 -0.4458 -0.1254
12009TIP3    H157518   6.354   6.107  12.403  1.1642 -1.6977  1.5848
12009TIP3    H257519   6.221   6.162  12.448  0.1359 -1.1480 -1.8311
12010TIP3   OH257520   4.859   5.413   3.806 -0.1034 -0.2074 -0.3199
12010TIP3    H157521   4.795   5.484   3.816  0.7912  0.5680  0.1623
12010TIP3    H257522   4.808   5.333   3.810 -1.0446  0.3967  0.0162
12011TIP3   OH257523   6.266   4.321   3.271 -0.0879  0.1866  0.3475
12011TIP3    H157524   6.235   4.411   3.280  0.0100  0.2418  0.1384
12011TIP3    H257525   6.244   4.297   3.180 -2.4636 -0.8754  1.1170
12012TIP3   OH257526   0.176   2.450   0.105 -0.3577  0.1539 -0.3607
12012TIP3    H157527   0.104   2.480   0.051 -0.9985 -1.0727 -0.2363
12012TIP3    H257528   0.255   2.488   0.065 -0.6294 -1.8107 -3.0608
12013TIP3   OH257529   2.033   3.496  16.274  0.1260  0.0834  0.6031
12013TIP3    H157530   2.042   3.539  16.359  0.3263  0.4089  0.4220
12013TIP3    H257531   2.105   3.434  16.270 -1.2774 -1.7064  1.6809
12014TIP3   OH257532   0.715   6.073  16.878  0.2581  0.1546 -1.0110
12014TIP3    H157533   0.649   6.142  16.867  0.1633  0.6904  1.9926
12014TIP3    H257534   0.664   5.996  16.903  0.5610 -0.3352 -1.8776
12015TIP3   OH257535   0.846   3.468  12.051 -0.7914  0.0683 -0.5013
12015TIP3    H157536   0.767   3.416  12.037 -1.4270  0.7401  0.4633
12015TIP3    H257537   0.822   3.557  12.023 -0.1140  0.1224 -0.9539
12016TIP3   OH257538   0.889   0.204   5.355  0.1838  0.2750  0.0244
12016TIP3    H157539   0.980   0.196   5.327  0.2115  1.1847 -0.1891
12016TIP3    H257540   0.855   0.276   5.303 -0.0654  1.3141  1.5483
12017TIP3   OH257541   2.801   4.701  15.552 -0.5383  0.2715  0.5632
12017TIP3    H157542   2.763   4.745  15.476  1.1227  0.6256 -0.0917
12017TIP3    H257543   2.725   4.670  15.601 -1.6620 -0.2808 -1.4062
12018TIP3   OH257544   5.571   4.569  16.976 -0.0566 -0.3806 -0.0144
12018TIP3    H157545   5.594   4.497  17.035  0.6125 -0.3117 -0.1847
12018TIP3    H257546   5.639   4.635  16.991 -1.3312  0.7758  1.0660
12019TIP3   OH257547   2.436   1.276  12.292  0.0063 -0.1523 -0.2607
12019TIP3    H157548   2.383   1.271  12.371 -1.4704  1.1766 -1.1131
12019TIP3    H257549   2.374   1.261  12.221  1.3881 -1.8410 -1.2073
12020TIP3   OH257550   6.500   1.714  15.498 -0.1658 -0.0101  0.1106
12020TIP3    H157551   6.514   1.807  15.483 -1.0591  0.4135  1.7211
12020TIP3    H257552   6.425   1.691  15.443  0.4224  0.0599 -0.7431
12021TIP3   OH257553   0.478   0.633   6.606 -0.1791  0.4041 -0.1983
12021TIP3    H157554   0.426   0.602   6.532  0.3392 -0.5446 -0.1838
12021TIP3    H257555   0.568   0.608   6.585  0.1216  1.0672  0.2694
12022TIP3   OH257556   5.137   5.742   2.712  0.7321  0.5081 -0.1809
12022TIP3    H157557   5.136   5.685   2.789  0.9821  0.6719 -0.0541
12022TIP3    H257558   5.092   5.691   2.644 -0.7538  0.9269  0.4579
12023TIP3   OH257559   3.897   3.739   5.266  0.9092  0.1121  0.3475
12023TIP3    H157560   3.868   3.675   5.201 -0.6121  2.7719 -1.8035
12023TIP3    H257561   3.849   3.716   5.346 -0.0225 -1.0589 -0.5071
12024TIP3   OH257562   2.499   0.580  15.130 -0.3178  0.0521  0.1526
12024TIP3    H157563   2.474   0.664  15.091 -0.9724 -0.3083 -0.2224
12024TIP3    H257564   2.583   0.559  15.088 -0.0145  0.6412  0.4473
12025TIP3   OH257565   4.267   5.557   5.859  0.4720 -0.0211  0.3502
12025TIP3    H157566   4.269   5.652   5.843  1.2820 -0.6075 -4.2618
12025TIP3    H257567   4.177   5.539   5.886 -0.6449  1.7315 -1.9227
12026TIP3   OH257568   0.175   1.685   0.489 -0.5677 -0.6975 -0.6050
12026TIP3    H157569   0.173   1.776   0.460  0.1466 -0.5032 -0.0564
12026TIP3    H257570   0.083   1.662   0.502 -0.6949  0.9061  2.1452
12027TIP3   OH257571   2.296   2.071   0.588  0.0795 -0.0865 -0.6704
12027TIP3    H157572   2.285   2.027   0.672 -0.2498 -2.1729 -1.7357
12027TIP3    H257573   2.302   2.164   0.610 -0.8589 -0.4953  1.5648
12028TIP3   OH257574   4.589   2.504   3.292  0.5098 -0.2985  0.2924
12028TIP3    H157575   4.629   2.490   3.377 -0.4951  1.8897  1.2109
12028TIP3    H257576   4.504   2.544   3.311  0.4730  0.7555 -1.7087
12029TIP3   OH257577   3.524   6.096  17.421  0.4110 -0.2440 -0.7763
12029TIP3    H157578   3.504   6.123  17.511  1.8535 -0.2967 -0.4204
12029TIP3    H257579   3.575   6.169  17.385 -0.6896  0.0664 -1.7910
12030TIP3   OH257580   4.101   4.887   1.405 -0.3821  0.6353 -0.2396
12030TIP3    H157581   4.091   4.967   1.352  2.9512 -0.2979 -2.5637
12030TIP3    H257582   4.190   4.892   1.439 -0.1736 -2.0147 -0.2622
12031TIP3   OH257583   2.126   2.053   0.295  0.4560  0.3236 -0.3216
12031TIP3    H157584   2.096   2.113   0.363 -0.5913  0.0141 -0.4955
12031TIP3    H257585   2.067   2.068   0.222  1.3955  0.4472 -1.0676
12032TIP3   OH257586   5.539   1.301  14.710 -0.0979  0.3093  0.3967
12032TIP3    H157587   5.610   1.364  14.723  0.7490 -0.7328  0.9636
12032TIP3    H257588   5.555   1.264  14.624  2.7979 -3.1807  2.1933
12033TIP3   OH257589   1.865   2.498  12.602  0.5225  0.2299 -0.0450
12033TIP3    H157590   1.915   2.516  12.682  0.8040 -0.1275 -0.1382
12033TIP3    H257591   1.864   2.582  12.556  2.5791 -0.1347 -0.8937
12034TIP3   OH257592   1.732   0.778  13.888 -0.3243  0.0285 -0.0644
12034TIP3    H157593   1.681   0.728  13.823 -1.0267 -0.3013  0.7227
12034TIP3    H257594   1.691   0.756  13.972  1.2244 -0.3833  0.6190
12035TIP3   OH257595   2.276   5.836   4.920  0.4077 -0.6405 -0.1254
12035TIP3    H157596   2.300   5.779   4.993 -0.4318 -1.6707 -0.6204
12035TIP3    H257597   2.358   5.880   4.896  1.2187 -2.0181 -0.0326
12036TIP3   OH257598   3.777   6.676  13.873  0.4862  0.1269  0.6689
12036TIP3    H157599   3.703   6.652  13.929 -0.1072  1.0212  0.2808
12036TIP3    H257600   3.740   6.683  13.785  1.4627 -1.5154  0.0864
12037TIP3   OH257601   0.231   5.577  11.734  0.1098 -0.1617  0.9478
12037TIP3    H157602   0.195   5.567  11.646 -1.3556  0.2087  1.4833
12037TIP3    H257603   0.156   5.568  11.792  1.0604 -0.4416  2.1761
12038TIP3   OH257604   2.821   2.492  17.316  0.1550 -0.5084 -0.1781
12038TIP3    H157605   2.835   2.397  17.314 -1.9924 -0.8636  0.1376
12038TIP3    H257606   2.827   2.516  17.409  0.6542 -0.3240 -0.2532
12039TIP3   OH257607   2.509   6.591  12.688 -0.2635  0.0510 -0.3302
12039TIP3    H157608   2.554   6.634  12.761  2.1941 -1.2360 -0.9474
12039TIP3    H257609   2.547   6.631  12.609 -2.7004  1.2605 -0.9745
12040TIP3   OH257610   2.541   2.074   1.911  0.0315  0.5364  0.0032
12040TIP3    H157611   2.543   1.978   1.911 -1.1464  0.4837 -1.3752
12040TIP3    H257612   2.614   2.099   1.968 -0.2902 -1.1768  1.2416
12041TIP3   OH257613   1.198   2.675  12.704  0.9683  0.2894  0.4249
12041TIP3    H157614   1.291   2.684  12.682  1.1407  0.3434  1.1761
12041TIP3    H257615   1.175   2.758  12.746  0.5918  0.2540  0.2902
12042TIP3   OH257616   3.918   0.926  10.744  0.9859  0.0503 -0.3267
12042TIP3    H157617   3.832   0.914  10.785  1.2860 -2.1254 -0.1834
12042TIP3    H257618   3.907   0.888  10.657  2.1237 -1.5654  0.1862
12043TIP3   OH257619   6.269   1.637  13.264  0.1557 -0.0554 -0.0844
12043TIP3    H157620   6.347   1.594  13.299  1.0982  0.2811 -1.6483
12043TIP3    H257621   6.244   1.583  13.189 -1.4899 -0.4776  0.7266
12044TIP3   OH257622   2.851   0.767  16.185  0.1360  0.5854  0.6783
12044TIP3    H157623   2.896   0.683  16.187  1.1724  1.0892 -0.2562
12044TIP3    H257624   2.795   0.767  16.262  0.6945 -0.6454  1.0982
12045TIP3   OH257625   5.396   1.638   3.374  0.0677 -0.6360  0.2470
12045TIP3    H157626   5.402   1.705   3.443 -1.0215  1.4095 -1.5365
12045TIP3    H257627   5.313   1.593   3.392 -1.2172  1.1993 -0.7458
12046TIP3   OH257628   2.162   0.431  17.163 -0.0243 -0.2466  0.3267
12046TIP3    H157629   2.194   0.343  17.143  0.2564  0.0125 -0.4070
12046TIP3    H257630   2.122   0.461  17.081 -3.2001 -0.9774  1.4624
12047TIP3   OH257631   1.366   4.807  17.181 -0.2821 -0.2048  0.1632
12047TIP3    H157632   1.368   4.806  17.276 -0.1318  1.7017  0.2177
12047TIP3    H257633   1.456   4.793  17.154  0.2171  2.1005  0.4221
12048TIP3   OH257634   5.684   2.229  14.646 -0.5593  0.6724 -0.3209
12048TIP3    H157635   5.678   2.144  14.602  0.1115  0.4349  0.0227
12048TIP3    H257636   5.657   2.293  14.580  0.9973  0.3802 -1.2793
12049TIP3   OH257637   4.140   2.742  17.654 -0.1576 -0.4019 -0.0730
12049TIP3    H157638   4.190   2.680  17.601 -2.0789 -1.4226 -0.8106
12049TIP3    H257639   4.054   2.701  17.662  0.2525 -0.8768  4.8267
12050TIP3   OH257640   1.767   0.709   3.987  0.2746  0.4324 -0.3208
12050TIP3    H157641   1.727   0.693   4.073 -1.3700  1.6850 -0.8217
12050TIP3    H257642   1.846   0.759   4.007 -0.5674  1.5148  0.4407
12051TIP3   OH257643   3.624   4.315   5.330 -0.0551  0.1257 -0.2238
12051TIP3    H157644   3.530   4.330   5.320 -0.6419 -1.5334  1.9518
12051TIP3    H257645   3.636   4.224   5.302  0.9953  0.4392 -0.8426
12052TIP3   OH257646   1.211   3.635   4.798 -0.5337 -0.2223 -0.4228
12052TIP3    H157647   1.237   3.727   4.797 -1.9047  0.2719 -3.7104
12052TIP3    H257648   1.266   3.593   4.732 -0.4713 -1.6401  0.4796
12053TIP3   OH257649   0.717   2.759   0.821 -0.3362  0.2450  0.6182
12053TIP3    H157650   0.701   2.854   0.823 -2.2981 -0.0168 -0.3565
12053TIP3    H257651   0.680   2.728   0.904 -0.7018  0.2032  0.4407
12054TIP3   OH257652   4.177   1.148  13.945  0.1715 -0.0566  0.0406
12054TIP3    H157653   4.254   1.097  13.920 -1.0535 -1.0118 -1.9863
12054TIP3    H257654   4.118   1.141  13.871 -2.1194  0.1965  1.7325
12055TIP3   OH257655   2.245   5.800   5.843 -0.4933 -0.3587 -0.8278
12055TIP3    H157656   2.261   5.738   5.772  2.3144 -0.1451 -0.5049
12055TIP3    H257657   2.325   5.798   5.895 -2.1016  0.1537  1.8680
12056TIP3   OH257658   3.187   0.323  14.057  0.5228 -0.2575 -0.0228
12056TIP3    H157659   3.154   0.328  14.146 -1.8976 -1.5552 -0.7472
12056TIP3    H257660   3.262   0.264  14.062  0.2952 -0.4736  1.1201
12057TIP3   OH257661   4.101   2.718   1.162 -0.0243  0.0636  0.4998
12057TIP3    H157662   4.134   2.786   1.103 -0.1729 -1.2938 -1.2410
12057TIP3    H257663   4.006   2.721   1.151 -0.1085  0.2613  1.2341
12058TIP3   OH257664   4.484   3.748   3.908 -0.0615 -0.0335 -0.6530
12058TIP3    H157665   4.460   3.729   3.999  1.6989 -1.7320 -0.4731
12058TIP3    H257666   4.469   3.841   3.898  1.8824  0.7201  2.1481
12059TIP3   OH257667   6.351   6.725  11.033 -0.0969  0.3422 -0.1546
12059TIP3    H157668   6.375   6.716  11.126  0.6206  1.1001 -0.2594
12059TIP3    H257669   6.258   6.700  11.031  0.1180 -0.6094  0.6020
12060TIP3   OH257670   5.114   5.365  14.447  0.1995  0.0091  0.5155
12060TIP3    H157671   5.038   5.323  14.407  0.4596 -2.8212  2.6547
12060TIP3    H257672   5.092   5.371  14.540  1.3520  2.1810  0.6972
12061TIP3   OH257673   3.423   2.388   5.687  0.3082 -0.6492  0.0654
12061TIP3    H157674   3.490   2.444   5.649 -1.1096  1.1908  0.1626
12061TIP3    H257675   3.468   2.305   5.703  3.0565  1.0087  1.7204
12062TIP3   OH257676   5.567   4.411   5.794 -0.2323 -0.0460 -0.7362
12062TIP3    H157677   5.526   4.454   5.869 -0.4598  0.7135 -1.2942
12062TIP3    H257678   5.650   4.378   5.828  0.3362  1.5570 -0.5024
12063TIP3   OH257679   5.850   0.324   5.408 -0.4382  0.1628 -0.2319
12063TIP3    H157680   5.888   0.366   5.331  0.5903 -1.0977 -0.4540
12063TIP3    H257681   5.838   0.233   5.382  1.3555 -0.6607  1.5322
12064TIP3   OH257682   6.135   4.346   6.531 -0.6291 -0.2284 -0.2019
12064TIP3    H157683   6.059   4.393   6.563 -1.1201 -0.7724 -0.5556
12064TIP3    H257684   6.122   4.256   6.559  1.1239  0.1024  1.9409
12065TIP3   OH257685   5.130   6.499   0.605  0.0395  0.4318 -0.1456
12065TIP3    H157686   5.118   6.591   0.582  1.5014  0.2483 -1.9459
12065TIP3    H257687   5.113   6.452   0.523  0.2421 -0.8216  0.5087
12066TIP3   OH257688   0.956   5.669  12.659  0.1341  0.1392 -0.5346
12066TIP3    H157689   0.951   5.677  12.564  2.0925  0.3301 -0.6767
12066TIP3    H257690   0.994   5.582  12.673 -0.8501 -0.1913  0.1095
12067TIP3   OH257691   2.000   0.273  14.691  0.4642  0.1025  0.0315
12067TIP3    H157692   1.957   0.358  14.707  0.7602  0.3443 -0.4260
12067TIP3    H257693   1.939   0.208  14.727  0.1383  0.4962  0.2028
12068TIP3   OH257694   1.372   3.617  16.886  0.0509 -0.1253 -0.3438
12068TIP3    H157695   1.299   3.583  16.939 -0.6667  1.0381 -0.5592
12068TIP3    H257696   1.407   3.690  16.938  0.4276 -0.0516 -0.7019
12069TIP3   OH257697   1.878   2.027  14.937 -0.4132 -0.0034 -0.0151
12069TIP3    H157698   1.906   2.114  14.966  3.0969 -0.6443 -1.0330
12069TIP3    H257699   1.858   2.037  14.844  0.1368 -0.2937 -0.1687
12070TIP3   OH257700   0.943   5.788   3.369  0.1845  0.4806 -0.5715
12070TIP3    H157701   0.887   5.711   3.374 -0.6485  1.1530  1.0375
12070TIP3    H257702   0.951   5.805   3.275 -0.8950 -0.6460 -0.8945
12071TIP3   OH257703   2.358   6.279   2.406 -0.7400  0.6011 -0.1670
12071TIP3    H157704   2.318   6.235   2.331  0.3000  0.6047 -0.7375
12071TIP3    H257705   2.307   6.360   2.416  0.8123  1.9895 -2.6528
12072TIP3   OH257706   5.836   0.694  11.606 -0.6110 -0.5510  0.3312
12072TIP3    H157707   5.916   0.673  11.559 -0.2191  2.1051 -0.3627
12072TIP3    H257708   5.785   0.613  11.605  1.2624 -1.7818 -0.8253
12073TIP3   OH257709   5.470   2.265  13.275  0.1259  0.0458  0.6107
12073TIP3    H157710   5.432   2.307  13.352  0.0639 -0.4040  0.8284
12073TIP3    H257711   5.542   2.322  13.249  1.9256 -1.1405  2.6337
12074TIP3   OH257712   2.024   0.673  15.136 -0.0492  0.2908  0.2474
12074TIP3    H157713   2.057   0.654  15.048 -0.0692 -1.2537  0.5456
12074TIP3    H257714   1.950   0.731  15.121 -0.7407 -0.8261 -0.8539
12075TIP3   OH257715   5.100   4.575  16.433 -0.2252 -0.8127  0.0578
12075TIP3    H157716   5.134   4.634  16.501 -0.8691 -0.8272  0.3986
12075TIP3    H257717   5.178   4.529  16.401  0.5489  1.3046 -1.3045
12076TIP3   OH257718   6.005   5.464   1.251 -0.0887 -0.3894  0.2582
12076TIP3    H157719   6.072   5.529   1.231  0.1016 -0.4338  0.7379
12076TIP3    H257720   6.050   5.380   1.247 -0.1894 -0.4436  0.2522
12077TIP3   OH257721   6.041   0.026   5.772  0.2295 -0.1429  0.1370
12077TIP3    H157722   6.074  -0.052   5.725 -0.5483  0.3639 -1.3135
12077TIP3    H257723   6.037  -0.002   5.863  2.0976 -1.0866 -0.0043
12078TIP3   OH257724   3.841   3.414  13.318 -0.1156  0.3558  0.6010
12078TIP3    H157725   3.890   3.369  13.387  0.9673  1.1521  0.3824
12078TIP3    H257726   3.754   3.426  13.355  0.1112 -0.2477  1.3793
12079TIP3   OH257727   3.204   4.880  14.959  0.2529 -0.0138 -0.1464
12079TIP3    H157728   3.210   4.922  15.045 -1.6639  0.3082 -0.1116
12079TIP3    H257729   3.139   4.933  14.912 -1.4218 -2.2345 -0.5039
12080TIP3   OH257730   1.870   3.227  13.838  0.4538 -0.4359 -0.7087
12080TIP3    H157731   1.850   3.306  13.888 -2.5570 -0.7207 -1.2777
12080TIP3    H257732   1.891   3.160  13.904  2.8738  0.6783 -0.2237
12081TIP3   OH257733   1.478   3.437   0.011 -0.7351  0.4855  0.5489
12081TIP3    H157734   1.394   3.457  -0.030 -0.4446 -0.2084 -0.4368
12081TIP3    H257735   1.475   3.342   0.025  0.7952  0.0107 -1.7522
12082TIP3   OH257736   5.624   0.174   0.402 -0.3075  0.1987 -0.1961
12082TIP3    H157737   5.551   0.143   0.349 -0.4009 -1.3846  0.7625
12082TIP3    H257738   5.634   0.266   0.379 -1.8468  0.1539 -1.1904
12083TIP3   OH257739   5.877   4.961  15.491 -0.3796 -0.3275  0.3438
12083TIP3    H157740   5.915   4.881  15.527  1.5781 -0.0131 -0.8673
12083TIP3    H257741   5.798   4.931  15.446  1.0733 -1.8927 -1.3583
12084TIP3   OH257742   3.977   0.091   0.901  0.1804  0.3138 -1.1522
12084TIP3    H157743   3.884   0.113   0.902 -0.3759 -1.6942 -1.9032
12084TIP3    H257744   4.008   0.112   0.989 -1.7646 -1.7790  0.1446
12085TIP3   OH257745   2.734   1.316   0.863 -0.0698  0.3809 -0.3290
12085TIP3    H157746   2.695   1.362   0.789 -1.1313  1.6345  0.9475
12085TIP3    H257747   2.759   1.230   0.828 -3.2387 -0.2051 -1.4657
12086TIP3   OH257748   0.974   1.908   4.810  0.1630 -0.0326 -0.5645
12086TIP3    H157749   1.029   1.890   4.887  2.0003  0.9224 -1.5646
12086TIP3    H257750   0.897   1.952   4.844  1.5748  1.6156  0.6467
12087TIP3   OH257751   2.170   5.519  10.798 -0.6004 -0.0803 -0.3413
12087TIP3    H157752   2.185   5.523  10.703 -0.8058 -0.0780 -0.3726
12087TIP3    H257753   2.173   5.610  10.826 -1.7557  0.0300 -0.5315
12088TIP3   OH257754   6.581   0.914   3.990 -0.3083 -0.5086 -0.0602
12088TIP3    H157755   6.649   0.855   4.024  1.1365  0.6147 -0.8642
12088TIP3    H257756   6.500   0.882   4.029  0.7705 -1.4689  1.5333
12089TIP3   OH257757   1.602   4.203  16.022 -0.3940  0.1090  0.0709
12089TIP3    H157758   1.652   4.261  15.965 -0.4992 -1.1802 -1.3929
12089TIP3    H257759   1.644   4.117  16.013 -0.2487 -0.1086  2.1731
12090TIP3   OH257760   3.068   5.833   5.311  0.1710  0.4546  0.0036
12090TIP3    H157761   3.046   5.818   5.218  1.1265 -0.7102 -0.0556
12090TIP3    H257762   3.060   5.927   5.322 -2.0650  0.4134 -0.7143
12091TIP3   OH257763   5.630   3.001  11.575 -0.0647  0.5141  0.6747
12091TIP3    H157764   5.619   3.025  11.667  0.2418  0.9671  0.5970
12091TIP3    H257765   5.683   3.072  11.538  2.6469 -1.2457  0.8956
12092TIP3   OH257766   6.418   2.773   5.292  0.1377 -0.3015  0.4295
12092TIP3    H157767   6.342   2.766   5.349  0.2422  0.6261  0.7040
12092TIP3    H257768   6.398   2.716   5.218 -1.5764  1.1540 -0.3169
12093TIP3   OH257769   0.653   0.021   4.898  0.5134  0.7438 -0.0105
12093TIP3    H157770   0.636   0.026   4.804 -0.6853  0.1325  0.1615
12093TIP3    H257771   0.628  -0.068   4.923  0.7655  0.9127  0.9032
12094TIP3   OH257772   4.216   1.157   1.751  0.4036  0.0229  0.4930
12094TIP3    H157773   4.236   1.112   1.833 -0.1534  0.1583  0.7126
12094TIP3    H257774   4.265   1.239   1.755  0.8634 -0.2491  0.4111
12095TIP3   OH257775   0.965   6.336   2.383  0.2795 -0.2087 -0.1926
12095TIP3    H157776   0.992   6.383   2.462 -0.0917  0.4896 -0.4666
12095TIP3    H257777   0.882   6.295   2.407 -0.6487  1.3068 -0.6687
12096TIP3   OH257778   2.741   4.772   5.230 -0.4521 -0.3378  0.2848
12096TIP3    H157779   2.668   4.759   5.291  0.3336 -0.0290  1.3208
12096TIP3    H257780   2.768   4.862   5.245  0.5939 -0.6633  0.4352
12097TIP3   OH257781   1.484   6.650  14.355 -1.0959  0.3612 -0.1360
12097TIP3    H157782   1.405   6.634  14.407 -1.2327  0.0631 -0.4286
12097TIP3    H257783   1.457   6.632  14.265 -0.5908 -0.1373 -0.1940
12098TIP3   OH257784   5.973   0.038  13.297 -0.4116  0.0648  0.4705
12098TIP3    H157785   6.010  -0.035  13.347  0.3094  0.2053  0.1675
12098TIP3    H257786   5.949   0.103  13.363 -0.6099 -0.2504  0.7114
12099TIP3   OH257787   4.818   2.173   3.695  0.6147  0.4151  0.7554
12099TIP3    H157788   4.799   2.256   3.651  2.0209  0.6758  0.5909
12099TIP3    H257789   4.770   2.108   3.645  1.6517  0.7908 -0.7935
12100TIP3   OH257790   0.858   4.763  16.702 -0.8686  0.1640 -0.3609
12100TIP3    H157791   0.902   4.816  16.635  1.6446 -1.2914  0.0213
12100TIP3    H257792   0.799   4.824  16.745  0.6268  2.2380 -1.0801
12101TIP3   OH257793   4.094   2.278  16.521  0.1914  0.2086 -0.7263
12101TIP3    H157794   4.127   2.290  16.433  1.6374  0.8008 -0.1306
12101TIP3    H257795   4.133   2.196  16.551 -0.4837 -0.1142 -0.7050
12102TIP3   OH257796   6.422   3.875   3.625  0.3078 -0.7353  0.1969
12102TIP3    H157797   6.373   3.807   3.671 -2.6431  0.3565 -1.0479
12102TIP3    H257798   6.399   3.864   3.533 -2.0007  2.9902  0.1002
12103TIP3   OH257799   0.760   1.591   4.449 -0.2133  0.3642  0.1636
12103TIP3    H157800   0.800   1.524   4.505 -0.4174 -0.2798 -0.4473
12103TIP3    H257801   0.802   1.672   4.475 -1.3990  0.3500  2.3574
12104TIP3   OH257802   3.540   2.341   6.242  0.1835 -0.2251  0.2322
12104TIP3    H157803   3.616   2.366   6.293  0.0231  1.2399 -0.1970
12104TIP3    H257804   3.556   2.378   6.155 -0.7894 -0.3180  0.0006
12105TIP3   OH257805   3.773   6.173   3.442  1.1056 -0.1282 -0.2737
12105TIP3    H157806   3.865   6.150   3.427  1.5697  1.4854 -0.0562
12105TIP3    H257807   3.774   6.231   3.518 -0.2211 -0.9025  0.3689
12106TIP3   OH257808   1.408   5.196  14.935 -0.1928  0.1166 -0.0063
12106TIP3    H157809   1.417   5.284  14.971 -1.2250 -0.2152  1.1217
12106TIP3    H257810   1.355   5.208  14.856  1.2425  0.7271 -0.8975
12107TIP3   OH257811   6.553   1.570  12.488  0.5460 -0.3665  0.1536
12107TIP3    H157812   6.629   1.588  12.433 -0.1284 -1.8499 -1.3679
12107TIP3    H257813   6.588   1.563  12.577  1.7140  1.8214 -0.0630
12108TIP3   OH257814   4.991   3.372   3.428 -0.4072 -0.2126  0.1141
12108TIP3    H157815   5.057   3.310   3.396 -0.0315  0.2621 -0.0475
12108TIP3    H257816   4.934   3.388   3.352 -1.2853 -1.3464  0.5128
12109TIP3   OH257817   2.576   5.206   2.854 -0.0012 -0.3223  0.0237
12109TIP3    H157818   2.663   5.211   2.812 -1.3147  4.3660 -2.8929
12109TIP3    H257819   2.595   5.187   2.946  4.1472  0.6972 -0.4251
12110TIP3   OH257820   1.532   1.918   5.588  0.9312  0.3107  0.0660
12110TIP3    H157821   1.499   1.977   5.521 -0.2798 -1.7579 -1.2685
12110TIP3    H257822   1.572   1.846   5.539  2.6215  0.0971  1.6354
12111TIP3   OH257823   4.942   6.681  11.796  0.2464 -0.2970  0.4353
12111TIP3    H157824   4.957   6.598  11.749 -0.9808 -0.7585  0.8170
12111TIP3    H257825   4.894   6.735  11.734  1.1694  0.2058  0.1358
12112TIP3   OH257826   6.329   1.775   4.781 -0.1824  0.0553 -0.1623
12112TIP3    H157827   6.411   1.777   4.830  0.7287 -1.6308 -1.5236
12112TIP3    H257828   6.262   1.763   4.848  0.8947 -0.7682  0.8107
12113TIP3   OH257829   5.195   2.799   2.719 -0.1222 -0.8016 -0.0168
12113TIP3    H157830   5.182   2.823   2.627  1.3935 -0.5383 -0.1865
12113TIP3    H257831   5.289   2.778   2.726  0.1116  0.5450  1.7614
12114TIP3   OH257832   2.779   2.940   2.919 -0.2184  0.0551 -0.3674
12114TIP3    H157833   2.822   2.855   2.929 -0.2854  0.1278  0.6264
12114TIP3    H257834   2.688   2.923   2.943 -0.4858  0.1702 -1.2713
12115TIP3   OH257835   2.495   5.610   5.795 -0.1612  0.8318 -0.5553
12115TIP3    H157836   2.547   5.543   5.751  0.5394  0.7959  0.2921
12115TIP3    H257837   2.488   5.578   5.885 -0.7135  1.3893 -0.3954
12116TIP3   OH257838   5.153   5.842   0.838  0.3244 -0.2545  0.2983
12116TIP3    H157839   5.169   5.777   0.770 -0.0154 -1.1683  1.0663
12116TIP3    H257840   5.095   5.906   0.796  0.0241 -0.8649 -0.2423
12117TIP3   OH257841   1.821   0.646   5.114  0.6494 -0.1275 -0.9143
12117TIP3    H157842   1.842   0.640   5.207 -0.3425 -2.6633 -0.7841
12117TIP3    H257843   1.902   0.623   5.068  0.3339 -2.1243 -0.5626
12118TIP3   OH257844   0.111   1.535   5.010  0.0946 -0.8674 -0.0373
12118TIP3    H157845   0.031   1.518   4.961  1.1153 -2.7685 -1.2060
12118TIP3    H257846   0.122   1.457   5.065  0.7823 -0.3326  0.6017
12119TIP3   OH257847   5.607   1.611   2.646  0.6436 -0.5941 -0.2798
12119TIP3    H157848   5.587   1.614   2.552 -2.1847 -0.1356  0.2274
12119TIP3    H257849   5.564   1.531   2.677  0.2429  0.0317  0.8423
12120TIP3   OH257850   4.308   0.830   6.088  0.5359 -0.0416  0.4135
12120TIP3    H157851   4.340   0.787   6.008  1.0612 -1.0782  1.1685
12120TIP3    H257852   4.386   0.868   6.128  0.4701 -0.5754  1.0573
12121TIP3   OH257853   2.969   1.734  13.074 -0.2685 -0.0456  0.1489
12121TIP3    H157854   2.902   1.765  13.013 -0.7830 -0.0184  0.7262
12121TIP3    H257855   3.007   1.657  13.031 -0.7507 -0.1322 -0.1245
12122TIP3   OH257856   6.490   6.619  14.385  0.2443  0.0087  0.2760
12122TIP3    H157857   6.402   6.602  14.354  0.6296 -0.2762 -0.6913
12122TIP3    H257858   6.483   6.617  14.480 -0.4623 -1.7164  0.2101
12123TIP3   OH257859   4.754   5.231   5.207 -0.0965  1.2746 -0.3982
12123TIP3    H157860   4.773   5.218   5.300 -0.1137 -0.9288 -0.6291
12123TIP3    H257861   4.658   5.233   5.203 -0.1050  0.9740 -0.3930
12124TIP3   OH257862   5.690   2.304   4.589  0.6435 -0.0612  0.3477
12124TIP3    H157863   5.726   2.238   4.647 -1.9849 -1.4126  0.5806
12124TIP3    H257864   5.638   2.360   4.646 -0.2737 -0.1404 -0.3903
12125TIP3   OH257865   4.889   0.781   5.068 -0.6385  0.3565 -0.7917
12125TIP3    H157866   4.798   0.787   5.039 -0.9326  1.6271  0.3212
12125TIP3    H257867   4.928   0.865   5.044  0.2885 -0.2226 -1.3655
12126TIP3   OH257868   4.407   5.028   2.545  0.3771 -0.1432 -0.0813
12126TIP3    H157869   4.318   5.023   2.578  0.4978 -0.0308  0.2697
12126TIP3    H257870   4.427   4.940   2.514 -0.1230  0.0120 -0.8731
12127TIP3   OH257871   2.522   1.399   2.333 -0.4184 -0.1943 -0.1303
12127TIP3    H157872   2.571   1.452   2.396  1.8046  0.4275 -2.2089
12127TIP3    H257873   2.437   1.384   2.374  0.7436  0.5767  2.7385
12128TIP3   OH257874   4.015   1.997  13.067  0.4051 -0.0228 -0.4194
12128TIP3    H157875   4.001   2.072  13.010 -0.7834 -0.5367 -0.8204
12128TIP3    H257876   3.940   1.940  13.052  0.9327 -0.9723  0.3953
12129TIP3   OH257877   1.906   0.734  16.826 -0.1325  0.1331  0.0184
12129TIP3    H157878   1.931   0.755  16.916 -0.9757  1.0793  0.0506
12129TIP3    H257879   1.989   0.717  16.782  0.3401  0.2873  0.8217
12130TIP3   OH257880   6.559   6.443   6.474 -0.1465 -0.1939  0.0618
12130TIP3    H157881   6.633   6.409   6.423  0.7428 -0.6483  1.5952
12130TIP3    H257882   6.599   6.488   6.548 -1.4066  0.6158  0.2906
12131TIP3   OH257883   5.148   4.863  17.395  0.0224 -0.6631  0.5703
12131TIP3    H157884   5.090   4.790  17.419  0.4786 -1.0249  0.5676
12131TIP3    H257885   5.205   4.827  17.328  1.6625 -0.9472  2.0416
12132TIP3   OH257886   2.636   3.488   4.835  0.0657 -0.0185 -0.2785
12132TIP3    H157887   2.695   3.423   4.873  0.3576  0.4181  0.0178
12132TIP3    H257888   2.602   3.446   4.755  2.6459  0.6482 -1.8224
12133TIP3   OH257889   6.203   0.946   2.562  0.1374  0.3986 -0.0073
12133TIP3    H157890   6.236   0.960   2.650  1.8269  0.7614 -0.6472
12133TIP3    H257891   6.264   0.994   2.506 -0.5564 -0.2922 -1.4146
12134TIP3   OH257892   6.102   0.185   2.576 -0.3871 -0.2345 -0.4388
12134TIP3    H157893   6.019   0.221   2.545 -1.2136 -2.4520 -0.9797
12134TIP3    H257894   6.088   0.172   2.670 -1.3689 -2.2635 -0.8189
12135TIP3   OH257895   3.064   6.037   3.195  0.2367  0.4050  0.3207
12135TIP3    H157896   3.058   6.120   3.243 -0.7431  0.2800  0.4361
12135TIP3    H257897   2.979   6.029   3.151  1.6521  1.3810 -2.9313
12136TIP3   OH257898   1.863   3.294   5.756 -0.3962 -0.3073  0.0131
12136TIP3    H157899   1.950   3.264   5.727 -0.6763 -0.1194 -1.0496
12136TIP3    H257900   1.881   3.374   5.805 -0.0423  0.2163 -0.9635
12137TIP3   OH257901   0.217   6.231  12.206 -0.2198 -0.3394  0.0621
12137TIP3    H157902   0.241   6.144  12.175 -1.6887 -1.2877  1.4393
12137TIP3    H257903   0.131   6.247  12.168 -0.3912  0.0921  0.6262
12138TIP3   OH257904   2.286   3.703   2.956 -0.3137 -0.0771  0.1612
12138TIP3    H157905   2.200   3.662   2.969 -0.7720  0.5397 -0.7602
12138TIP3    H257906   2.271   3.796   2.976  0.3099 -0.0807  0.6648
12139TIP3   OH257907   4.512   1.855   4.644  0.4837  0.4964 -0.1773
12139TIP3    H157908   4.517   1.933   4.699 -2.0776 -0.6519  1.8716
12139TIP3    H257909   4.432   1.868   4.592  0.3819 -0.4747 -0.2738
12140TIP3   OH257910   2.053   3.958   2.816  0.0068  0.2965  0.6655
12140TIP3    H157911   1.978   3.926   2.866  1.1919 -2.3979  0.9096
12140TIP3    H257912   2.032   3.937   2.725  0.4950 -0.6109  0.7509
12141TIP3   OH257913   3.445   1.271   6.873 -0.1581 -0.7013 -0.9168
12141TIP3    H157914   3.476   1.291   6.784  1.5458  0.9707 -0.0180
12141TIP3    H257915   3.481   1.342   6.927 -2.5193 -0.7552  0.8684
12142TIP3   OH257916   1.998   2.605  14.730 -0.1445 -0.2589 -0.6840
12142TIP3    H157917   1.940   2.531  14.749  2.2703 -2.2018 -0.4351
12142TIP3    H257918   2.081   2.582  14.771  1.8856  0.7233 -3.8516
12143TIP3   OH257919   5.866   1.404  13.713  0.3992  0.0343  0.1575
12143TIP3    H157920   5.799   1.338  13.693 -0.3168  0.6612  0.3956
12143TIP3    H257921   5.924   1.403  13.637 -1.4150  1.3367 -1.3652
12144TIP3   OH257922   1.616   3.476   5.285 -0.2591 -0.0373 -1.0247
12144TIP3    H157923   1.702   3.512   5.307 -0.9457  1.2258 -0.2891
12144TIP3    H257924   1.596   3.515   5.200 -1.3290  2.0331  0.1073
12145TIP3   OH257925   3.693   6.600  16.486  0.6973  0.4890 -0.2539
12145TIP3    H157926   3.756   6.569  16.551  2.0090 -1.4238 -2.2866
12145TIP3    H257927   3.620   6.539  16.491  1.2197 -0.2464 -1.1283
12146TIP3   OH257928   6.703   1.507  15.203  0.7416  0.2959  0.1387
12146TIP3    H157929   6.707   1.465  15.117 -0.7191 -0.2430  0.3141
12146TIP3    H257930   6.647   1.584  15.189 -0.6757 -0.5668  0.8933
12147TIP3   OH257931   5.343   6.403  16.962 -0.1071  0.1227  0.4068
12147TIP3    H157932   5.340   6.490  17.002  1.6275  0.6338 -0.5013
12147TIP3    H257933   5.421   6.362  17.000  0.8693  0.1609 -1.4520
12148TIP3   OH257934   2.928   6.629  16.350  0.0086  0.0407  0.5420
12148TIP3    H157935   2.936   6.662  16.440  1.5103 -1.6523  1.0896
12148TIP3    H257936   2.999   6.672  16.303 -0.4547  0.5231  0.2644
12149TIP3   OH257937   3.518   2.096   2.361  0.4914 -0.5384 -0.5755
12149TIP3    H157938   3.583   2.050   2.308 -0.8092 -3.9587  0.5312
12149TIP3    H257939   3.440   2.099   2.306  0.1353 -1.0247 -0.1069
12150TIP3   OH257940   6.019   6.500  11.368  0.0897  0.3537 -0.0593
12150TIP3    H157941   6.047   6.478  11.279  0.5508  2.1247 -0.3784
12150TIP3    H257942   6.067   6.579  11.390 -0.3500  0.1919  1.6235
12151TIP3   OH257943   4.969   5.021  15.770  0.2380 -0.6572  0.3364
12151TIP3    H157944   4.979   4.940  15.719 -0.2118 -0.5832  0.1239
12151TIP3    H257945   4.911   4.997  15.842 -2.1243  0.0780 -1.1884
12152TIP3   OH257946   2.212   5.020   5.515 -0.3064 -0.0647 -0.3382
12152TIP3    H157947   2.249   4.971   5.442 -0.5865 -0.5492 -0.1577
12152TIP3    H257948   2.243   5.110   5.502  0.1319 -0.2675 -0.7230
12153TIP3   OH257949   3.654   1.028  14.739  0.1735 -0.3102 -0.1060
12153TIP3    H157950   3.632   0.945  14.782 -1.2332  0.0518 -0.0726
12153TIP3    H257951   3.654   1.006  14.645  1.2300 -0.6517 -0.0366
12154TIP3   OH257952   0.470   0.773  14.613 -0.5965 -0.2444  0.1452
12154TIP3    H157953   0.559   0.772  14.649 -1.0903 -3.1433  1.5280
12154TIP3    H257954   0.483   0.793  14.520  1.3549  0.7356  0.5727
12155TIP3   OH257955   2.463   2.143   4.365  0.1357 -0.3675 -0.2184
12155TIP3    H157956   2.388   2.190   4.401  0.1875 -1.8789  2.0864
12155TIP3    H257957   2.539   2.182   4.408  0.6239  0.4302 -1.7308
12156TIP3   OH257958   2.953   2.716   5.107  0.1148 -0.0568  1.2326
12156TIP3    H157959   2.881   2.730   5.046 -0.0249  1.3288  1.6895
12156TIP3    H257960   3.028   2.697   5.051 -0.4091 -0.6784  0.7200
12157TIP3   OH257961   3.610   5.430  16.877  0.5060 -0.0079 -0.0695
12157TIP3    H157962   3.695   5.442  16.920  0.0115  1.1318  0.6266
12157TIP3    H257963   3.563   5.369  16.933  0.9540 -0.8464 -0.5958
12158TIP3   OH257964   6.304   1.238  17.197 -0.2066  0.0306  0.5275
12158TIP3    H157965   6.256   1.162  17.164 -0.0647 -0.7679  2.0707
12158TIP3    H257966   6.310   1.297  17.122 -0.9810 -1.1490 -0.5008
12159TIP3   OH257967   0.543   6.352  16.344  0.0407 -0.0963 -0.0943
12159TIP3    H157968   0.504   6.303  16.416  0.0936  0.6761  0.4760
12159TIP3    H257969   0.471   6.364  16.282  0.3458 -2.0359 -0.9005
12160TIP3   OH257970   2.280   5.615  13.085 -0.3397 -0.0179  0.4817
12160TIP3    H157971   2.273   5.704  13.117 -2.2309 -0.1165  0.4758
12160TIP3    H257972   2.295   5.562  13.163 -1.1114  0.1280  0.7347
12161TIP3   OH257973   0.901   5.110   3.665  0.3409 -0.0484 -0.4791
12161TIP3    H157974   0.903   5.140   3.574  1.1078 -0.1688 -0.5026
12161TIP3    H257975   0.837   5.168   3.707  0.9153  0.8414 -0.8011
12162TIP3   OH257976   2.611   5.231  16.722  0.4319  0.1949 -0.0137
12162TIP3    H157977   2.658   5.182  16.656 -0.3888 -1.2019  0.4023
12162TIP3    H257978   2.551   5.287  16.672 -1.6961 -2.3325 -0.5492
12163TIP3   OH257979   3.070   2.068  15.313 -0.2519 -0.6563  0.4211
12163TIP3    H157980   3.020   2.142  15.348  0.7800 -0.1634  0.9148
12163TIP3    H257981   3.158   2.080  15.351  0.6788 -0.6120 -1.6432
12164TIP3   OH257982   5.850   4.087  12.569  0.2841  0.3162  0.0276
12164TIP3    H157983   5.844   4.050  12.657 -0.4544  0.7298  0.1564
12164TIP3    H257984   5.932   4.135  12.568  1.6202 -1.8174 -0.3442
12165TIP3   OH257985   5.486   5.911   0.340 -0.4578 -0.3156  0.4327
12165TIP3    H157986   5.449   5.887   0.255 -1.2487 -1.4751  1.0608
12165TIP3    H257987   5.579   5.890   0.333 -0.0429  1.6936 -0.8458
12166TIP3   OH257988   0.741   4.073  13.741 -0.2445  0.0656  0.0851
12166TIP3    H157989   0.742   4.148  13.801  0.5785 -0.0540  0.2363
12166TIP3    H257990   0.649   4.062  13.718 -0.4548  0.7163  0.5727
12167TIP3   OH257991   3.443   3.425   5.966  0.3138  0.4732 -0.2815
12167TIP3    H157992   3.473   3.334   5.959 -2.1978 -0.4372 -0.1017
12167TIP3    H257993   3.352   3.423   5.935  0.1085  2.8846 -0.0142
12168TIP3   OH257994   5.836   3.454   4.738 -0.0459 -0.1831  0.1307
12168TIP3    H157995   5.906   3.421   4.682  0.0164 -0.1512  0.1894
12168TIP3    H257996   5.839   3.398   4.816 -0.4188 -0.5083 -0.0882
12169TIP3   OH257997   4.997   0.401   4.318  0.3947  0.4458  1.0617
12169TIP3    H157998   4.931   0.376   4.382 -2.2963  0.3811 -1.5490
12169TIP3    H257999   5.018   0.319   4.271  0.4612  0.9180  0.2452
12170TIP3   OH258000   6.570   0.822   3.742 -0.2850 -0.2323 -0.2116
12170TIP3    H158001   6.566   0.848   3.834  0.5405 -0.0211 -0.2303
12170TIP3    H258002   6.523   0.738   3.739 -2.3799  0.8773 -0.0344
12171TIP3   OH258003   4.086   2.747   2.680  0.4638  0.6883 -0.9903
12171TIP3    H158004   4.041   2.813   2.732 -1.8314 -0.0446 -1.9312
12171TIP3    H258005   4.021   2.717   2.616  2.5865  0.2247 -3.0845
12172TIP3   OH258006   3.107   5.062   3.204  0.0845 -0.1813  0.1119
12172TIP3    H158007   3.061   5.142   3.181  1.0176  0.3311 -0.0245
12172TIP3    H258008   3.039   5.003   3.237 -0.9591 -0.1518 -1.8477
12173TIP3   OH258009   3.584   3.265   1.179 -0.2527 -0.1809  0.1311
12173TIP3    H158010   3.515   3.217   1.223 -0.2353  1.4401  2.0762
12173TIP3    H258011   3.541   3.343   1.144  0.3762  0.2456  0.2889
12174TIP3   OH258012   3.256   2.209  14.538  0.3746 -0.1145 -0.3665
12174TIP3    H158013   3.288   2.148  14.604 -1.1763  0.4982  1.0050
12174TIP3    H258014   3.297   2.292  14.561 -0.1238  0.0880 -0.2025
12175TIP3   OH258015   3.790   3.154   6.871  0.3054  0.2308  0.1143
12175TIP3    H158016   3.862   3.121   6.925 -0.0213 -0.3778  0.1774
12175TIP3    H258017   3.717   3.162   6.932  0.3338  0.9195  0.0637
12176TIP3   OH258018   1.071   3.005  15.634  0.2639 -0.7400 -0.0914
12176TIP3    H158019   1.118   2.930  15.670  0.0435 -0.7992  0.0778
12176TIP3    H258020   1.106   3.080  15.681  1.4286 -0.5681 -1.1759
12177TIP3   OH258021   2.787   4.006  17.059  0.0692  0.1798 -0.0052
12177TIP3    H158022   2.821   4.042  17.141  1.9202  2.1160 -1.5058
12177TIP3    H258023   2.787   3.912  17.072  2.5801  0.3043  1.4457
12178TIP3   OH258024   2.942   3.160  12.172 -0.2222  0.0128  0.4355
12178TIP3    H158025   2.978   3.247  12.157  0.5441 -0.2543  0.6677
12178TIP3    H258026   2.923   3.126  12.085 -0.5227  0.4101  0.3458
12179TIP3   OH258027   5.456   3.041  12.063  0.2843  0.2255  0.0723
12179TIP3    H158028   5.402   3.116  12.087  0.5328  1.2487 -2.2922
12179TIP3    H258029   5.515   3.028  12.137 -0.5000  1.6829  0.9771
12180TIP3   OH258030   4.953   2.552   0.432 -0.6073  0.2985  0.2876
12180TIP3    H158031   4.909   2.608   0.495 -0.3422  1.0782 -0.2117
12180TIP3    H258032   4.982   2.476   0.483 -0.7944  0.7054  1.0041
12181TIP3   OH258033   2.122   1.702  12.306 -0.3052 -0.4280  0.5916
12181TIP3    H158034   2.046   1.666  12.352 -1.1642  1.2268  0.5159
12181TIP3    H258035   2.182   1.728  12.376 -0.8767  0.5060  0.7558
12182TIP3   OH258036   3.234   5.591   6.540  0.3469  0.1484 -0.0256
12182TIP3    H158037   3.228   5.505   6.580 -0.0271  0.2896  0.2316
12182TIP3    H258038   3.310   5.632   6.582  0.7281 -0.1763 -0.3921
12183TIP3   OH258039   2.192   4.355  17.401  0.3625  0.0664  0.1864
12183TIP3    H158040   2.188   4.406  17.320 -1.5436 -1.0692 -0.4755
12183TIP3    H258041   2.131   4.399  17.460 -1.7432 -1.6901 -0.5864
12184TIP3   OH258042   6.508   3.026   4.741  0.1990 -0.0607 -0.6709
12184TIP3    H158043   6.504   3.121   4.734  0.4861  0.0436  0.3816
12184TIP3    H258044   6.569   3.009   4.813 -1.2340 -0.9880  0.3919
12185TIP3   OH258045   5.029   1.858  15.059 -0.2330  0.2314  0.6725
12185TIP3    H158046   5.015   1.764  15.049 -1.0071  0.2825  1.1818
12185TIP3    H258047   5.123   1.867  15.076 -0.1353 -0.4343  0.4939
12186TIP3   OH258048   2.703   5.529  15.354 -0.5778  0.5098 -0.1724
12186TIP3    H158049   2.668   5.577  15.430 -0.0834 -1.2002  1.2082
12186TIP3    H258050   2.785   5.490  15.386 -0.7740 -0.9265 -1.3140
12187TIP3   OH258051   2.913   2.313  12.115 -0.2894 -0.3683  0.1808
12187TIP3    H158052   2.879   2.402  12.118 -0.0430 -0.2933  2.4623
12187TIP3    H258053   2.837   2.259  12.090 -0.6029  0.3887 -0.5468
12188TIP3   OH258054   0.141   2.939  17.635  0.7026 -0.0494  0.6718
12188TIP3    H158055   0.132   2.871  17.569 -0.8851  0.4593  0.2951
12188TIP3    H258056   0.170   3.016  17.586  0.9928 -0.0547  0.8328
12189TIP3   OH258057   3.070   5.295  13.760 -0.0707 -0.2642 -0.3476
12189TIP3    H158058   3.105   5.256  13.840  2.3112 -1.2214 -1.7501
12189TIP3    H258059   3.027   5.223  13.714  1.2100 -0.4710 -1.2814
12190TIP3   OH258060   1.441   5.876  11.642  0.3854  0.2528 -1.0115
12190TIP3    H158061   1.511   5.936  11.615  0.7161 -0.0531 -0.8442
12190TIP3    H258062   1.425   5.822  11.564  0.0638  0.5799 -1.1725
12191TIP3   OH258063   2.975   2.444   6.843  0.4064 -0.0072 -0.2725
12191TIP3    H158064   2.967   2.380   6.914  4.0517 -0.8725 -0.4688
12191TIP3    H258065   3.003   2.524   6.887  2.0087 -0.3624 -0.5694
12192TIP3   OH258066   0.156   2.122  14.159  0.1725 -0.4790  0.0850
12192TIP3    H158067   0.092   2.133  14.088  2.3909 -0.7261 -2.0601
12192TIP3    H258068   0.183   2.030  14.153  0.0442 -0.6327  1.6007
12193TIP3   OH258069   6.273   5.026   2.637  0.0018  0.1236 -0.0315
12193TIP3    H158070   6.267   4.940   2.594 -1.3932  0.0640  0.2537
12193TIP3    H258071   6.260   5.089   2.566 -0.0322  0.0809 -0.0634
12194TIP3   OH258072   5.238   5.360   4.629 -0.5819  0.3573 -0.0889
12194TIP3    H158073   5.269   5.329   4.544 -0.0054  0.8309 -0.0491
12194TIP3    H258074   5.157   5.408   4.609 -0.9193 -0.2619 -0.2653
12195TIP3   OH258075   0.887   4.103   2.470  0.0860  0.1925  0.1948
12195TIP3    H158076   0.829   4.040   2.512 -0.8825  1.3579  0.6833
12195TIP3    H258077   0.834   4.183   2.464  1.0228  0.7440 -1.0699
12196TIP3   OH258078   1.659   3.622  11.701  0.3525  0.0067 -0.2520
12196TIP3    H158079   1.738   3.643  11.751  0.0962  0.7917 -0.1677
12196TIP3    H258080   1.587   3.655  11.755  0.1157  1.8210 -1.5787
12197TIP3   OH258081   4.271   5.342   6.882  0.7895 -0.2793  0.2212
12197TIP3    H158082   4.242   5.251   6.886  1.5030 -0.5563 -0.5671
12197TIP3    H258083   4.352   5.339   6.831  1.2523  0.6976  0.8648
12198TIP3   OH258084   3.135   5.818   4.793  0.2849 -0.0775  0.2971
12198TIP3    H158085   3.083   5.866   4.729  0.3795  0.2362  0.4542
12198TIP3    H258086   3.199   5.770   4.740 -0.8417 -1.3374  0.0169
12199TIP3   OH258087   0.026   5.282  12.943  0.2472  0.5023  0.4020
12199TIP3    H158088   0.095   5.223  12.975 -0.3511  0.0539  0.9077
12199TIP3    H258089  -0.055   5.234  12.959 -0.1408  0.6348 -1.0276
12200TIP3   OH258090   6.151   5.015  12.956 -0.5582  0.1642 -0.2018
12200TIP3    H158091   6.150   5.111  12.949 -1.2964  0.1859  0.0872
12200TIP3    H258092   6.064   4.989  12.925 -0.6144 -0.3668  0.4008
12201TIP3   OH258093   4.625   2.722  12.305  0.0069 -0.8172  0.1139
12201TIP3    H158094   4.572   2.693  12.380 -1.0049 -0.2536 -0.3593
12201TIP3    H258095   4.715   2.702  12.331 -0.4823 -2.8371  0.4877
12202TIP3   OH258096   6.670   5.701  17.530 -0.3245  0.1394  0.0393
12202TIP3    H158097   6.757   5.666  17.548  0.0651  0.7111 -0.6708
12202TIP3    H258098   6.673   5.724  17.437 -0.5457  2.0933  0.4745
12203TIP3   OH258099   2.460   3.501   0.266 -0.4052 -0.5473  0.2117
12203TIP3    H158100   2.465   3.506   0.171  1.3838 -0.6541  0.2678
12203TIP3    H258101   2.467   3.408   0.286 -0.7486 -0.5224  0.4563
12204TIP3   OH258102   6.689   5.647   5.894  0.6004  1.0043 -0.3927
12204TIP3    H158103   6.749   5.611   5.829  0.2612 -0.3907  0.0263
12204TIP3    H258104   6.654   5.726   5.853 -0.5097 -0.4555 -2.4457
12205TIP3   OH258105   1.446   4.754  15.957 -0.8688 -0.4338  0.0183
12205TIP3    H158106   1.541   4.760  15.956 -0.8363  0.1724  2.2086
12205TIP3    H258107   1.427   4.662  15.975 -0.7672 -0.8950 -2.0415
12206TIP3   OH258108   2.124   4.810  14.268 -0.1566 -0.4303  0.2302
12206TIP3    H158109   2.144   4.886  14.212 -1.7526  0.1532  0.4084
12206TIP3    H258110   2.170   4.829  14.350  1.1717 -0.6871 -0.4307
12207TIP3   OH258111   2.496   1.252   2.697 -0.2516 -1.2079 -0.0764
12207TIP3    H158112   2.508   1.167   2.741  0.1146 -1.3554 -0.4602
12207TIP3    H258113   2.572   1.261   2.640 -0.8976 -1.1801 -0.9574
12208TIP3   OH258114   0.538   2.653   0.183 -0.2866  0.0332  0.0399
12208TIP3    H158115   0.515   2.582   0.124 -0.4583 -0.0324  0.1839
12208TIP3    H258116   0.477   2.724   0.160  0.5361  0.4951 -0.7813
12209TIP3   OH258117   4.952   3.873   6.452  0.0502 -0.7048  0.4540
12209TIP3    H158118   4.978   3.880   6.544  0.0406 -1.6085  0.5338
12209TIP3    H258119   4.946   3.963   6.422 -0.2471 -0.3898  1.4281
12210TIP3   OH258120   1.503   0.084   5.122 -0.2645 -0.0395  0.4455
12210TIP3    H158121   1.434   0.137   5.083 -1.0024 -1.4077 -0.1595
12210TIP3    H258122   1.546   0.144   5.184 -1.7229  0.9554  0.5585
12211TIP3   OH258123   1.984   2.413   4.015  0.7722  0.3108  0.2075
12211TIP3    H158124   1.944   2.448   4.094 -1.3866  0.7416 -0.9787
12211TIP3    H258125   2.045   2.346   4.045 -1.8889 -1.4211  2.1606
12212TIP3   OH258126   2.683   2.576   3.626  0.2598  0.0317 -0.6948
12212TIP3    H158127   2.680   2.578   3.721  0.2073  0.3667 -0.6996
12212TIP3    H258128   2.691   2.484   3.603  0.5105 -0.0283 -0.3602
12213TIP3   OH258129   5.721   6.525  13.532  0.2803 -0.2766  0.3003
12213TIP3    H158130   5.803   6.481  13.508  0.0082 -1.3687  1.2991
12213TIP3    H258131   5.677   6.464  13.591 -2.1025 -0.5053 -1.5592
12214TIP3   OH258132   4.907   0.569  17.140 -0.1107  0.2697 -0.1112
12214TIP3    H158133   4.818   0.541  17.121  0.2478 -0.3173 -0.9825
12214TIP3    H258134   4.935   0.616  17.062 -0.7091  3.2491  1.3154
12215TIP3   OH258135   0.471   2.620  13.179 -0.2270 -0.6758  0.3409
12215TIP3    H158136   0.515   2.692  13.134 -0.0660 -0.7257  0.4205
12215TIP3    H258137   0.516   2.541  13.148 -0.3323 -0.7348  0.3367
12216TIP3   OH258138   5.764   6.168  17.614 -0.3751 -0.5120 -0.5839
12216TIP3    H158139   5.677   6.138  17.587 -0.7219  0.1884 -0.2652
12216TIP3    H258140   5.807   6.196  17.533 -0.6047 -0.4598 -0.6870
12217TIP3   OH258141   4.472   2.386   5.578  0.3478  0.2562  0.6991
12217TIP3    H158142   4.422   2.321   5.529 -1.3936  3.3984 -2.1083
12217TIP3    H258143   4.414   2.413   5.649  1.4690 -1.7724  2.5050
12218TIP3   OH258144   4.818   6.470  11.192 -0.0657  0.3334 -0.1480
12218TIP3    H158145   4.820   6.557  11.232  0.5702  0.3641 -0.2397
12218TIP3    H258146   4.877   6.418  11.247 -1.6110 -0.4515  0.8340
12219TIP3   OH258147   0.408   6.557   4.493  0.2759 -0.5069  0.2745
12219TIP3    H158148   0.475   6.534   4.558  0.3923 -1.2982 -0.1212
12219TIP3    H258149   0.457   6.596   4.421  0.3703 -1.5036 -0.2116
12220TIP3   OH258150   1.913   5.367  15.383 -0.8312  0.0077  0.0439
12220TIP3    H158151   1.889   5.387  15.474 -0.1565 -0.6731  0.3847
12220TIP3    H258152   2.007   5.383  15.380 -0.7981 -0.2895 -0.4532
12221TIP3   OH258153   0.020   4.620  14.476 -0.5923 -0.7635 -0.2811
12221TIP3    H158154   0.007   4.525  14.479  0.9074 -0.9869  0.1641
12221TIP3    H258155  -0.050   4.652  14.419 -2.3977 -1.8681  1.2388
12222TIP3   OH258156   3.250   0.103   3.852 -0.2806 -0.0682  0.6995
12222TIP3    H158157   3.211   0.061   3.775 -1.0611  0.4810  0.7770
12222TIP3    H258158   3.237   0.197   3.837  0.2472  0.0793  1.1462
12223TIP3   OH258159   3.187   3.498  13.950  0.2074  0.4584  0.1320
12223TIP3    H158160   3.145   3.432  14.004  2.3003  0.0788  1.3953
12223TIP3    H258161   3.153   3.581  13.982 -1.1009  0.1089 -0.2860
12224TIP3   OH258162   3.060   2.918  12.281  0.1193  0.2621 -1.0679
12224TIP3    H158163   3.065   2.940  12.374 -0.1168 -0.0527 -0.9806
12224TIP3    H258164   3.027   2.998  12.240 -0.2301  0.2506 -0.8179
12225TIP3   OH258165   5.730   3.840   2.273 -0.2732  0.5855 -0.2008
12225TIP3    H158166   5.797   3.772   2.269 -1.3309 -0.5932  1.2881
12225TIP3    H258167   5.650   3.794   2.298 -0.9621  2.3978  1.1333
12226TIP3   OH258168   0.365   0.871  15.095 -0.5036  0.6510  0.3690
12226TIP3    H158169   0.427   0.799  15.085 -0.3971  0.7628  0.2211
12226TIP3    H258170   0.355   0.881  15.190  0.5788  1.3786  0.4195
12227TIP3   OH258171   5.513   2.187  12.972  0.7239 -0.2781 -0.1623
12227TIP3    H158172   5.477   2.162  13.057 -0.1795  1.1180 -0.1037
12227TIP3    H258173   5.519   2.105  12.923 -0.4908 -0.8515  0.6052
12228TIP3   OH258174   6.308   2.950  13.277  0.3582 -0.5364  0.2101
12228TIP3    H158175   6.353   2.876  13.316  0.3806 -0.1984  0.8341
12228TIP3    H258176   6.359   2.971  13.199 -0.3386 -1.9460 -0.6716
12229TIP3   OH258177   1.124   0.605   1.148 -0.0745 -0.2744  0.6737
12229TIP3    H158178   1.164   0.681   1.190  1.5968 -0.0426 -1.1839
12229TIP3    H258179   1.198   0.555   1.113 -1.2375 -1.7978  0.2880
12230TIP3   OH258180   3.262   0.418  12.957 -0.1347 -0.2509  1.0147
12230TIP3    H158181   3.310   0.416  13.039  1.7325 -0.7018 -0.0247
12230TIP3    H258182   3.286   0.337  12.913 -1.3544 -0.1716  0.1553
12231TIP3   OH258183   0.466   0.098  12.603  0.0543  0.0513 -0.1039
12231TIP3    H158184   0.549   0.135  12.634 -0.0333 -0.5559  0.8932
12231TIP3    H258185   0.443   0.152  12.527  0.3447  1.5281  0.8031
12232TIP3   OH258186   0.112   5.264   1.689  0.2180 -0.1498  0.3324
12232TIP3    H158187   0.021   5.283   1.714 -0.0712  1.1570 -1.5040
12232TIP3    H258188   0.115   5.169   1.680 -1.3540 -0.1230 -0.8880
12233TIP3   OH258189   1.818   5.407   6.584 -0.3787 -0.1296 -1.1341
12233TIP3    H158190   1.806   5.362   6.668 -0.3576  1.3035 -0.3275
12233TIP3    H258191   1.752   5.477   6.586  0.4123  0.6434 -1.7955
12234TIP3   OH258192   5.434   3.312   4.219  0.2785 -0.0673 -0.1898
12234TIP3    H158193   5.352   3.303   4.268  0.5517  1.7624  0.6936
12234TIP3    H258194   5.434   3.239   4.157 -0.8256 -1.5738  1.4887
12235TIP3   OH258195   3.263   6.410  17.357 -0.6519  0.3609  0.4595
12235TIP3    H158196   3.196   6.384  17.293 -0.1509 -0.6841  0.3503
12235TIP3    H258197   3.325   6.338  17.358  0.4796  1.3063  0.5798
12236TIP3   OH258198   2.921   3.180   3.934  0.1450 -0.0877 -0.6671
12236TIP3    H158199   2.977   3.225   3.872  2.1725  0.5382  1.4740
12236TIP3    H258200   2.962   3.195   4.019 -1.3968 -2.5343  0.6409
12237TIP3   OH258201   4.461   0.465  15.487 -0.2635 -0.0660 -0.0511
12237TIP3    H158202   4.548   0.425  15.494 -0.0948  0.4453  0.9007
12237TIP3    H258203   4.463   0.510  15.403  0.7283  0.7101  0.3652
12238TIP3   OH258204   1.282   2.091  17.532  0.0799 -0.1332  0.4383
12238TIP3    H158205   1.223   2.034  17.482 -2.1405 -0.3676  3.1044
12238TIP3    H258206   1.340   2.031  17.578  0.1877 -0.0394  0.4263
12239TIP3   OH258207   3.824   2.873   5.674 -0.5427 -0.2300  0.1538
12239TIP3    H158208   3.883   2.803   5.647  1.4495  0.8370  1.4506
12239TIP3    H258209   3.805   2.854   5.766  0.0428  0.9018  0.5271
12240TIP3   OH258210   0.735   3.821   2.921 -0.4793 -0.0229  1.4804
12240TIP3    H158211   0.647   3.856   2.930 -0.4351  0.3819  0.4604
12240TIP3    H258212   0.758   3.836   2.829 -0.4965 -2.8297  0.9408
12241TIP3   OH258213   4.852   4.066  14.330  0.2055 -0.5103 -0.5405
12241TIP3    H158214   4.875   4.079  14.239  0.6133 -1.3429 -0.5640
12241TIP3    H258215   4.802   4.144  14.354  0.5118 -0.0694 -1.3301
12242TIP3   OH258216   0.867   6.662   1.424 -0.4429  0.0829 -0.3951
12242TIP3    H158217   0.779   6.688   1.396 -0.1379 -0.2955 -1.8138
12242TIP3    H258218   0.895   6.600   1.356  1.3632  1.0663 -0.6016
12243TIP3   OH258219   1.973   2.415   1.276  0.7503 -0.0603 -0.0386
12243TIP3    H158220   2.066   2.410   1.298  1.4886  0.3161 -2.7014
12243TIP3    H258221   1.958   2.508   1.257 -0.3900  0.0064  1.0088
12244TIP3   OH258222   5.995   5.495   4.888 -0.1899 -0.3214  0.3114
12244TIP3    H158223   5.981   5.408   4.851  0.6826  0.0996 -1.0749
12244TIP3    H258224   5.918   5.545   4.862 -1.3627 -0.9674  2.2430
12245TIP3   OH258225   0.186   6.031  17.459 -0.4396  0.2237  0.5681
12245TIP3    H158226   0.151   5.979  17.532  2.0850  0.5118  2.0901
12245TIP3    H258227   0.166   5.979  17.381 -0.6093 -1.5867  1.7570
12246TIP3   OH258228   0.010   4.730   0.277  0.1570 -1.1599 -0.0550
12246TIP3    H158229  -0.042   4.758   0.352 -0.3791  0.4448 -0.9709
12246TIP3    H258230  -0.008   4.637   0.268  2.1361 -1.9995  3.2479
12247TIP3   OH258231   5.896   3.968   4.281 -0.1881  0.4281  0.1514
12247TIP3    H158232   5.879   3.894   4.223 -0.4559 -0.6892  1.5705
12247TIP3    H258233   5.991   3.976   4.283 -0.1484 -0.0187  0.1354
12248TIP3   OH258234   5.007   4.610   1.012  0.0585  0.8303 -0.3380
12248TIP3    H158235   4.985   4.685   0.958 -1.6747  1.7215  1.5166
12248TIP3    H258236   5.072   4.643   1.074 -2.3224  1.5418  1.9451
12249TIP3   OH258237   3.489   0.657  11.723 -0.6074 -0.1549  0.2324
12249TIP3    H158238   3.502   0.650  11.629 -0.7203 -0.4346  0.2365
12249TIP3    H258239   3.492   0.751  11.741 -0.8164 -0.0872 -0.0842
12250TIP3   OH258240   6.537   2.413  14.418  0.4634 -0.7274 -0.0806
12250TIP3    H158241   6.559   2.476  14.487 -0.3087 -0.2928 -0.2283
12250TIP3    H258242   6.487   2.463  14.354  0.6913 -1.2643 -0.6917
12251TIP3   OH258243   5.308   5.521   2.563  0.0373 -0.0043  0.2337
12251TIP3    H158244   5.280   5.434   2.534 -0.5346 -0.1931  1.2781
12251TIP3    H258245   5.254   5.582   2.512  0.2782 -0.2638 -0.3381
12252TIP3   OH258246   0.560   5.776   0.331 -0.0568  0.1318 -0.0768
12252TIP3    H158247   0.591   5.864   0.352 -0.7443  0.5153 -0.6059
12252TIP3    H258248   0.500   5.755   0.403  0.0332  0.1372 -0.0001
12253TIP3   OH258249   4.541   4.598  17.053  0.0548  0.2965  1.1097
12253TIP3    H158250   4.513   4.556  16.971  0.1752  2.1519  0.0618
12253TIP3    H258251   4.473   4.663  17.071  0.1214  0.0271  2.4106
12254TIP3   OH258252   5.706   2.701  16.251 -0.3768  0.3376  0.1250
12254TIP3    H158253   5.709   2.633  16.317 -1.9361  1.2747  1.2351
12254TIP3    H258254   5.770   2.674  16.185  2.4931  0.1730  2.7408
12255TIP3   OH258255   2.813   1.030  17.197  0.3301 -0.2264 -0.0381
12255TIP3    H158256   2.728   1.071  17.215 -0.3951 -1.0463 -1.4224
12255TIP3    H258257   2.856   1.026  17.283 -1.3192 -0.4207  0.8227
12256TIP3   OH258258   2.203   2.360   3.017 -0.1914 -0.5923 -0.7048
12256TIP3    H158259   2.119   2.328   3.050 -0.4007  1.4818  1.0313
12256TIP3    H258260   2.181   2.421   2.947 -0.0863 -0.8042 -0.9216
12257TIP3   OH258261   0.275   2.139  15.300  0.3830  0.1925  0.5103
12257TIP3    H158262   0.226   2.178  15.372  0.9418  0.8321  0.5591
12257TIP3    H258263   0.348   2.094  15.343  0.6238  0.4365  0.3618
12258TIP3   OH258264   4.635   0.854  15.894  0.2231  0.7519  0.2326
12258TIP3    H158265   4.618   0.877  15.803  2.0710 -1.6347 -0.8362
12258TIP3    H258266   4.730   0.852  15.901  0.1263 -0.0093  1.9740
12259TIP3   OH258267   0.391   5.027  11.586 -0.3063  0.4506 -0.1731
12259TIP3    H158268   0.457   4.970  11.548  0.7874  1.3650  0.3044
12259TIP3    H258269   0.323   4.968  11.618  0.9556 -0.5963  0.6376
12260TIP3   OH258270   0.255   5.920  15.948 -0.4784 -0.0040  0.7013
12260TIP3    H158271   0.201   5.845  15.970 -1.5851  0.7141  0.5370
12260TIP3    H258272   0.345   5.888  15.954 -0.8749 -2.3054 -2.6404
12261TIP3   OH258273   3.873   6.094  14.766  0.3709 -0.0348  0.9891
12261TIP3    H158274   3.853   6.188  14.759  1.5148  0.1485 -0.1265
12261TIP3    H258275   3.787   6.051  14.765 -0.1296  0.9511  0.7013
12262TIP3   OH258276   4.118   5.770  10.866 -0.8678  0.5613 -0.0796
12262TIP3    H158277   4.118   5.704  10.935 -2.4046  1.7587  1.1467
12262TIP3    H258278   4.180   5.736  10.800  0.4264 -0.7659  1.7103
12263TIP3   OH258279   5.401   6.504   0.680 -0.0809  0.3179 -0.0147
12263TIP3    H158280   5.415   6.585   0.728  1.3724 -0.5153  1.0594
12263TIP3    H258281   5.310   6.479   0.700  0.2570  0.3795  1.7416
12264TIP3   OH258282   0.069   6.502   2.308  0.4203  0.1255 -0.3313
12264TIP3    H158283  -0.014   6.457   2.326 -0.6080  2.1767  0.3410
12264TIP3    H258284   0.133   6.458   2.365 -0.5110 -0.5621  0.2111
12265TIP3   OH258285   5.028   4.163   6.397  0.0058 -0.3087 -0.2841
12265TIP3    H158286   5.058   4.227   6.333 -0.6093 -0.5612 -0.8392
12265TIP3    H258287   5.092   4.168   6.469  0.1973  0.6061 -0.5151
12266TIP3   OH258288   1.407   2.423   6.613 -0.2018 -0.6497  0.2341
12266TIP3    H158289   1.437   2.507   6.578 -0.1207 -0.7664  0.0167
12266TIP3    H258290   1.329   2.444   6.663 -0.5511 -0.5287 -0.3576
12267TIP3   OH258291   6.346   0.172  16.104 -0.4051 -0.0522 -0.0381
12267TIP3    H158292   6.339   0.111  16.178  1.2368 -0.2074  0.0158
12267TIP3    H258293   6.404   0.241  16.136  0.0558  0.0492 -1.0850
12268TIP3   OH258294   5.360   4.397  14.565  0.2139  0.0433 -0.4385
12268TIP3    H158295   5.330   4.463  14.628  0.5568 -0.8305  0.6748
12268TIP3    H258296   5.284   4.381  14.509 -1.0050 -1.0424  1.3922
12269TIP3   OH258297   3.977   3.610   4.518  0.5912 -1.2615  0.0397
12269TIP3    H158298   4.045   3.597   4.585 -1.5676 -1.6417  2.2886
12269TIP3    H258299   3.927   3.528   4.519 -0.3410 -0.7335 -1.0718
12270TIP3   OH258300   3.130   5.723  13.965 -0.3707 -0.3005  0.0164
12270TIP3    H158301   3.152   5.664  14.036  0.4075  0.0484  0.0686
12270TIP3    H258302   3.059   5.678  13.918  0.0160 -1.1371  0.2181
12271TIP3   OH258303   1.272   4.440   1.625 -0.0569  0.0035  0.7211
12271TIP3    H158304   1.335   4.370   1.608 -0.4678 -0.5933  1.5918
12271TIP3    H258305   1.187   4.403   1.599  0.0102  1.1020 -1.2710
12272TIP3   OH258306   5.930   0.564  11.961  1.0201  0.2133 -0.2293
12272TIP3    H158307   5.965   0.483  12.000  0.0848 -0.8561 -1.5167
12272TIP3    H258308   5.894   0.536  11.877 -0.6919  1.7033 -0.0362
12273TIP3   OH258309   0.682   0.436   4.078 -0.4541 -0.6208  0.0453
12273TIP3    H158310   0.710   0.518   4.119 -1.2105 -0.3929  0.1174
12273TIP3    H258311   0.595   0.455   4.042 -1.6910 -2.0225  2.0991
12274TIP3   OH258312   6.296   1.008  17.628 -0.5250 -0.2716 -0.5898
12274TIP3    H158313   6.201   1.012  17.618 -0.5794  0.8261  0.1983
12274TIP3    H258314   6.325   1.099  17.621  0.3327 -0.4564  0.2937
12275TIP3   OH258315   0.635   6.030  16.106 -0.1636  0.0148  0.1079
12275TIP3    H158316   0.709   6.013  16.165 -0.9713 -1.4090  0.7426
12275TIP3    H258317   0.562   6.049  16.165  0.0757  3.5365 -0.5126
12276TIP3   OH258318   3.810   2.420  13.135  0.3846  0.3749  0.2899
12276TIP3    H158319   3.732   2.464  13.168  0.1811  0.0185  0.2896
12276TIP3    H258320   3.882   2.479  13.156 -0.1094  1.7109 -1.6066
12277TIP3   OH258321   6.106   2.297  16.063  0.7700  0.2621  0.1776
12277TIP3    H158322   6.138   2.372  16.112 -0.0401  0.2238  0.7866
12277TIP3    H258323   6.024   2.272  16.107 -0.3497  0.6400 -1.5825
12278TIP3   OH258324   2.706   6.436   1.568  0.1948 -0.1697  0.6870
12278TIP3    H158325   2.723   6.524   1.533  2.0602  0.1165  2.1826
12278TIP3    H258326   2.793   6.400   1.585 -0.5688 -1.0471  3.0828
12279TIP3   OH258327   4.130   4.153  11.726 -0.1995  0.0149  0.6179
12279TIP3    H158328   4.060   4.213  11.750 -1.7222 -1.3826 -0.1960
12279TIP3    H258329   4.138   4.161  11.631  1.0123  0.3951  0.7285
12280TIP3   OH258330   3.786   0.407   0.856  0.2871  0.5377 -0.3669
12280TIP3    H158331   3.764   0.390   0.947 -1.7954  0.6769 -0.7872
12280TIP3    H258332   3.841   0.485   0.858 -1.0361  1.4851  0.7002
12281TIP3   OH258333   5.609   1.171   0.023 -0.5746  0.0953  0.1828
12281TIP3    H158334   5.569   1.252   0.053 -0.0787 -0.5140  2.7322
12281TIP3    H258335   5.673   1.149   0.091 -2.3082 -3.6153  0.8522
12282TIP3   OH258336   1.089   0.400   0.879  0.4832 -0.0492  0.4817
12282TIP3    H158337   1.077   0.409   0.973 -5.7655  1.8392 -0.0912
12282TIP3    H258338   1.029   0.331   0.853  0.0620  1.2320 -2.3659
12283TIP3   OH258339   6.337   4.942  17.048  0.1492  0.0662  0.7646
12283TIP3    H158340   6.422   4.902  17.064  0.8939  1.2681 -0.0558
12283TIP3    H258341   6.277   4.896  17.107  1.5675 -0.0378  2.1784
12284TIP3   OH258342   0.511   5.024  12.432 -0.1236  0.4459 -0.3468
12284TIP3    H158343   0.480   5.113  12.417 -0.8606  0.1669 -0.5037
12284TIP3    H258344   0.443   4.968  12.395 -0.2124 -0.1985  0.7422
12285TIP3   OH258345   3.601   5.012   5.628  0.0177 -0.1670  0.2062
12285TIP3    H158346   3.610   4.917   5.641  2.7338 -0.3300 -1.8347
12285TIP3    H258347   3.685   5.048   5.658 -1.5343  1.8803  2.4294
12286TIP3   OH258348   0.412   1.653   3.315 -0.3970 -0.1955  0.8972
12286TIP3    H158349   0.343   1.597   3.352  0.5176 -1.6597  0.4730
12286TIP3    H258350   0.494   1.613   3.344  0.3662 -0.9073 -1.8789
12287TIP3   OH258351   1.422   5.692  11.846  0.8123 -0.5324 -0.0971
12287TIP3    H158352   1.394   5.758  11.783  2.6487  0.3863 -0.0074
12287TIP3    H258353   1.370   5.709  11.924  1.0469  0.6328 -0.1820
12288TIP3   OH258354   2.096   1.239   4.013 -0.0999 -0.1557 -0.5505
12288TIP3    H158355   2.081   1.196   4.097  0.1351 -0.0262 -0.4413
12288TIP3    H258356   2.045   1.188   3.950  0.4557 -0.7976 -0.4828
12289TIP3   OH258357   1.144   5.673   5.682 -0.7136 -0.0088  0.1813
12289TIP3    H158358   1.078   5.618   5.724  0.9825 -1.8764  0.5395
12289TIP3    H258359   1.134   5.655   5.588  0.4789 -1.7871  0.3523
12290TIP3   OH258360   3.865   3.946   4.717  0.0314  0.1292 -0.2971
12290TIP3    H158361   3.893   4.036   4.732  1.0733 -0.1785 -0.2744
12290TIP3    H258362   3.781   3.939   4.762 -0.8551  1.5290 -1.6800
12291TIP3   OH258363   5.098   3.410   6.093 -0.0555  0.1154  0.1055
12291TIP3    H158364   5.107   3.494   6.137 -0.2862 -0.8511  2.1018
12291TIP3    H258365   5.010   3.381   6.113 -0.0862 -0.4915 -0.8158
12292TIP3   OH258366   5.517   2.539   0.681  0.3082  0.1931  0.0679
12292TIP3    H158367   5.480   2.532   0.769  2.6771  0.0291  1.0996
12292TIP3    H258368   5.548   2.451   0.661 -0.0527  0.2714 -0.8694
12293TIP3   OH258369   5.038   0.726  14.384  0.2398  0.2311 -0.0427
12293TIP3    H158370   5.127   0.694  14.402  0.3635  1.2640  1.2634
12293TIP3    H258371   5.050   0.820  14.366 -0.3770  0.0206 -1.7851
12294TIP3   OH258372   5.045   2.277  12.933 -0.0410  0.4929  0.0433
12294TIP3    H158373   5.086   2.274  12.846  0.6460 -0.7066  0.3997
12294TIP3    H258374   4.995   2.359  12.932  0.9072  1.0861 -1.0563
12295TIP3   OH258375   5.319   0.093  11.027  0.2128 -0.4703  0.0022
12295TIP3    H158376   5.247   0.156  11.024  1.6433  1.2347 -0.9042
12295TIP3    H258377   5.385   0.130  10.968  0.8931 -3.1751 -1.0853
12296TIP3   OH258378   0.282   3.536  13.169 -0.0669  0.2276 -0.4478
12296TIP3    H158379   0.301   3.442  13.179 -0.3284  0.1729 -0.4577
12296TIP3    H258380   0.200   3.538  13.119 -1.5984  0.4026  1.9051
12297TIP3   OH258381   3.991   0.849  10.985 -0.5897  0.4508  0.1577
12297TIP3    H158382   4.016   0.938  11.012 -5.3911  1.5556  1.8847
12297TIP3    H258383   3.974   0.857  10.892 -0.5378  1.2531  0.2040
12298TIP3   OH258384   0.653   5.924   0.589 -0.6041  0.3082  0.6141
12298TIP3    H158385   0.597   5.965   0.523 -0.4228  1.3641  1.0945
12298TIP3    H258386   0.661   5.990   0.658  0.0643 -0.3781  1.2095
12299TIP3   OH258387   5.334   5.000  14.852 -0.4745 -0.1200  0.3650
12299TIP3    H158388   5.261   4.993  14.792 -0.8994  0.4999  0.8009
12299TIP3    H258389   5.401   5.047  14.803 -0.5715 -0.2008  0.1545
12300TIP3   OH258390   5.981   1.614   3.144 -0.1693  0.3256  0.0117
12300TIP3    H158391   5.991   1.641   3.235 -1.4500  0.5552  0.0980
12300TIP3    H258392   5.901   1.562   3.142  0.1107 -0.0967 -0.8960
12301TIP3   OH258393   2.528   4.838   0.059 -0.0783  0.3482 -0.4102
12301TIP3    H158394   2.503   4.900  -0.010 -0.0173 -0.5872 -1.2957
12301TIP3    H258395   2.517   4.752   0.019  1.6482 -0.1740  0.1613
12302TIP3   OH258396   4.355   6.440   3.849  0.1256 -0.5771  0.5203
12302TIP3    H158397   4.381   6.349   3.864 -0.2747 -0.6613  0.7430
12302TIP3    H258398   4.416   6.491   3.901  0.3231 -0.7240  0.4320
12303TIP3   OH258399   6.040   2.080   6.277  0.3960  0.8968 -0.0938
12303TIP3    H158400   6.118   2.036   6.313  1.7168  1.5500 -1.9996
12303TIP3    H258401   6.058   2.174   6.291  0.4687  1.1032 -1.5023
12304TIP3   OH258402   3.875   5.823  11.060 -0.0541 -0.3746  0.1382
12304TIP3    H158403   3.861   5.917  11.046 -0.0356 -0.3514  0.2703
12304TIP3    H258404   3.938   5.798  10.993 -1.8109 -0.7974 -1.4175
12305TIP3   OH258405   2.727   4.118   6.839 -0.0371 -0.1158 -0.3363
12305TIP3    H158406   2.801   4.120   6.901 -0.0501 -0.1667 -0.3191
12305TIP3    H258407   2.757   4.171   6.765 -0.6001  1.2477  0.3769
12306TIP3   OH258408   2.428   1.481   5.150  0.1937 -0.3377 -0.4490
12306TIP3    H158409   2.449   1.544   5.220  0.7344 -1.0520  0.0593
12306TIP3    H258410   2.493   1.411   5.162 -1.7619 -2.0925  0.4272
12307TIP3   OH258411   0.793   4.167   0.215  0.8491 -0.3361 -0.2985
12307TIP3    H158412   0.809   4.257   0.243 -0.5411 -0.3002  0.4791
12307TIP3    H258413   0.741   4.129   0.286  2.5256 -2.1833  0.0454
12308TIP3   OH258414   4.874   2.038  13.977  0.4540  0.1473  0.0717
12308TIP3    H158415   4.802   2.001  14.029 -0.1773  1.4817  0.1918
12308TIP3    H258416   4.887   1.975  13.907 -0.9900 -0.0438 -0.0632
12309TIP3   OH258417   2.334   5.620  12.149 -0.2068  0.3706  0.4468
12309TIP3    H158418   2.366   5.628  12.059 -2.3641 -0.7912 -0.5060
12309TIP3    H258419   2.273   5.546  12.145  1.8068 -1.6678  3.5189
12310TIP3   OH258420   2.915   1.525  15.709 -0.4443 -0.8338 -0.7416
12310TIP3    H158421   2.957   1.592  15.763  0.5893 -2.5162  0.6926
12310TIP3    H258422   2.955   1.535  15.622 -0.7108  0.6962 -0.7121
12311TIP3   OH258423   0.497   6.395  13.746 -0.3793 -0.7093  0.3140
12311TIP3    H158424   0.480   6.410  13.653  0.6549  1.8115  0.4544
12311TIP3    H258425   0.427   6.441  13.791 -0.5277 -1.4033  0.8210
12312TIP3   OH258426   0.177   5.738   2.836  0.1124  0.1090  0.0904
12312TIP3    H158427   0.140   5.826   2.834  1.0824  0.5369  0.1667
12312TIP3    H258428   0.230   5.733   2.756  0.8320 -0.0440  0.5659
12313TIP3   OH258429   3.101   4.783  11.255  0.1698  0.2905  0.0711
12313TIP3    H158430   3.034   4.722  11.288 -0.3388  1.3826  1.1265
12313TIP3    H258431   3.179   4.729  11.245 -0.5777 -0.7868 -0.1771
12314TIP3   OH258432   0.024   5.473   0.283 -0.2525  0.1929  0.1701
12314TIP3    H158433   0.108   5.449   0.243  0.0022  0.1006  0.7518
12314TIP3    H258434  -0.040   5.459   0.214  0.3211  1.1576 -0.5854
12315TIP3   OH258435   3.379   2.726   2.875  0.0555  0.2574  0.0385
12315TIP3    H158436   3.346   2.668   2.805 -0.5206  0.2459  0.3118
12315TIP3    H258437   3.474   2.718   2.869 -0.0057 -0.4736 -0.1410
12316TIP3   OH258438   3.612   4.765   3.760 -0.2013  0.0254 -0.1863
12316TIP3    H158439   3.663   4.820   3.700 -0.9578  0.0851 -0.7906
12316TIP3    H258440   3.536   4.818   3.782  0.0223 -0.0354  0.7636
12317TIP3   OH258441   6.475   2.662  14.299 -0.2872 -0.6262  0.0965
12317TIP3    H158442   6.560   2.695  14.329  0.2323  0.5017 -2.3893
12317TIP3    H258443   6.411   2.720  14.342  0.4302  1.0288 -0.9835
12318TIP3   OH258444   4.168   0.764   6.754  0.4570  0.7676  0.4552
12318TIP3    H158445   4.237   0.774   6.687  0.1128 -0.1134 -0.0589
12318TIP3    H258446   4.123   0.683   6.729  0.2249  0.5024  1.6846
12319TIP3   OH258447   3.483   5.810   3.141 -0.4651  0.2923  0.1243
12319TIP3    H158448   3.491   5.717   3.117  0.1264  0.2460  0.4733
12319TIP3    H258449   3.457   5.809   3.233  1.3091  0.4536  0.6635
12320TIP3   OH258450   3.848   5.090   6.949 -0.3746  0.0004  0.1018
12320TIP3    H158451   3.925   5.035   6.967 -1.4186 -2.2097 -1.6060
12320TIP3    H258452   3.774   5.038   6.982 -1.2710  1.4019  0.3572
12321TIP3   OH258453   2.122   6.353  13.241 -0.1011 -0.2077 -0.0964
12321TIP3    H158454   2.215   6.336  13.227  0.6299  2.0291  1.4785
12321TIP3    H258455   2.101   6.427  13.184 -0.3597  0.6285  1.0488
12322TIP3   OH258456   1.086   0.499  12.885 -0.1895  0.0843 -0.0110
12322TIP3    H158457   1.117   0.409  12.896  2.0755  0.6691 -0.9401
12322TIP3    H258458   1.136   0.532  12.810 -2.4355  1.5184 -0.9931
12323TIP3   OH258459   5.900   0.231  14.565  0.2915 -0.2598 -0.1814
12323TIP3    H158460   5.872   0.139  14.559  0.3711 -0.2038 -3.7136
12323TIP3    H258461   5.819   0.278  14.587 -0.1721 -1.0174 -0.2033
12324TIP3   OH258462   0.142   4.301   2.137 -0.4453  0.0646 -0.3972
12324TIP3    H158463   0.063   4.320   2.086 -1.3506 -1.3625  0.4052
12324TIP3    H258464   0.119   4.323   2.227  0.1801 -0.0597 -0.2011
12325TIP3   OH258465   2.233   1.920   4.889  1.5367 -0.2141  0.0016
12325TIP3    H158466   2.325   1.944   4.877  1.3093  0.9829  0.4567
12325TIP3    H258467   2.186   1.980   4.832  1.1780 -3.6063 -3.6939
12326TIP3   OH258468   4.244   1.273  17.312 -0.3161 -0.1273 -0.0675
12326TIP3    H158469   4.336   1.253  17.330 -0.9662 -3.0992  0.4869
12326TIP3    H258470   4.234   1.259  17.218 -0.4627 -1.0817  0.0861
12327TIP3   OH258471   4.868   1.130  13.432 -0.0586 -0.2660  0.6168
12327TIP3    H158472   4.945   1.122  13.375 -1.0036  1.9986 -1.1004
12327TIP3    H258473   4.898   1.185  13.504 -0.2137  1.2362 -0.4318
12328TIP3   OH258474   4.688   0.629   2.826  0.1649 -0.2312 -0.4718
12328TIP3    H158475   4.781   0.609   2.829  0.1862 -0.1791 -0.8086
12328TIP3    H258476   4.681   0.706   2.771  0.0778  0.6969  0.7879
12329TIP3   OH258477   5.301   0.365  13.845  0.1651 -0.1671  0.4279
12329TIP3    H158478   5.358   0.440  13.861  1.3449 -0.6129 -1.3745
12329TIP3    H258479   5.361   0.291  13.833 -0.8392 -0.8925 -0.3315
12330TIP3   OH258480   3.350   1.664   1.293  0.0652  0.2574 -0.0991
12330TIP3    H158481   3.341   1.672   1.388  1.5105  1.6638 -0.0396
12330TIP3    H258482   3.271   1.706   1.257  0.0163  0.6575  0.4672
12331TIP3   OH258483   6.687   2.606  11.154  0.0001 -0.5369  0.1989
12331TIP3    H158484   6.633   2.639  11.082 -2.7041  0.8291  2.6822
12331TIP3    H258485   6.748   2.677  11.173 -0.2047 -0.3419  0.1314
12332TIP3   OH258486   3.611   0.675   0.474 -0.2785 -0.3394 -0.6038
12332TIP3    H158487   3.585   0.592   0.513  0.3383 -0.5223 -0.5723
12332TIP3    H258488   3.531   0.726   0.470 -0.3001 -0.1859  1.2130
12333TIP3   OH258489   0.037   4.010  13.083 -0.4165  0.3921 -0.5545
12333TIP3    H158490   0.058   4.098  13.111 -0.7028 -0.0119  1.0303
12333TIP3    H258491   0.117   3.977  13.042  1.0805  0.0444  2.3503
12334TIP3   OH258492   2.760   5.090  16.515 -0.0422  0.0906  0.0621
12334TIP3    H158493   2.824   5.161  16.507  1.1643 -1.1036 -1.6304
12334TIP3    H258494   2.803   5.015  16.475 -1.9766 -1.1420  0.1830
12335TIP3   OH258495   5.149   4.741   2.642  0.6270  0.1273  0.1255
12335TIP3    H158496   5.162   4.792   2.722  0.2106  0.9308 -0.3056
12335TIP3    H258497   5.109   4.659   2.672  0.6306  0.3502  0.7545
12336TIP3   OH258498   5.579   1.745   0.985  0.0571 -0.0051  0.5563
12336TIP3    H158499   5.588   1.796   0.904  1.9884 -0.7554  0.2351
12336TIP3    H258500   5.652   1.683   0.982 -1.5758 -2.0950  1.4413
12337TIP3   OH258501   0.320   2.414   3.746  0.3721 -0.1920 -0.2215
12337TIP3    H158502   0.349   2.371   3.665 -0.2048 -1.2447  0.1092
12337TIP3    H258503   0.294   2.342   3.803 -1.5078  0.6309  0.0341
12338TIP3   OH258504   4.183   0.546   0.645 -0.0657 -0.1964  0.1796
12338TIP3    H158505   4.259   0.527   0.700 -0.5294 -2.0499  0.2527
12338TIP3    H258506   4.144   0.461   0.628 -1.4944  0.6070 -0.7982
12339TIP3   OH258507   6.433   1.203   4.814 -0.1328  0.0218 -0.1627
12339TIP3    H158508   6.502   1.178   4.876  0.1651  0.0108 -0.4995
12339TIP3    H258509   6.419   1.125   4.760 -0.5207 -0.0286  0.0039
12340TIP3   OH258510   5.130   0.678  17.266 -0.0462  0.1685  0.3543
12340TIP3    H158511   5.059   0.632  17.220 -0.9753  2.7723 -0.9729
12340TIP3    H258512   5.192   0.700  17.197  0.4884  0.6893  0.9948
12341TIP3   OH258513   3.613   6.051   0.155 -0.2824  0.7114  0.6845
12341TIP3    H158514   3.651   6.096   0.079 -0.5797 -1.0004 -0.5556
12341TIP3    H258515   3.593   6.120   0.217  0.0378  2.1772 -0.7815
12342TIP3   OH258516   5.457   0.754  12.969 -0.3043  0.2557 -0.4327
12342TIP3    H158517   5.419   0.810  12.901 -0.8509  0.5037  0.0677
12342TIP3    H258518   5.540   0.795  12.991 -1.2252  1.5850  0.7790
12343TIP3   OH258519   4.722   3.807   5.439  0.0633  0.0393  0.0839
12343TIP3    H158520   4.757   3.724   5.472 -0.9781 -0.0054  1.1564
12343TIP3    H258521   4.788   3.872   5.462  0.4949 -0.3683  0.0082
12344TIP3   OH258522   0.371   4.288  13.614 -0.2175  0.0374 -0.1563
12344TIP3    H158523   0.279   4.312  13.605  0.4255  2.8908  0.1348
12344TIP3    H258524   0.383   4.270  13.707 -0.4315 -0.2551 -0.1827
12345TIP3   OH258525   1.858   3.480   0.061 -0.3310  0.2891 -0.1932
12345TIP3    H158526   1.950   3.506   0.067 -0.5308  0.7031  1.8141
12345TIP3    H258527   1.858   3.385   0.072 -0.2264  0.4606  1.5647
12346TIP3   OH258528   4.981   6.265   1.665 -0.3535 -0.2115 -0.7944
12346TIP3    H158529   5.063   6.262   1.617  1.4028  2.4863  1.7039
12346TIP3    H258530   4.953   6.356   1.659 -2.2964 -0.7233 -0.1942
12347TIP3   OH258531   2.209   3.246   2.017 -0.8091  0.6154  0.1761
12347TIP3    H158532   2.161   3.325   2.040  1.0381  1.4189  1.5258
12347TIP3    H258533   2.284   3.277   1.966 -1.8454 -0.6390 -2.2710
12348TIP3   OH258534   1.346   0.377  14.597 -0.6156  0.4477  0.0185
12348TIP3    H158535   1.381   0.312  14.537 -2.3234  0.9764 -1.6407
12348TIP3    H258536   1.379   0.350  14.683 -0.8705 -2.3469 -0.6497
12349TIP3   OH258537   0.112   3.842   1.242  0.0176 -0.6779 -0.5310
12349TIP3    H158538   0.164   3.889   1.177 -0.9794  1.5040  0.1423
12349TIP3    H258539   0.026   3.831   1.200 -0.4596  0.2448  0.1569
12350TIP3   OH258540   4.196   3.018   5.603  0.1978 -0.1316  0.0449
12350TIP3    H158541   4.247   2.983   5.529 -0.1017 -0.6705  0.0900
12350TIP3    H258542   4.210   3.113   5.598  2.3644 -0.3462  0.8884
12351TIP3   OH258543   2.426   5.645   3.078  0.3480  0.0082  0.3617
12351TIP3    H158544   2.471   5.666   2.996  1.4760  0.2373  1.0144
12351TIP3    H258545   2.385   5.560   3.062 -0.0696  0.3870 -0.6717
12352TIP3   OH258546   3.825   3.400   2.806 -0.0556 -0.2803 -0.3252
12352TIP3    H158547   3.805   3.351   2.726  1.3475 -0.7871 -0.3820
12352TIP3    H258548   3.870   3.478   2.776 -0.7676  0.2217 -0.1111
12353TIP3   OH258549   6.563   3.814  17.201 -0.4167 -0.1002  0.2161
12353TIP3    H158550   6.483   3.866  17.216  0.4638  2.9809 -3.8431
12353TIP3    H258551   6.542   3.761  17.124  1.3349  0.7544 -0.9161
12354TIP3   OH258552   4.169   4.124   5.213 -0.0460  0.4398  0.2133
12354TIP3    H158553   4.213   4.165   5.288  0.3606  3.3969 -1.4831
12354TIP3    H258554   4.102   4.068   5.252  0.0320  1.9978  2.8184
12355TIP3   OH258555   0.869   4.356  16.133 -0.4289 -0.2912  0.2679
12355TIP3    H158556   0.909   4.390  16.053 -0.7951 -1.6429 -0.5102
12355TIP3    H258557   0.786   4.317  16.105 -0.7531 -0.4519  1.3671
12356TIP3   OH258558   6.605   2.751  14.055  0.0098  0.6504  0.4077
12356TIP3    H158559   6.688   2.705  14.068 -0.9358 -2.2575 -2.6819
12356TIP3    H258560   6.548   2.718  14.124  0.8993  1.5294  1.6134
12357TIP3   OH258561   4.050   4.373  15.612 -0.0128  0.1232  0.3368
12357TIP3    H158562   4.058   4.281  15.586 -2.5015  0.2876 -1.3667
12357TIP3    H258563   4.104   4.420  15.548 -0.5419 -0.0065 -0.2172
12358TIP3   OH258564   1.345   2.852   1.217  0.3931 -0.3935  0.1209
12358TIP3    H158565   1.286   2.845   1.292 -2.5799 -0.8671 -2.0850
12358TIP3    H258566   1.419   2.796   1.240 -0.4716 -0.6379  2.6278
12359TIP3   OH258567   1.046   4.730  14.392  0.1783 -0.2350 -0.1283
12359TIP3    H158568   1.069   4.748  14.484 -0.3423  0.1922 -0.0776
12359TIP3    H258569   1.005   4.811  14.362 -1.3760 -1.0031 -0.1740
12360TIP3   OH258570   3.094   5.799   0.524  0.1861 -0.2380  0.5308
12360TIP3    H158571   3.061   5.821   0.437  0.9725 -1.6604 -0.1650
12360TIP3    H258572   3.184   5.772   0.510  0.7011  0.6376  1.9724
12361TIP3   OH258573   5.292   0.356   0.468 -0.0575  0.4744 -0.2658
12361TIP3    H158574   5.256   0.414   0.535  0.0972  1.2852 -0.8703
12361TIP3    H258575   5.217   0.335   0.412 -0.0877  0.1799 -0.1198
12362TIP3   OH258576   3.792   2.790   1.991 -0.0548  0.8707 -0.5177
12362TIP3    H158577   3.825   2.720   2.047 -1.2285  0.7843  0.1112
12362TIP3    H258578   3.699   2.795   2.013 -0.1876  1.9600 -1.2792
12363TIP3   OH258579   5.332   6.410   2.267  0.0376  0.5670 -0.0059
12363TIP3    H158580   5.291   6.495   2.285 -2.2376 -0.5467  0.5489
12363TIP3    H258581   5.414   6.411   2.316 -1.6584  1.1217  3.0446
12364TIP3   OH258582   0.622   0.211  17.611 -0.0302  0.1415  0.4545
12364TIP3    H158583   0.593   0.295  17.648 -0.2027  0.8804 -1.2865
12364TIP3    H258584   0.557   0.147  17.641 -0.4041  0.7905  1.0539
12365TIP3   OH258585   5.130   4.161   2.691 -0.5423 -0.0921 -0.2773
12365TIP3    H158586   5.063   4.103   2.656  0.2189 -0.8156 -0.5547
12365TIP3    H258587   5.128   4.145   2.786 -0.7274 -0.1292 -0.2862
12366TIP3   OH258588   2.713   4.783   1.977  0.1260  0.6193  0.3896
12366TIP3    H158589   2.739   4.752   2.064  0.0600  1.5368  0.7539
12366TIP3    H258590   2.725   4.708   1.919  0.9753  0.2417  1.0441
12367TIP3   OH258591   6.146   1.510  14.293 -0.0501  0.4977  0.1171
12367TIP3    H158592   6.133   1.543  14.205  0.9604  1.1434  0.2032
12367TIP3    H258593   6.084   1.437  14.300 -1.1366  1.3094 -0.6386
12368TIP3   OH258594   1.268   0.670  16.911 -0.0189 -0.1386 -0.3556
12368TIP3    H158595   1.336   0.737  16.912  0.4534 -0.6117  0.1335
12368TIP3    H258596   1.186   0.719  16.920  0.4301  0.2752  2.3458
12369TIP3   OH258597   2.026   1.404  13.442  0.0586 -0.1526 -0.1677
12369TIP3    H158598   2.039   1.497  13.464 -0.6687  0.1331 -0.8897
12369TIP3    H258599   2.084   1.357  13.501 -0.8232  0.6507  1.3879
12370TIP3   OH258600   2.449   4.642   1.507  0.1209  0.2849 -0.7866
12370TIP3    H158601   2.357   4.668   1.500 -0.4231 -1.7201 -1.7680
12370TIP3    H258602   2.471   4.655   1.599 -1.3831  0.0531 -0.3716
12371TIP3   OH258603   0.503   2.754  10.766 -0.2541  0.0519 -0.4251
12371TIP3    H158604   0.534   2.797  10.686 -0.5706 -0.8633 -1.0590
12371TIP3    H258605   0.449   2.820  10.809  0.8966  0.9771 -0.3323
12372TIP3   OH258606   4.525   2.611   3.786  0.1277  0.5526  0.6998
12372TIP3    H158607   4.547   2.694   3.743 -2.7974  0.0896 -2.0714
12372TIP3    H258608   4.582   2.547   3.743 -0.8897  0.5040 -0.6523
12373TIP3   OH258609   3.286   0.618  12.639  0.0755 -0.3362  0.3796
12373TIP3    H158610   3.240   0.534  12.635 -3.3367  1.4264 -2.2199
12373TIP3    H258611   3.287   0.640  12.732  0.5583 -2.9008  1.0826
12374TIP3   OH258612   6.378   3.569  11.731 -0.3040 -0.1231  0.4218
12374TIP3    H158613   6.409   3.612  11.811  2.7278  0.0180 -0.6789
12374TIP3    H258614   6.428   3.487  11.727  0.4581  0.3871 -1.8152
12375TIP3   OH258615   4.845   3.912   0.354 -0.0289  0.0673 -0.1805
12375TIP3    H158616   4.872   3.934   0.443 -1.0518  0.8088 -0.0285
12375TIP3    H258617   4.811   3.994   0.319  0.5434 -0.1696 -1.3344
12376TIP3   OH258618   2.321   0.036  12.904  0.4857  0.4127 -0.4018
12376TIP3    H158619   2.243  -0.013  12.875  0.2878 -0.4122  1.3857
12376TIP3    H258620   2.394  -0.024  12.887  0.7035  0.9631 -1.5439
12377TIP3   OH258621   1.307   1.808  11.808  0.6047  0.4109  0.4691
12377TIP3    H158622   1.288   1.744  11.877  2.6882  0.9913  1.6972
12377TIP3    H258623   1.369   1.763  11.751  1.3777  0.9955  0.8303
12378TIP3   OH258624   0.391   2.441  15.363  0.2434  0.2930  0.3315
12378TIP3    H158625   0.333   2.384  15.311 -3.4724  2.6378  1.5033
12378TIP3    H258626   0.425   2.385  15.432  1.1405 -1.6611 -1.5765
12379TIP3   OH258627   6.064   0.721  14.163 -0.2794  0.1783 -0.4533
12379TIP3    H158628   5.970   0.704  14.165 -0.7155  2.1526 -1.7341
12379TIP3    H258629   6.099   0.672  14.238 -2.2130 -1.0409 -0.2719
12380TIP3   OH258630   5.422   3.895   2.769  0.5958 -0.7202 -0.1827
12380TIP3    H158631   5.484   3.828   2.796  0.6727 -1.0419 -1.1069
12380TIP3    H258632   5.402   3.873   2.678 -1.4347 -1.0734  0.3001
12381TIP3   OH258633   1.519   3.754   2.680 -0.3304 -0.3118 -0.0520
12381TIP3    H158634   1.569   3.684   2.723 -0.6878 -0.8317 -0.4601
12381TIP3    H258635   1.550   3.835   2.721  2.9475 -0.2830 -2.1672
12382TIP3   OH258636   3.656   0.940  14.474 -0.2889  0.2814  0.6163
12382TIP3    H158637   3.582   0.880  14.461 -0.2091  0.3617 -0.2529
12382TIP3    H258638   3.685   0.961  14.386  2.9246 -2.3942  0.8562
12383TIP3   OH258639   3.258   6.711  11.210  0.5135  0.4265 -0.4739
12383TIP3    H158640   3.314   6.652  11.260 -0.8101 -1.5897 -1.2495
12383TIP3    H258641   3.223   6.771  11.275  1.2649 -0.1330  0.4868
12384TIP3   OH258642   2.171   0.585   3.114 -0.2369 -0.7375 -0.0797
12384TIP3    H158643   2.218   0.610   3.034 -0.3900  0.9037  0.3110
12384TIP3    H258644   2.219   0.509   3.147  1.0385 -0.2224 -0.6835
12385TIP3   OH258645   6.509   2.859  15.998  0.0146 -0.1341 -0.1752
12385TIP3    H158646   6.491   2.853  16.092  0.2343 -1.0376 -0.1830
12385TIP3    H258647   6.580   2.923  15.991  0.6224 -0.7425  0.3647
12386TIP3   OH258648   4.040   2.284  16.927  1.0865  0.0197 -0.0351
12386TIP3    H158649   4.032   2.367  16.880  0.8227 -0.5469 -1.0117
12386TIP3    H258650   3.996   2.300  17.011  2.3140  1.3058  0.4102
12387TIP3   OH258651   0.476   3.963  15.994  0.0113 -0.2416 -0.5290
12387TIP3    H158652   0.386   3.986  15.972 -0.4250  1.0574  2.2144
12387TIP3    H258653   0.471   3.923  16.081  2.0716  0.0876 -0.1917
12388TIP3   OH258654   3.531   1.327   6.634 -0.2316 -0.3590  0.0387
12388TIP3    H158655   3.543   1.419   6.659 -2.1440  0.3447 -1.3349
12388TIP3    H258656   3.606   1.307   6.579 -0.2035  0.6658 -0.3175
12389TIP3   OH258657   5.400   4.718  14.791  0.4563 -0.2864  0.1257
12389TIP3    H158658   5.370   4.806  14.814 -0.4236 -0.7363  0.7242
12389TIP3    H258659   5.348   4.694  14.714  0.1602 -0.5643  0.4058
12390TIP3   OH258660   0.014   5.324  11.293 -0.5488  0.0785 -0.2267
12390TIP3    H158661   0.046   5.408  11.261 -1.8066  0.2872 -1.0131
12390TIP3    H258662   0.009   5.334  11.388  2.2163 -0.1813  0.0214
12391TIP3   OH258663   2.483   5.929  13.764  0.2163  0.5149  0.0415
12391TIP3    H158664   2.434   5.995  13.811 -0.5218  1.6301 -2.1452
12391TIP3    H258665   2.424   5.899  13.695  1.4320 -0.5813 -0.5855
12392TIP3   OH258666   2.940   6.553  15.975 -0.4396 -0.0083 -0.1362
12392TIP3    H158667   3.009   6.552  15.909 -1.9688  0.9050 -1.8458
12392TIP3    H258668   2.975   6.501  16.047  2.4145  1.1845 -0.4960
12393TIP3   OH258669   2.069   3.181  16.071 -0.6596 -0.0449  0.5826
12393TIP3    H158670   2.120   3.244  16.121 -2.4856  0.9133  1.3403
12393TIP3    H258671   2.068   3.102  16.125  0.5696 -0.3310  0.2225
12394TIP3   OH258672   6.222   1.438   5.811 -0.5206 -0.6130 -0.2850
12394TIP3    H158673   6.135   1.439   5.851  0.2731 -0.5338  1.5157
12394TIP3    H258674   6.231   1.350   5.776 -0.8135 -1.0701  0.7462
12395TIP3   OH258675   0.211   5.180   0.792 -0.1181 -0.2104 -0.7778
12395TIP3    H158676   0.268   5.252   0.764 -0.0675  0.2990  0.5669
12395TIP3    H258677   0.271   5.106   0.804  0.2072  0.1767  0.0979
12396TIP3   OH258678   1.318   5.777   3.266 -0.8959 -0.1388 -0.6815
12396TIP3    H158679   1.296   5.868   3.245 -0.5138  0.0961 -0.0987
12396TIP3    H258680   1.375   5.783   3.342 -0.3095 -0.8309 -1.0502
12397TIP3   OH258681   3.063   3.761  15.684 -0.3554 -0.3962  0.0913
12397TIP3    H158682   3.056   3.841  15.736 -0.6643 -0.7836  0.6504
12397TIP3    H258683   3.105   3.698  15.743  0.0507 -0.5982 -0.4054
12398TIP3   OH258684   5.024   6.423  16.333  0.1276 -0.1865 -0.4105
12398TIP3    H158685   5.069   6.429  16.418 -1.1611  0.2234  0.2813
12398TIP3    H258686   4.934   6.452  16.352 -0.2260 -0.2370 -1.8936
12399TIP3   OH258687   3.673   3.619  14.823 -0.0774  0.7170 -0.5881
12399TIP3    H158688   3.676   3.697  14.767  0.6063  1.2077  0.1148
12399TIP3    H258689   3.713   3.647  14.905 -1.8104  0.2404  0.4680
12400TIP3   OH258690   1.024   3.655  14.732 -0.1905 -0.5611 -0.0259
12400TIP3    H158691   1.029   3.742  14.772 -1.4564 -1.1385  1.5058
12400TIP3    H258692   1.115   3.628  14.723  0.2096  0.8024 -0.2625
12401TIP3   OH258693   3.718   3.305   4.204 -0.2256 -0.5511 -0.3429
12401TIP3    H158694   3.684   3.278   4.289 -0.8323 -0.7046 -0.6293
12401TIP3    H258695   3.665   3.255   4.141 -0.4658  0.3226 -0.8381
12402TIP3   OH258696   5.971   1.374  17.479 -0.3429 -0.1765 -0.6489
12402TIP3    H158697   6.000   1.289  17.512  0.8490  0.6568  0.5540
12402TIP3    H258698   5.914   1.408  17.548  0.6303  0.7585 -0.2842
12403TIP3   OH258699   4.424   1.947   2.609 -0.3591 -0.2910 -0.4366
12403TIP3    H158700   4.395   1.960   2.699  0.6078  4.8739 -0.5302
12403TIP3    H258701   4.344   1.955   2.557 -0.4938  0.7532 -0.1125
12404TIP3   OH258702   1.194   5.399  12.270  0.3130 -0.0772  0.1856
12404TIP3    H158703   1.267   5.425  12.214  0.8120 -1.5068  0.1166
12404TIP3    H258704   1.211   5.306  12.288 -1.9164 -0.6767 -0.5190
12405TIP3   OH258705   3.363   5.055   4.518  0.2243 -0.3346  0.3834
12405TIP3    H158706   3.434   5.074   4.456  1.7635  1.9959  2.6494
12405TIP3    H258707   3.407   5.046   4.602 -2.0389 -0.4667  1.6182
12406TIP3   OH258708   6.051   3.335   4.574 -0.4237 -0.3286  0.5873
12406TIP3    H158709   6.123   3.369   4.626  0.7408 -0.7043 -0.7204
12406TIP3    H258710   6.057   3.240   4.584  1.1287 -0.5604 -1.7987
12407TIP3   OH258711   2.799   1.844  13.851 -0.0790  0.4740  0.2843
12407TIP3    H158712   2.794   1.796  13.768  0.5326  0.7363  0.0876
12407TIP3    H258713   2.786   1.778  13.918 -0.0934  0.1756 -0.0102
12408TIP3   OH258714   4.306   3.539   2.551 -0.2938  0.3518  0.1913
12408TIP3    H158715   4.401   3.528   2.555 -0.2504  0.5869 -0.1008
12408TIP3    H258716   4.295   3.632   2.531 -0.5972  0.4613  0.8680
12409TIP3   OH258717   1.689   4.398   6.302 -0.1992 -0.1753 -0.2213
12409TIP3    H158718   1.684   4.334   6.232  0.5389 -0.0533 -0.3938
12409TIP3    H258719   1.708   4.347   6.381  0.2119 -0.1929 -0.3285
12410TIP3   OH258720   6.709   1.427   0.556 -0.0905  0.3364 -0.4098
12410TIP3    H158721   6.723   1.450   0.464  3.0017  2.3541  0.4009
12410TIP3    H258722   6.632   1.478   0.582  0.0417  1.1121 -1.4715
12411TIP3   OH258723   0.566   4.627  14.835  0.2836 -0.1549 -0.4909
12411TIP3    H158724   0.538   4.544  14.797  2.0435 -0.5146 -1.0642
12411TIP3    H258725   0.512   4.637  14.914 -0.4521 -1.4752 -0.8064
12412TIP3   OH258726   0.474   6.069  17.491 -0.2040  0.1286 -0.2894
12412TIP3    H158727   0.386   6.038  17.468  0.2804 -1.6472  0.1528
12412TIP3    H258728   0.532   6.024  17.431  0.5467  0.0122  0.5107
12413TIP3   OH258729   0.505   2.197   2.072  0.2205  0.0317 -0.1963
12413TIP3    H158730   0.524   2.166   2.160  0.9748 -0.2531 -0.4487
12413TIP3    H258731   0.444   2.131   2.037  2.6608 -1.9190 -1.1212
12414TIP3   OH258732   5.397   3.000   2.384  0.4598 -0.4835  0.1277
12414TIP3    H158733   5.391   3.092   2.356 -1.1459 -0.5069  0.3270
12414TIP3    H258734   5.461   3.002   2.455 -1.7658  1.0620  2.2630
12415TIP3   OH258735   4.628   4.789   0.898 -0.0070 -0.5914  0.7248
12415TIP3    H158736   4.722   4.797   0.910  0.3001  0.3575 -1.7429
12415TIP3    H258737   4.613   4.811   0.806 -2.7727  0.4382  1.3023
12416TIP3   OH258738   2.357   4.504  12.453 -0.2331  0.5171 -0.0622
12416TIP3    H158739   2.380   4.564  12.382 -0.7134 -0.3092 -0.9502
12416TIP3    H258740   2.330   4.423  12.408  0.1020 -0.2621  1.0849
12417TIP3   OH258741   0.938   5.740  16.235 -0.0105  0.0747  0.6148
12417TIP3    H158742   0.930   5.705  16.324 -0.7023 -0.2373  0.4357
12417TIP3    H258743   0.909   5.831  16.243 -3.0438 -0.7482  0.1767
12418TIP3   OH258744   1.181   4.012  11.526 -0.2752  0.1447 -0.1382
12418TIP3    H158745   1.197   4.094  11.574 -0.1168  0.3486 -0.5393
12418TIP3    H258746   1.221   4.026  11.441 -0.1411 -0.4023 -0.1652
12419TIP3   OH258747   2.784   1.341   2.639  0.5243 -0.1045 -0.4251
12419TIP3    H158748   2.771   1.303   2.726 -1.0660  0.9450 -0.1682
12419TIP3    H258749   2.878   1.355   2.634  0.6663 -0.2588  1.0993
12420TIP3   OH258750   5.656   3.539   1.567  0.4572 -0.5116  0.3010
12420TIP3    H158751   5.721   3.559   1.634  2.0084 -2.2388 -0.5618
12420TIP3    H258752   5.577   3.516   1.616  0.9915  0.0457  1.4640
12421TIP3   OH258753   4.912   4.640   4.242 -0.3371  0.1035  0.2098
12421TIP3    H158754   4.910   4.636   4.146 -0.0271  0.8429  0.1672
12421TIP3    H258755   4.879   4.555   4.270  1.2546 -0.8037 -0.5581
12422TIP3   OH258756   2.020   3.467   2.646  0.5598 -0.5875 -0.0818
12422TIP3    H158757   2.010   3.393   2.586  0.4060 -1.1415  0.6287
12422TIP3    H258758   2.055   3.537   2.590 -0.3627 -0.8319 -1.0089
12423TIP3   OH258759   0.194   0.368  12.524 -0.3374  0.4550 -0.4601
12423TIP3    H158760   0.139   0.444  12.544  0.6721  1.0535  0.1374
12423TIP3    H258761   0.185   0.311  12.600  3.6017  2.7880  2.0785
12424TIP3   OH258762   3.339   2.589  13.450 -0.6263 -0.4484 -0.1449
12424TIP3    H158763   3.293   2.659  13.404 -0.6889  0.5019  1.2825
12424TIP3    H258764   3.393   2.547  13.383 -0.9797  0.6335 -1.1393
12425TIP3   OH258765   0.009   4.737  16.647  0.2313  0.7919  0.6779
12425TIP3    H158766  -0.058   4.785  16.696  1.3940  1.5286  1.5912
12425TIP3    H258767   0.019   4.654  16.694 -1.9866 -0.5991 -1.0653
12426TIP3   OH258768   4.881   5.990  14.978  0.0773  0.1683 -0.2460
12426TIP3    H158769   4.885   6.029  14.890  2.6144  0.2743 -0.1773
12426TIP3    H258770   4.925   6.054  15.034 -0.2881 -0.5124  0.8414
12427TIP3   OH258771   4.407   2.995  12.382  0.1412 -0.1057 -0.8075
12427TIP3    H158772   4.456   2.975  12.302  0.5068 -0.0121 -0.6075
12427TIP3    H258773   4.398   2.911  12.427  2.3066  0.2391  0.3894
12428TIP3   OH258774   6.677   2.222   1.228  0.6371  0.1615  0.1703
12428TIP3    H158775   6.658   2.306   1.185 -1.7415 -0.2139  0.3368
12428TIP3    H258776   6.667   2.240   1.322 -1.0533 -0.5168  0.1532
12429TIP3   OH258777   4.363   4.563  15.157 -0.1602 -0.4053  0.8302
12429TIP3    H158778   4.268   4.565  15.146 -0.2190 -0.7556  1.2276
12429TIP3    H258779   4.381   4.625  15.228 -0.4533 -2.6111  2.9950
12430TIP3   OH258780   1.539   4.286  13.166 -0.7300  0.0359  0.3981
12430TIP3    H158781   1.625   4.274  13.125 -0.5974 -0.2928  0.7708
12430TIP3    H258782   1.506   4.368  13.129 -0.8127 -0.4775 -0.7271
12431TIP3   OH258783   6.388   1.470  12.129 -0.0510 -0.7029  0.0080
12431TIP3    H158784   6.382   1.562  12.104  0.5582 -0.7628 -0.3926
12431TIP3    H258785   6.372   1.470  12.223  1.1816 -0.0227  0.2407
12432TIP3   OH258786   2.393   3.621   6.075 -0.1139  0.7612 -0.1794
12432TIP3    H158787   2.485   3.596   6.088  0.8778  2.4233 -3.1637
12432TIP3    H258788   2.344   3.542   6.095  1.8894 -0.1003  1.8119
12433TIP3   OH258789   4.380   4.170  14.799 -0.0293  0.5448 -0.3286
12433TIP3    H158790   4.452   4.159  14.861 -0.5763  1.2423  0.4682
12433TIP3    H258791   4.318   4.226  14.845 -0.6618  0.7151 -1.3533
12434TIP3   OH258792   3.966   5.393   1.501 -0.0966  0.8600 -0.1123
12434TIP3    H158793   3.880   5.429   1.524 -0.9007 -0.8357 -0.2868
12434TIP3    H258794   4.018   5.403   1.581 -0.7181  1.1495  0.2638
12435TIP3   OH258795   6.400   3.334   3.100 -0.6516 -0.4412 -0.4783
12435TIP3    H158796   6.410   3.407   3.039 -0.2590 -0.1010 -0.0106
12435TIP3    H258797   6.382   3.375   3.184  2.6551 -0.6899  0.4808
12436TIP3   OH258798   3.618   6.412  13.809  0.6956  0.6005  0.6846
12436TIP3    H158799   3.561   6.336  13.797  0.5589  0.8660 -0.4348
12436TIP3    H258800   3.573   6.464  13.877 -0.0879  0.5061  0.2534
12437TIP3   OH258801   5.067   3.912   6.694  0.4467  0.5960 -0.6253
12437TIP3    H158802   5.081   3.875   6.782  0.6230 -0.5113 -1.0989
12437TIP3    H258803   5.100   4.001   6.701  3.2638 -0.3467 -0.3077
12438TIP3   OH258804   2.298   2.335  16.085  0.1137  0.2333  0.0642
12438TIP3    H158805   2.230   2.391  16.123 -0.7383  0.2818 -1.4525
12438TIP3    H258806   2.335   2.387  16.014  0.6528 -0.3968 -0.1239
12439TIP3   OH258807   1.635   0.099   0.588 -0.3477  0.2857 -0.3252
12439TIP3    H158808   1.613   0.155   0.515 -3.1473  1.0296  0.9579
12439TIP3    H258809   1.675   0.157   0.653 -0.1531  0.1130 -0.2860
12440TIP3   OH258810   5.986   1.832   4.645 -0.2029  0.1943 -0.0164
12440TIP3    H158811   6.021   1.810   4.732  1.2285  0.0321 -0.6022
12440TIP3    H258812   5.903   1.876   4.663  0.3891  0.7749  1.4717
12441TIP3   OH258813   0.028   1.375   2.650  0.1602  0.2878 -0.0563
12441TIP3    H158814   0.080   1.444   2.608  2.3350 -1.5243 -0.5447
12441TIP3    H258815   0.052   1.380   2.742  0.8602 -0.2140 -0.1999
12442TIP3   OH258816   0.903   3.057   0.578 -0.2135 -0.1554  0.1780
12442TIP3    H158817   0.944   3.092   0.499  0.6659  0.7172  0.9861
12442TIP3    H258818   0.937   2.968   0.586 -0.8279 -0.4905 -0.7640
12443TIP3   OH258819   3.544   6.451   1.774  0.1972  0.4629  0.2677
12443TIP3    H158820   3.508   6.464   1.862  0.8236 -2.3247  1.0368
12443TIP3    H258821   3.526   6.359   1.755 -0.9601  1.2484 -3.0656
12444TIP3   OH258822   4.084   6.199  13.312  0.1942  0.5005 -0.3286
12444TIP3    H158823   4.139   6.121  13.324 -0.5584  0.0586  0.3458
12444TIP3    H258824   4.050   6.191  13.222 -0.1987 -0.1697 -0.1277
12445TIP3   OH258825   1.787   1.087   2.840  0.2267  0.2398  0.5424
12445TIP3    H158826   1.719   1.140   2.799  0.5619  0.5890  0.4375
12445TIP3    H258827   1.774   0.999   2.804 -0.5875  0.1488  1.0255
12446TIP3   OH258828   0.112   6.233  17.144 -0.4742 -0.1510  0.4298
12446TIP3    H158829   0.142   6.281  17.220  1.2413 -0.8674  0.2618
12446TIP3    H258830   0.189   6.184  17.114 -1.7498 -1.8777 -0.2418
12447TIP3   OH258831   2.368   6.545   0.394 -0.5532 -0.0501  0.1026
12447TIP3    H158832   2.341   6.637   0.395 -0.7084 -0.0941 -0.0638
12447TIP3    H258833   2.300   6.500   0.345 -0.5139 -0.2677  0.2459
12448TIP3   OH258834   3.605   1.418   0.500 -0.0949 -0.4004 -0.1133
12448TIP3    H158835   3.571   1.395   0.414 -2.4399 -0.1661  0.6910
12448TIP3    H258836   3.630   1.510   0.492  0.5578 -0.6236 -0.7666
12449TIP3   OH258837   3.738   6.263  10.506 -0.3724 -0.2622 -0.2386
12449TIP3    H158838   3.814   6.294  10.555  2.1714  0.2826 -4.1665
12449TIP3    H258839   3.704   6.341  10.462 -0.8280 -1.1371 -1.4938
12450TIP3   OH258840   0.549   2.046  17.050  0.1567  0.3207 -0.1580
12450TIP3    H158841   0.585   2.135  17.060  1.0120 -0.0647  0.2948
12450TIP3    H258842   0.620   1.988  17.079 -0.6292 -0.4847  0.1928
12451TIP3   OH258843   0.736   5.897   5.163  0.1238  0.2777  0.7131
12451TIP3    H158844   0.673   5.837   5.123  0.0840  0.1587  0.9503
12451TIP3    H258845   0.818   5.882   5.115  0.2117 -0.2349  1.0126
12452TIP3   OH258846   0.625   0.995   4.378  0.3162  0.6866 -0.0322
12452TIP3    H158847   0.603   0.976   4.287  1.9118  0.6986 -0.4337
12452TIP3    H258848   0.720   1.000   4.380  0.5250 -1.7980  2.1175
12453TIP3   OH258849   3.202   1.615   2.853  0.0883 -0.0527  0.2537
12453TIP3    H158850   3.181   1.685   2.914 -1.0049 -3.3037  4.0027
12453TIP3    H258851   3.297   1.607   2.856  0.4895  2.4538 -1.9372
12454TIP3   OH258852   0.667   0.728  16.832 -0.4260 -0.7476 -0.2431
12454TIP3    H158853   0.640   0.638  16.850 -0.8445 -0.6322 -0.2859
12454TIP3    H258854   0.763   0.724  16.829 -0.4497 -1.2362 -0.4705
12455TIP3   OH258855   4.409   1.003   2.229 -0.2595  0.1012 -0.3703
12455TIP3    H158856   4.390   1.069   2.296  0.2479  1.8300 -1.8468
12455TIP3    H258857   4.378   0.921   2.267  1.5937  0.6583  2.7227
12456TIP3   OH258858   3.178   2.132   4.636 -0.0813 -0.0039 -0.2190
12456TIP3    H158859   3.172   2.086   4.719 -0.8455 -0.3402 -0.4401
12456TIP3    H258860   3.251   2.091   4.590  1.7842  1.6417  1.1219
12457TIP3   OH258861   4.007   6.723  15.182  0.2087  0.0816 -0.4195
12457TIP3    H158862   3.972   6.687  15.263 -1.4837  0.4401 -0.9452
12457TIP3    H258863   3.995   6.818  15.190  0.0106  0.1214 -1.0860
12458TIP3   OH258864   2.090   0.613   3.911 -0.6655 -0.3324 -0.5941
12458TIP3    H158865   2.009   0.561   3.911 -0.0930 -1.2621  0.5856
12458TIP3    H258866   2.066   0.694   3.866 -2.8376  0.2847  1.4543
12459TIP3   OH258867   4.571   3.130  17.374 -0.2220  0.5157  0.5502
12459TIP3    H158868   4.571   3.157  17.466 -0.6565 -1.1350  1.0584
12459TIP3    H258869   4.643   3.067  17.367 -1.3819 -0.8168  0.2344
12460TIP3   OH258870   2.531   2.336  15.610 -0.0056 -0.4219  0.0108
12460TIP3    H158871   2.559   2.427  15.598 -0.9143 -0.3520 -2.0270
12460TIP3    H258872   2.608   2.284  15.590  0.3531 -0.1040  0.5697
12461TIP3   OH258873   0.055   0.318  15.315  0.3221  0.2466  0.1586
12461TIP3    H158874   0.109   0.274  15.249 -0.3600  1.9919 -1.6790
12461TIP3    H258875  -0.032   0.320  15.277  0.0737  2.0251  0.7392
12462TIP3   OH258876   4.766   1.776  11.972  0.0845 -0.1097 -0.7286
12462TIP3    H158877   4.834   1.737  12.027 -1.7122 -1.8453  0.4054
12462TIP3    H258878   4.783   1.742  11.885  0.3934 -0.9726 -0.3468
12463TIP3   OH258879   5.575   6.263   0.148  0.4911 -0.0922 -0.3835
12463TIP3    H158880   5.596   6.217   0.067  1.1177  0.6796 -0.6783
12463TIP3    H258881   5.479   6.264   0.151  0.4505  0.2344 -1.3408
12464TIP3   OH258882   1.624   2.903   1.773 -0.2544  0.2998  0.1495
12464TIP3    H158883   1.627   2.973   1.837  1.1399  0.7255 -0.3426
12464TIP3    H258884   1.703   2.852   1.789  0.4864  0.8068 -1.6147
12465TIP3   OH258885   4.889   5.426   2.101 -0.2913 -0.3006  0.6490
12465TIP3    H158886   4.846   5.365   2.161 -0.6726  0.2015  0.8970
12465TIP3    H258887   4.824   5.440   2.032 -0.0018 -0.5781  0.3158
12466TIP3   OH258888   3.303   5.294  14.259 -0.2240 -0.1412 -0.1921
12466TIP3    H158889   3.243   5.321  14.328  0.6201  0.2948  0.3911
12466TIP3    H258890   3.387   5.284  14.304 -0.1122 -2.0347 -0.7124
12467TIP3   OH258891   4.011   0.175  17.073 -0.3331  0.2227  0.0381
12467TIP3    H158892   3.991   0.124  17.152 -0.0567  0.4954  0.2884
12467TIP3    H258893   3.932   0.227  17.058  0.1130  1.2201  0.9633
12468TIP3   OH258894   6.484   3.119  15.434 -0.5720 -0.6585 -0.9254
12468TIP3    H158895   6.437   3.037  15.448  0.9014 -1.4868 -0.6979
12468TIP3    H258896   6.574   3.093  15.416  0.3195  0.9758  0.8235
12469TIP3   OH258897   2.147   5.596  13.829  0.1204  0.9892  0.0616
12469TIP3    H158898   2.067   5.594  13.777  0.1010  0.0324  0.1219
12469TIP3    H258899   2.131   5.534  13.900  1.9962 -1.4545 -1.5296
12470TIP3   OH258900   6.334   4.410   5.381  0.0120  0.2199  0.3833
12470TIP3    H158901   6.319   4.493   5.426  1.0303 -0.8271  2.8036
12470TIP3    H258902   6.258   4.357   5.403 -0.4808  0.3468 -0.8982
12471TIP3   OH258903   4.212   5.609   0.957 -0.4498  0.1813 -0.2838
12471TIP3    H158904   4.297   5.593   0.916 -1.1166 -0.4205 -1.4929
12471TIP3    H258905   4.233   5.628   1.049  0.9222 -0.8044 -0.3552
12472TIP3   OH258906   5.070   0.035   5.068  0.1451 -0.3216  0.2909
12472TIP3    H158907   4.988   0.000   5.031  0.8999  0.2149 -2.0554
12472TIP3    H258908   5.053   0.129   5.077  0.2113 -0.3438  0.6315
12473TIP3   OH258909   5.398   4.494   3.961  0.0481 -0.1283 -0.0297
12473TIP3    H158910   5.391   4.469   3.869  0.2190 -2.4485  0.5177
12473TIP3    H258911   5.488   4.473   3.985 -0.0361  0.3149  0.7109
12474TIP3   OH258912   6.002   0.894  13.368 -0.7712  0.0152 -0.0219
12474TIP3    H158913   6.083   0.848  13.343 -0.4724 -0.4804  1.6829
12474TIP3    H258914   5.964   0.838  13.436 -0.3405  2.2889  2.2409
12475TIP3   OH258915   5.141   4.922   4.751  0.0098  0.4392 -0.1935
12475TIP3    H158916   5.144   5.016   4.766 -0.3214  0.3821  0.2686
12475TIP3    H258917   5.119   4.885   4.837  0.4892 -0.0837 -0.2849
12476TIP3   OH258918   3.258   1.500   5.771  0.2045  0.0475 -0.4975
12476TIP3    H158919   3.347   1.531   5.754  0.3409 -0.3424 -0.4837
12476TIP3    H258920   3.266   1.444   5.847  0.1093 -0.8131 -1.1125
12477TIP3   OH258921   2.859   2.075  14.634 -0.4770 -0.3626 -0.0463
12477TIP3    H158922   2.822   2.136  14.571  2.0164  0.9619 -0.3631
12477TIP3    H258923   2.888   2.001  14.582 -1.7252 -0.9578  0.0768
12478TIP3   OH258924   4.505   0.849   1.168 -0.3465  0.5038  0.4628
12478TIP3    H158925   4.545   0.927   1.209 -0.6658 -0.1568  2.1054
12478TIP3    H258926   4.541   0.848   1.079 -0.2309  2.4498  0.4327
12479TIP3   OH258927   0.174   1.084   1.573 -0.1797  0.0452  0.5207
12479TIP3    H158928   0.220   1.017   1.522  0.7597  1.6229 -0.8118
12479TIP3    H258929   0.211   1.076   1.661  0.7288 -0.4710  0.1061
12480TIP3   OH258930   6.463   1.683   0.138 -0.1490  0.1358  0.3523
12480TIP3    H158931   6.479   1.680   0.043 -0.6656 -0.5497  0.2812
12480TIP3    H258932   6.533   1.739   0.172  2.0631 -2.1745 -0.0298
12481TIP3   OH258933   0.332   3.731   6.039 -0.5136  0.3832 -0.5984
12481TIP3    H158934   0.238   3.715   6.032 -0.3355 -0.4166 -1.2919
12481TIP3    H258935   0.365   3.721   5.950  0.4019 -0.4728 -0.1807
12482TIP3   OH258936   2.977   5.998  11.279  0.3331 -0.2986  0.2343
12482TIP3    H158937   3.049   6.026  11.222 -0.0229  0.8066  0.3094
12482TIP3    H258938   2.900   6.043  11.244  0.3581  1.6852  2.4915
12483TIP3   OH258939   3.410   1.973  16.924  0.1625 -0.2185  0.4852
12483TIP3    H158940   3.362   2.043  16.881  0.2324 -0.2705  0.3187
12483TIP3    H258941   3.378   1.893  16.883  0.4624 -0.2470  0.2979
12484TIP3   OH258942   2.310   1.800  15.822  0.5184 -0.4865  0.2576
12484TIP3    H158943   2.225   1.810  15.777  1.0547 -1.4403 -1.0370
12484TIP3    H258944   2.292   1.738  15.892  0.3537 -1.5033 -0.6604
12485TIP3   OH258945   4.306   1.691  16.576  0.0640 -0.1888  0.0807
12485TIP3    H158946   4.401   1.705  16.575  0.3040 -1.6736  0.1758
12485TIP3    H258947   4.280   1.700  16.484  0.0856  1.3565  0.1911
12486TIP3   OH258948   6.197   2.608   2.819  0.1710 -0.2207  0.2092
12486TIP3    H158949   6.200   2.685   2.763 -3.3587 -0.2316 -0.2551
12486TIP3    H258950   6.248   2.632   2.896  1.5363  1.4321 -1.1268
12487TIP3   OH258951   1.424   0.279   2.886 -0.6303 -0.5261 -0.3721
12487TIP3    H158952   1.450   0.329   2.808 -3.5554  0.4507 -0.8369
12487TIP3    H258953   1.407   0.346   2.952  0.2656 -1.2587  0.6230
12488TIP3   OH258954   3.572   3.790   4.156  0.4555  0.3393  0.3374
12488TIP3    H158955   3.535   3.870   4.194 -0.2502 -0.0636  0.5110
12488TIP3    H258956   3.640   3.764   4.218 -1.4241 -0.9357  2.0116
12489TIP3   OH258957   1.425   4.629   5.545  0.3662  0.5008 -0.7514
12489TIP3    H158958   1.444   4.687   5.619 -1.1839 -0.2201  0.2605
12489TIP3    H258959   1.511   4.602   5.513  1.0910  0.4708  1.0851
12490TIP3   OH258960   3.338   6.211  15.963 -0.6538  0.3743 -0.3457
12490TIP3    H158961   3.261   6.267  15.959  0.0804  1.3894 -0.6432
12490TIP3    H258962   3.412   6.271  15.954  0.1488 -0.6804 -1.1131
12491TIP3   OH258963   4.567   5.910  14.905  0.0747  0.5014  0.4602
12491TIP3    H158964   4.644   5.919  14.962 -0.7208 -1.9457  2.0954
12491TIP3    H258965   4.493   5.919  14.965 -0.9435  2.1154 -0.9732
12492TIP3   OH258966   5.483   5.124  13.024 -0.5311  0.5413 -0.3409
12492TIP3    H158967   5.536   5.135  13.102 -0.7435 -0.4469 -0.0498
12492TIP3    H258968   5.407   5.074  13.053 -0.4743 -0.0917 -1.2336
12493TIP3   OH258969   5.962   0.132  15.946  0.2427 -0.3577  0.0876
12493TIP3    H158970   5.902   0.164  15.878  1.0373 -0.0707 -0.4953
12493TIP3    H258971   5.980   0.208  16.000  1.0466 -0.1340 -0.4789
12494TIP3   OH258972   0.223   1.825   1.370 -0.0933  0.0225 -0.0058
12494TIP3    H158973   0.186   1.874   1.297  0.1452  1.3752  0.7591
12494TIP3    H258974   0.294   1.880   1.403  0.9271 -1.3550  0.1730
12495TIP3   OH258975   5.492   5.396  17.156 -0.2743  0.0849 -0.0394
12495TIP3    H158976   5.412   5.347  17.137  0.0980 -0.4288 -0.3176
12495TIP3    H258977   5.483   5.477  17.106 -0.1506 -0.4355 -0.9328
12496TIP3   OH258978   4.111   1.581   3.960  0.3090 -0.9374  0.0371
12496TIP3    H158979   4.118   1.541   3.874 -0.6146 -0.2591 -0.3766
12496TIP3    H258980   4.023   1.559   3.990 -0.9934  2.2232 -1.0180
12497TIP3   OH258981   1.557   5.204  10.888  0.3646  0.2135 -0.8127
12497TIP3    H158982   1.629   5.266  10.880 -0.3225  1.1663  0.2070
12497TIP3    H258983   1.479   5.253  10.862 -0.0321 -0.5880 -1.1889
12498TIP3   OH258984   2.231   0.730  14.677 -0.3095 -0.0713  0.2120
12498TIP3    H158985   2.283   0.810  14.671 -1.9166  0.9508 -1.2712
12498TIP3    H258986   2.143   0.757  14.648 -1.5319 -1.8307  2.0138
12499TIP3   OH258987   0.801   6.444   0.197  0.0914  0.4765 -0.1899
12499TIP3    H158988   0.782   6.534   0.172  2.6280  1.2364  0.2997
12499TIP3    H258989   0.874   6.418   0.141 -0.4130 -1.2058 -0.1365
12500TIP3   OH258990   0.121   2.817   3.454  0.5544  0.3875 -0.0005
12500TIP3    H158991   0.106   2.868   3.375 -0.8921  0.4813  0.2953
12500TIP3    H258992   0.073   2.864   3.522  0.9020 -0.2585  0.7103
12501TIP3   OH258993   6.686   5.117  14.890  0.9170 -0.3459 -0.3203
12501TIP3    H158994   6.623   5.087  14.956 -3.1608 -2.0096 -4.4062
12501TIP3    H258995   6.770   5.081  14.918 -0.8724 -2.4468  2.9670
12502TIP3   OH258996   6.420   4.938   1.631 -0.1785  0.0769 -0.1915
12502TIP3    H158997   6.395   4.865   1.688  1.2205  0.4483  0.9255
12502TIP3    H258998   6.513   4.950   1.646  0.2890  0.1039 -2.6796
12503TIP3   OH258999   0.156   2.253  15.524  0.4968  0.1332  0.3771
12503TIP3    H159000   0.073   2.300  15.526  0.9875  1.0104  0.7866
12503TIP3    H259001   0.185   2.251  15.615  1.3379  0.6015  0.1304
12504TIP3   OH259002   0.885   3.937   4.979  0.1528  0.4141  0.0500
12504TIP3    H159003   0.905   4.015   4.926 -0.8732  0.6405 -0.0265
12504TIP3    H259004   0.946   3.943   5.053  1.2350  0.3857 -0.7999
12505TIP3   OH259005   0.460   3.861   1.851 -0.2491  0.2041  0.0770
12505TIP3    H159006   0.506   3.941   1.827  0.8470 -0.9164 -1.7324
12505TIP3    H259007   0.399   3.845   1.780  0.3404 -1.1454 -0.1718
12506TIP3   OH259008   2.815   6.684  17.565 -0.3788  0.0774 -0.7945
12506TIP3    H159009   2.904   6.668  17.597 -0.3586  0.3903 -0.6906
12506TIP3    H259010   2.814   6.778  17.543 -0.8692  0.2174 -0.2143
12507TIP3   OH259011   6.272   3.279   5.087 -0.2918 -0.2912  0.1709
12507TIP3    H159012   6.326   3.276   5.167  1.3281  0.8658 -0.8057
12507TIP3    H259013   6.207   3.347   5.105  0.6952  0.6839  0.1752
12508TIP3   OH259014   4.113   3.195  15.852  0.1428 -0.0767  0.2982
12508TIP3    H159015   4.134   3.283  15.883 -0.9961  1.0533 -1.9098
12508TIP3    H259016   4.114   3.141  15.931 -0.0769  2.0843  1.8680
12509TIP3   OH259017   0.876   0.894   0.096  0.6497  0.7198 -0.3058
12509TIP3    H159018   0.853   0.802   0.110 -0.1022  1.2398  2.5158
12509TIP3    H259019   0.830   0.919   0.015  0.1733 -1.1369 -0.6484
12510TIP3   OH259020   3.026   6.628  14.750  0.1356 -0.0722 -0.2287
12510TIP3    H159021   3.026   6.629  14.846  0.1875 -0.5106 -0.2225
12510TIP3    H259022   2.952   6.572  14.727 -1.4840  2.0762 -0.4839
12511TIP3   OH259023   4.228   5.693  12.783 -0.6222  0.0774  0.3950
12511TIP3    H159024   4.270   5.734  12.708 -0.2987  1.2534  1.1778
12511TIP3    H259025   4.298   5.645  12.828 -0.7307 -0.3026  0.1581
12512TIP3   OH259026   0.104   1.110  15.493 -0.0373 -0.3184  0.3728
12512TIP3    H159027   0.079   1.068  15.576  0.5523 -1.2809  0.0729
12512TIP3    H259028   0.158   1.185  15.520 -0.7172 -0.0064  0.8951
12513TIP3   OH259029   3.542   4.893   0.381 -0.6532 -0.0812  0.8405
12513TIP3    H159030   3.582   4.914   0.297  0.0345  0.4692  1.2937
12513TIP3    H259031   3.527   4.978   0.422 -0.2148 -0.3696  1.6191
12514TIP3   OH259032   3.880   0.070   2.278 -0.2488 -0.5343 -0.0223
12514TIP3    H159033   3.956   0.125   2.299 -0.5530  1.3402 -3.1177
12514TIP3    H259034   3.807   0.113   2.321 -0.1073 -0.0082 -0.3004
12515TIP3   OH259035   0.231   1.437  13.602 -0.2661  0.0106  0.2215
12515TIP3    H159036   0.308   1.394  13.638 -0.4108 -1.1101 -0.7632
12515TIP3    H259037   0.201   1.494  13.673  1.4238  0.4462  0.6380
12516TIP3   OH259038   3.556   0.811   4.852  0.2391  0.2153 -0.0715
12516TIP3    H159039   3.464   0.831   4.871  0.5297  2.6380 -0.8241
12516TIP3    H259040   3.552   0.755   4.774 -0.6139  1.1743 -0.7503
12517TIP3   OH259041   6.660   5.509   4.203 -0.0394 -0.5068 -0.0993
12517TIP3    H159042   6.616   5.467   4.130  0.0591 -1.4736  0.3709
12517TIP3    H259043   6.603   5.582   4.227  0.2656  0.2352 -1.5496
12518TIP3   OH259044   3.851   0.805  14.067 -0.2676 -0.0988 -0.1602
12518TIP3    H159045   3.757   0.788  14.075 -0.5914  1.8099  0.4350
12518TIP3    H259046   3.860   0.858  13.988  0.1873  0.4738  0.2618
12519TIP3   OH259047   3.751   2.485   0.670 -0.3375 -0.0482 -0.9446
12519TIP3    H159048   3.833   2.489   0.621 -1.0176  0.2556 -2.0865
12519TIP3    H259049   3.706   2.567   0.648 -0.9871 -0.2399 -0.3770
12520TIP3   OH259050   0.332   0.090   0.792 -0.3154 -0.0526  0.2533
12520TIP3    H159051   0.311   0.020   0.730 -1.1717  0.8320 -0.4873
12520TIP3    H259052   0.369   0.045   0.868 -0.4083 -1.2623 -0.4001
12521TIP3   OH259053   4.212   2.895  11.492  0.1667  0.0982 -0.3475
12521TIP3    H159054   4.123   2.905  11.457 -0.3995  0.7595  1.2022
12521TIP3    H259055   4.245   2.985  11.499  0.0590  0.0411  1.2411
12522TIP3   OH259056   4.799   4.780  14.274  0.2722  0.6590  0.1118
12522TIP3    H159057   4.734   4.714  14.250  1.2934 -1.1364  1.9843
12522TIP3    H259058   4.762   4.824  14.351 -0.3902  2.3520 -1.1048
12523TIP3   OH259059   1.431   5.477   1.463 -0.0781  0.2219 -0.2193
12523TIP3    H159060   1.394   5.415   1.400 -1.4984  2.1263 -1.3991
12523TIP3    H259061   1.507   5.515   1.419  0.3004 -0.0840  0.1629
12524TIP3   OH259062   5.035   6.297  16.881  0.3644 -0.0158 -0.1764
12524TIP3    H159063   4.944   6.279  16.901  0.6793  0.0878  1.4882
12524TIP3    H259064   5.076   6.311  16.966  2.0618 -0.6528 -0.8499
12525TIP3   OH259065   5.300   5.736   1.801 -0.6002  0.5067  0.0469
12525TIP3    H159066   5.322   5.829   1.796  1.5462  0.0005 -0.8096
12525TIP3    H259067   5.279   5.711   1.711 -2.3388  0.3708  0.4461
12526TIP3   OH259068   2.391   3.820   3.820  0.4156  0.1690  0.4037
12526TIP3    H159069   2.440   3.848   3.742 -0.1831  0.0807 -0.0090
12526TIP3    H259070   2.366   3.901   3.864  0.2199  0.2376  0.1682
12527TIP3   OH259071   0.808   2.424  17.629  0.4467  0.2569  0.3377
12527TIP3    H159072   0.789   2.359  17.561 -0.1512 -1.7993  2.3292
12527TIP3    H259073   0.762   2.503  17.601 -0.2500 -0.7017 -1.3513
12528TIP3   OH259074   0.938   0.951   0.952  0.1621  0.2547 -0.4284
12528TIP3    H159075   0.864   0.925   1.007  1.2641 -1.2383  0.4511
12528TIP3    H259076   0.987   1.012   1.007 -0.2610  1.0482 -0.9144
12529TIP3   OH259077   1.061   0.336  16.556 -0.2674  0.0252  0.4302
12529TIP3    H159078   1.001   0.290  16.615  0.4968  2.8585  3.7763
12529TIP3    H259079   1.005   0.375  16.489 -1.6113 -0.6859  1.1030
12530TIP3   OH259080   5.207   6.072   3.705 -0.4358 -0.5399 -0.3289
12530TIP3    H159081   5.276   6.032   3.652  0.2773  0.8465 -0.4976
12530TIP3    H259082   5.253   6.135   3.761 -1.3023 -1.2092  1.2069
12531TIP3   OH259083   2.680   0.100   5.335 -0.0906 -0.3493  0.0129
12531TIP3    H159084   2.586   0.088   5.328 -0.1547 -0.1691  0.4939
12531TIP3    H259085   2.694   0.193   5.317  0.0332 -0.4519 -0.4139
12532TIP3   OH259086   2.757   6.524   4.792 -0.1980  0.0047 -0.3892
12532TIP3    H159087   2.753   6.555   4.702  2.5767  0.8686 -0.3155
12532TIP3    H259088   2.754   6.428   4.784  0.1048  0.0680 -1.4350
12533TIP3   OH259089   2.077   3.046   1.896  0.6506  0.0106 -0.0968
12533TIP3    H159090   2.038   3.084   1.817 -0.3499  0.4451  0.5811
12533TIP3    H259091   2.134   3.115   1.930  2.8245 -0.9568 -1.5952
12534TIP3   OH259092   5.374   1.912  11.389 -0.4092 -0.5533 -0.7062
12534TIP3    H159093   5.419   1.948  11.465  2.4481 -0.8828 -2.0817
12534TIP3    H259094   5.387   1.817  11.395 -1.8208 -0.7731 -0.6779
12535TIP3   OH259095   0.092   3.214  13.662  0.0323  0.4123  0.1710
12535TIP3    H159096   0.039   3.136  13.679  0.5260 -0.3525 -1.4969
12535TIP3    H259097   0.033   3.287  13.676 -0.5775 -0.2683  1.3241
12536TIP3   OH259098   1.044   6.476  13.978 -0.3200  0.2392  0.0466
12536TIP3    H159099   0.995   6.556  13.965 -0.8678 -0.1422 -0.2677
12536TIP3    H259100   1.001   6.411  13.922  1.2561  0.1748 -1.1733
12537TIP3   OH259101   3.204   1.897  16.304  0.2530 -0.0260 -0.0940
12537TIP3    H159102   3.184   1.987  16.330 -0.3492  0.0315 -0.7206
12537TIP3    H259103   3.215   1.850  16.386  1.8375  0.8771  0.2615
12538TIP3   OH259104   0.262   0.149   0.434  0.7242  0.2048 -0.2330
12538TIP3    H159105   0.201   0.189   0.495  0.0494 -0.9010 -0.1618
12538TIP3    H259106   0.302   0.078   0.484  0.3644 -0.5353 -0.9861
12539TIP3   OH259107   4.192   3.559   4.669  0.2870 -0.0859 -0.6319
12539TIP3    H159108   4.273   3.587   4.625  0.0096  1.0901 -0.4131
12539TIP3    H259109   4.222   3.517   4.749  0.6688  1.2061 -0.0758
12540TIP3   OH259110   6.162   3.751  17.138 -0.0690 -0.3389 -0.0027
12540TIP3    H159111   6.096   3.799  17.188 -0.0037  1.9214 -1.9038
12540TIP3    H259112   6.212   3.703  17.204 -2.8944 -1.3107  1.6073
12541TIP3   OH259113   0.013   3.685   2.930 -0.2176  0.6514  0.4374
12541TIP3    H159114  -0.027   3.674   2.844  1.1460  0.1318 -0.1508
12541TIP3    H259115  -0.046   3.746   2.976 -1.1233  0.6974 -0.7400
12542TIP3   OH259116   3.141   5.773   3.186 -0.0807 -0.5040 -0.3634
12542TIP3    H159117   3.093   5.755   3.267 -0.0972 -0.1218 -0.2847
12542TIP3    H259118   3.172   5.863   3.197  0.8992 -0.8371 -0.2883
12543TIP3   OH259119   1.047   5.060   4.983  0.4308  0.3221 -0.3160
12543TIP3    H159120   1.103   4.997   4.938  0.4425  1.4675 -2.0051
12543TIP3    H259121   1.105   5.134   5.004 -0.3384  1.4096 -1.8570
12544TIP3   OH259122   4.735   2.587  15.479  0.4055  0.0388 -0.6690
12544TIP3    H159123   4.690   2.548  15.405 -1.9046 -0.9724  1.1217
12544TIP3    H259124   4.697   2.675  15.486 -0.1656 -0.2400 -0.1154
12545TIP3   OH259125   3.928   4.240  12.631  0.0542 -0.4538  0.1005
12545TIP3    H159126   3.860   4.210  12.691 -1.1205  0.3500 -0.7765
12545TIP3    H259127   3.984   4.297  12.684  0.1633 -1.2545  0.8704
12546TIP3   OH259128   5.370   2.897   1.425 -0.5332 -0.2812  0.0820
12546TIP3    H159129   5.383   2.859   1.338 -0.1526 -0.3410  0.1627
12546TIP3    H259130   5.396   2.989   1.415 -2.1026  0.1430 -0.2825
12547TIP3   OH259131   6.453   1.160   1.238 -0.2201  0.0715  0.5944
12547TIP3    H159132   6.547   1.145   1.244 -0.5721 -2.5545  0.8845
12547TIP3    H259133   6.439   1.187   1.147  0.8372  0.7358  0.6164
12548TIP3   OH259134   3.896   1.011   4.503  0.4364 -0.2556 -0.4445
12548TIP3    H159135   3.915   1.067   4.427  3.2532  1.0206  1.0309
12548TIP3    H259136   3.809   1.038   4.531  1.2821  2.8472 -0.3865
12549TIP3   OH259137   4.329   6.305  13.003  0.4015 -0.4214 -0.1681
12549TIP3    H159138   4.260   6.248  12.969  0.0221 -0.7913  1.1950
12549TIP3    H259139   4.334   6.285  13.096  0.3156  1.7196  0.3498
12550TIP3   OH259140   4.155   5.487  16.148  0.6394 -0.6903  0.3591
12550TIP3    H159141   4.083   5.444  16.193  0.3338  0.2952  0.8486
12550TIP3    H259142   4.209   5.525  16.218  1.5329 -1.2328 -0.0082
12551TIP3   OH259143   0.975   2.766  16.733 -0.3003  0.3365 -0.1528
12551TIP3    H159144   0.954   2.797  16.821 -1.7999  0.7340 -0.6302
12551TIP3    H259145   0.924   2.822  16.675 -1.3567 -1.5704 -1.1421
12552TIP3   OH259146   2.863   5.027   5.293 -0.0453  0.3947  0.1636
12552TIP3    H159147   2.784   5.080   5.284 -1.3440 -1.6884 -1.7921
12552TIP3    H259148   2.884   5.030   5.386 -2.2364  1.2716  0.6917
12553TIP3   OH259149   6.547   1.683   5.074 -0.2077  0.0997 -0.4356
12553TIP3    H159150   6.518   1.593   5.057 -0.5696  0.3906 -1.3935
12553TIP3    H259151   6.583   1.713   4.990  0.1136  0.7798 -0.0610
12554TIP3   OH259152   0.666   4.750  12.869 -0.5826 -0.0041 -0.3959
12554TIP3    H159153   0.580   4.710  12.854 -1.1304  1.6074 -1.7618
12554TIP3    H259154   0.715   4.734  12.789  0.0728 -0.0885  0.0137
12555TIP3   OH259155   0.854   1.119   0.297  0.1034 -0.0118  0.0933
12555TIP3    H159156   0.758   1.120   0.298  0.0668 -1.0728 -0.5298
12555TIP3    H259157   0.876   1.072   0.217  1.1505  0.2362  0.2269
12556TIP3   OH259158   0.994   1.742   0.585 -0.4879 -1.0323  0.3506
12556TIP3    H159159   1.036   1.747   0.671  1.4171 -0.5905 -0.5450
12556TIP3    H259160   0.984   1.648   0.569 -2.1970 -1.1066  1.6235
12557TIP3   OH259161   3.045   1.158   4.104 -0.2418  0.1319 -0.4360
12557TIP3    H159162   2.980   1.218   4.070  1.0362  1.1876 -1.1160
12557TIP3    H259163   3.109   1.148   4.033  0.5784 -0.5082  0.3561
12558TIP3   OH259164   4.299   5.553   5.483  0.0846 -0.1016  0.4536
12558TIP3    H159165   4.332   5.501   5.557 -0.3853 -0.5139  0.3785
12558TIP3    H259166   4.361   5.625   5.476  0.6565 -0.5585  0.6737
12559TIP3   OH259167   2.866   4.363   6.516 -0.0486  0.2882  0.0438
12559TIP3    H159168   2.857   4.373   6.611  0.0818  0.6630  0.0182
12559TIP3    H259169   2.852   4.450   6.481  1.9516  0.6049 -0.1153
12560TIP3   OH259170   3.004   3.686  12.897  0.3615 -0.6051  0.0180
12560TIP3    H159171   3.085   3.682  12.948  0.0654  0.9557  0.6539
12560TIP3    H259172   2.944   3.627  12.944  0.8902 -1.2049 -0.0401
12561TIP3   OH259173   2.429   2.248  13.014  0.4930  0.4231  0.8616
12561TIP3    H159174   2.512   2.230  12.970  0.2259  0.4232  0.3563
12561TIP3    H259175   2.454   2.298  13.092  0.8957  1.1096  0.3000
12562TIP3   OH259176   5.267   5.421   5.662  0.2527  0.5621  0.3889
12562TIP3    H159177   5.342   5.475   5.689  1.3056 -1.0841  0.8766
12562TIP3    H259178   5.243   5.373   5.741 -0.9007  0.5690  0.0534
12563TIP3   OH259179   1.675   5.675   3.248 -0.4649  0.2193  0.2712
12563TIP3    H159180   1.643   5.720   3.325  1.0655 -0.3682  1.3143
12563TIP3    H259181   1.722   5.599   3.283  1.2388  0.5485 -1.1387
12564TIP3   OH259182   0.724   5.451   5.155  0.0276  0.0172  0.3473
12564TIP3    H159183   0.710   5.544   5.138  0.7972  0.1812  0.6098
12564TIP3    H259184   0.636   5.417   5.173 -0.7564  0.0512 -2.7681
12565TIP3   OH259185   3.023   1.263  17.427 -0.0967 -0.1084 -0.0228
12565TIP3    H159186   2.936   1.226  17.414 -0.3678  0.4320  0.2279
12565TIP3    H259187   3.007   1.355  17.448  0.5545  0.0961 -0.3965
12566TIP3   OH259188   6.720   0.625   3.995 -0.4364  0.6072 -0.5571
12566TIP3    H159189   6.694   0.552   3.939 -1.0309 -0.1415  0.6373
12566TIP3    H259190   6.813   0.636   3.980 -0.0894 -1.1694  0.0590
12567TIP3   OH259191   3.961   2.724  15.829  0.2933 -0.2231 -0.1398
12567TIP3    H159192   4.017   2.698  15.756  2.2714 -0.2002  1.2886
12567TIP3    H259193   3.922   2.807  15.801  1.2142 -0.0882 -1.0824
12568TIP3   OH259194   4.263   2.972   4.411 -0.6452 -0.0288 -0.1231
12568TIP3    H159195   4.226   2.884   4.400 -0.2960  0.0511 -2.3829
12568TIP3    H259196   4.191   3.031   4.388 -0.3064  0.2195 -0.5593
12569TIP3   OH259197   3.432   6.642  16.349  0.3853 -0.5832 -0.0083
12569TIP3    H159198   3.395   6.639  16.437  1.9879 -1.3199  0.6703
12569TIP3    H259199   3.500   6.709  16.354 -0.1329  0.0398 -0.9657
12570TIP3   OH259200   5.416   6.601  12.566  0.6298  0.3179 -0.2081
12570TIP3    H159201   5.472   6.619  12.642  0.5508 -0.2102 -0.0168
12570TIP3    H259202   5.434   6.672  12.505  0.3315  1.0232  0.5095
12571TIP3   OH259203   5.432   1.990  14.122 -0.8346  0.4722 -0.0122
12571TIP3    H159204   5.376   1.975  14.046 -0.2008  0.0240 -0.4104
12571TIP3    H259205   5.394   1.937  14.191  0.1320 -1.3536 -0.8023
12572TIP3   OH259206   3.835   3.281   2.549 -0.2497 -0.0219 -0.3355
12572TIP3    H159207   3.808   3.304   2.460 -0.3717  2.0777  0.1885
12572TIP3    H259208   3.930   3.269   2.542 -0.3288 -0.4218 -0.8326
12573TIP3   OH259209   6.138   2.391   4.130  0.1481  0.6600 -0.0355
12573TIP3    H159210   6.181   2.455   4.187 -1.7701  2.3708 -0.3764
12573TIP3    H259211   6.099   2.328   4.191  0.2208  1.0601  0.4354
12574TIP3   OH259212   1.500   4.351   7.170 -0.6041  0.6857  0.1890
12574TIP3    H159213   1.507   4.300   7.090 -0.7856 -0.9555  1.1686
12574TIP3    H259214   1.590   4.367   7.197 -0.5031 -1.0692  1.0204
12575TIP3   OH259215   0.916   3.022   2.079 -0.3732  0.3231  0.0591
12575TIP3    H159216   0.822   3.036   2.069 -0.4052 -0.9356 -1.9573
12575TIP3    H259217   0.928   2.928   2.066  1.1229  0.3711  0.8261
12576TIP3   OH259218   0.943   5.662  13.174  0.1135 -0.1882  0.3278
12576TIP3    H159219   0.860   5.614  13.181 -0.3609  0.7002  0.9760
12576TIP3    H259220   0.980   5.633  13.090 -0.6010 -0.9831  0.2745
12577TIP3   OH259221   5.037   3.682  15.555  0.2092 -0.1134 -0.2180
12577TIP3    H159222   5.024   3.776  15.569 -0.1162  0.0883 -1.7104
12577TIP3    H259223   5.101   3.657  15.622  0.9288  1.3450 -0.3094
12578TIP3   OH259224   3.949   5.639   5.622  0.5307 -0.0345 -0.0500
12578TIP3    H159225   3.935   5.677   5.709  2.8500 -1.2588  0.9751
12578TIP3    H259226   3.922   5.548   5.632 -0.1409  0.0702 -0.9213
12579TIP3   OH259227   4.073   3.915   5.679  0.0377  0.1083  0.1260
12579TIP3    H159228   4.074   3.908   5.583  0.5311 -0.1275  0.1463
12579TIP3    H259229   4.164   3.931   5.703 -0.1462  0.5622  0.5319
12580TIP3   OH259230   6.261   6.561  17.175 -0.1216 -0.1853  0.1535
12580TIP3    H159231   6.263   6.611  17.257  0.1106  0.4059 -0.2053
12580TIP3    H259232   6.183   6.506  17.183  0.8298 -1.4008  1.4877
12581TIP3   OH259233   4.761   6.089  14.046  0.0177  0.0792 -0.2107
12581TIP3    H159234   4.678   6.110  14.089 -0.5260 -1.5700 -0.3787
12581TIP3    H259235   4.813   6.169  14.053 -0.4068  0.2023  2.6557
12582TIP3   OH259236   0.361   2.129   4.212 -0.0580 -0.2723 -0.2612
12582TIP3    H159237   0.361   2.071   4.288 -1.3666  0.4503  0.3319
12582TIP3    H259238   0.333   2.074   4.139 -0.2598 -0.6337  0.0875
12583TIP3   OH259239   2.764   3.278   0.961 -0.0777  0.3860  0.7322
12583TIP3    H159240   2.811   3.225   1.025 -0.1771 -0.3702  0.1954
12583TIP3    H259241   2.829   3.299   0.894 -0.1384  0.6098  0.7400
12584TIP3   OH259242   1.666   3.395  13.625  0.5012  0.4733  0.0342
12584TIP3    H159243   1.721   3.466  13.594 -1.1348  2.3391  1.1873
12584TIP3    H259244   1.671   3.400  13.720 -0.4817 -0.2788  0.1458
12585TIP3   OH259245   4.100   5.007   3.824 -0.3643 -0.4688 -0.0008
12585TIP3    H159246   4.114   5.101   3.826 -0.0903 -0.5104  0.0502
12585TIP3    H259247   4.166   4.971   3.884 -0.5269 -0.6844  0.0504
12586TIP3   OH259248   4.434   2.302  14.793 -0.2717 -0.2422  0.8947
12586TIP3    H159249   4.471   2.390  14.786 -0.0574 -0.3880  0.0954
12586TIP3    H259250   4.486   2.249  14.733 -0.6963 -0.8173  1.0220
12587TIP3   OH259251   2.378   4.592   4.549 -0.2909  0.4434  1.0756
12587TIP3    H159252   2.468   4.617   4.530 -1.2207  2.4673 -1.1678
12587TIP3    H259253   2.337   4.672   4.582 -2.0440  0.6387 -1.2585
12588TIP3   OH259254   6.321   5.698   4.036 -0.3626 -0.2310  0.4519
12588TIP3    H159255   6.410   5.718   4.005 -0.3288  0.2603  0.8592
12588TIP3    H259256   6.333   5.628   4.100 -0.2323  0.0566  0.7446
12589TIP3   OH259257   5.690   6.332  11.041  0.2188  1.2797  0.0157
12589TIP3    H159258   5.624   6.278  11.085  1.3166 -0.5442 -0.4645
12589TIP3    H259259   5.699   6.293  10.954  2.5737  0.8123  0.3802
12590TIP3   OH259260   3.741   5.085   5.185 -0.0395  0.5601 -0.2312
12590TIP3    H159261   3.705   5.070   5.272 -0.9353  0.8222 -0.5456
12590TIP3    H259262   3.836   5.089   5.198 -0.1059 -0.3753  0.5758
12591TIP3   OH259263   5.670   0.341  12.529 -0.3821 -0.0409  0.3949
12591TIP3    H159264   5.678   0.304  12.442 -0.9075 -0.2556  0.4295
12591TIP3    H259265   5.602   0.288  12.571  0.4943 -0.5224  1.2392
12592TIP3   OH259266   0.308   5.573  12.810  0.5358  0.1931 -0.1907
12592TIP3    H159267   0.300   5.605  12.899  0.9505  0.8815 -0.3916
12592TIP3    H259268   0.392   5.608  12.779  0.8615 -0.8361 -0.5299
12593TIP3   OH259269   2.679   1.125   4.114  0.7987  0.3610  0.1073
12593TIP3    H159270   2.708   1.204   4.068 -0.6758  0.1165 -1.3513
12593TIP3    H259271   2.701   1.053   4.054  0.5294 -0.1740  0.6355
12594TIP3   OH259272   1.775   2.594   3.560  0.1252  0.0535 -0.0241
12594TIP3    H159273   1.714   2.598   3.487  0.8924 -2.6838 -0.9438
12594TIP3    H259274   1.853   2.551   3.524  1.7203  1.3479  1.6874
12595TIP3   OH259275   2.927   2.550   3.017 -0.1294  0.2144 -0.0600
12595TIP3    H159276   2.841   2.590   3.017 -0.1589  0.1583 -0.3484
12595TIP3    H259277   2.949   2.541   2.924 -0.3830 -0.9847 -0.0255
12596TIP3   OH259278   5.716   1.017   1.007  0.2194  0.4461  0.1848
12596TIP3    H159279   5.692   1.030   0.915 -0.6628  0.4594  0.4095
12596TIP3    H259280   5.636   1.034   1.056  0.1988 -1.3174  0.8331
12597TIP3   OH259281   2.092   5.078  12.867  0.2206 -0.4361  0.2511
12597TIP3    H159282   2.045   4.995  12.872  0.4798 -0.5905  0.1224
12597TIP3    H259283   2.047   5.127  12.798  0.1629 -0.5289  0.2231
12598TIP3   OH259284   2.742   5.131  10.893  0.6233  0.6166  0.3372
12598TIP3    H159285   2.826   5.138  10.848  0.6553  0.4255  0.3660
12598TIP3    H259286   2.709   5.221  10.897  0.3434  0.5651 -0.5772
12599TIP3   OH259287   0.645   2.843   1.390 -0.4797  0.1857  0.6210
12599TIP3    H159288   0.663   2.862   1.298  0.9391 -0.3016  0.7763
12599TIP3    H259289   0.614   2.927   1.426 -0.2757  0.5818 -0.1050
12600TIP3   OH259290   4.128   5.991  15.640  0.2381  0.3668  0.0389
12600TIP3    H159291   4.057   5.996  15.576 -2.2034  0.4575  2.5581
12600TIP3    H259292   4.160   5.902  15.632  0.7760  0.6833 -2.0012
12601TIP3   OH259293   4.240   4.247  13.547 -0.2578  0.0553 -0.3010
12601TIP3    H159294   4.268   4.161  13.577  1.6394  1.1118  1.2318
12601TIP3    H259295   4.160   4.265  13.596  0.8629  0.2484  1.5833
12602TIP3   OH259296   3.946   3.643   3.701  0.0816  0.1714 -0.4842
12602TIP3    H159297   3.878   3.703   3.671 -1.8702 -0.5845  2.0157
12602TIP3    H259298   3.941   3.569   3.640 -2.7104 -0.6827  0.6175
12603TIP3   OH259299   0.253   2.677  13.578  0.6532  0.0112  0.2363
12603TIP3    H159300   0.261   2.639  13.665  3.4367 -0.1146  0.0305
12603TIP3    H259301   0.290   2.610  13.520  1.3818  1.1669 -0.6790
12604TIP3   OH259302   5.239   5.202  15.025 -0.3687  0.3187 -0.6946
12604TIP3    H159303   5.272   5.163  14.944 -1.7001  0.1761 -1.1965
12604TIP3    H259304   5.234   5.129  15.087 -0.2166  0.2420 -0.7737
12605TIP3   OH259305   1.254   3.914  16.575 -0.3151 -0.2460 -0.0918
12605TIP3    H159306   1.270   3.827  16.612 -0.0552  0.6449  2.0569
12605TIP3    H259307   1.334   3.934  16.526  0.3013 -0.5863  0.7414
12606TIP3   OH259308   2.387   3.427  13.324  0.0375 -0.1467  0.2649
12606TIP3    H159309   2.309   3.405  13.273 -0.5230  1.7876  0.1970
12606TIP3    H259310   2.392   3.359  13.391 -0.6941 -1.2823 -0.8020
12607TIP3   OH259311   5.508   3.474  13.896  0.2651 -0.1982  0.0155
12607TIP3    H159312   5.571   3.515  13.956 -1.0988 -0.1121  1.4563
12607TIP3    H259313   5.437   3.538  13.889 -1.4897 -1.8412  1.5903
12608TIP3   OH259314   5.031   5.550   5.579  0.3604  0.2992 -0.4846
12608TIP3    H159315   5.050   5.575   5.488  0.2430 -1.1717 -0.9443
12608TIP3    H259316   5.115   5.516   5.611  0.6067  1.5260  0.2371
12609TIP3   OH259317   2.189   2.498   0.981 -0.0454 -0.3902 -0.0820
12609TIP3    H159318   2.224   2.528   0.897  1.2396  0.6653  0.7855
12609TIP3    H259319   2.120   2.559   1.002 -2.0460 -2.0454 -1.4443
12610TIP3   OH259320   3.364   6.424   4.522  0.0001 -0.0629 -0.3634
12610TIP3    H159321   3.451   6.460   4.538 -0.3164 -0.2500  2.2285
12610TIP3    H259322   3.319   6.491   4.470  1.4872  0.2551 -1.3045
12611TIP3   OH259323   4.739   2.658  11.423 -0.1173  0.3471  0.7471
12611TIP3    H159324   4.781   2.686  11.504 -0.0148 -0.4028  0.9614
12611TIP3    H259325   4.648   2.639  11.448 -0.3284  0.9863  0.4927
12612TIP3   OH259326   0.442   2.990   3.993 -0.7570 -0.0475  0.8898
12612TIP3    H159327   0.349   2.998   4.014 -0.7412  0.1636  0.8804
12612TIP3    H259328   0.486   3.044   4.058 -0.6663  0.1427  0.6698
12613TIP3   OH259329   4.935   5.980  16.216  0.1012  0.6355 -0.0219
12613TIP3    H159330   4.872   6.039  16.257  0.2010 -1.6430  4.0086
12613TIP3    H259331   4.895   5.956  16.133 -1.6231  3.4771 -0.1354
12614TIP3   OH259332   6.324   0.446  11.448 -0.3359 -0.2117 -0.0156
12614TIP3    H159333   6.410   0.414  11.475 -0.6962 -2.8204 -1.5033
12614TIP3    H259334   6.267   0.425  11.521 -0.0483 -0.4166  0.1551
12615TIP3   OH259335   0.654   5.844  12.428 -0.0766  0.0098  0.1719
12615TIP3    H159336   0.704   5.925  12.440 -0.2550  0.0656  0.5787
12615TIP3    H259337   0.630   5.843  12.336  0.9076 -0.1514 -0.0990
12616TIP3   OH259338   5.144   4.355   4.113  0.3575 -0.5591 -0.4683
12616TIP3    H159339   5.180   4.414   4.179 -1.1307 -1.4438  1.2271
12616TIP3    H259340   5.188   4.380   4.031 -1.6260  4.2717 -0.3829
12617TIP3   OH259341   2.634   0.485  13.466 -0.6813 -0.3397  0.1837
12617TIP3    H159342   2.677   0.452  13.545  0.6610  2.4364  0.7394
12617TIP3    H259343   2.637   0.411  13.405  4.6388 -0.6394  0.3097
12618TIP3   OH259344   2.709   0.791   5.628 -0.1011 -0.1422 -0.1594
12618TIP3    H159345   2.768   0.731   5.582  1.5786  1.1150  0.2792
12618TIP3    H259346   2.654   0.827   5.558 -1.5819 -2.5485 -0.3705
12619TIP3   OH259347   4.674   4.394   1.638  0.1859  0.3992  0.1199
12619TIP3    H159348   4.745   4.415   1.578  0.2776 -3.0340 -1.2145
12619TIP3    H259349   4.715   4.386   1.724  0.8517  1.2282 -0.1148
12620TIP3   OH259350   3.783   4.395  17.260 -0.6056 -0.6234 -0.0737
12620TIP3    H159351   3.794   4.489  17.276 -1.8336 -0.3220 -0.8624
12620TIP3    H259352   3.851   4.354  17.313  1.4013  0.8128 -1.3709
12621TIP3   OH259353   0.616   2.297   6.340  0.5576  0.1173  0.9754
12621TIP3    H159354   0.629   2.376   6.288  0.2041 -0.2647  0.2910
12621TIP3    H259355   0.560   2.241   6.286 -1.6346  0.5674  2.6377
12622TIP3   OH259356   3.903   2.833  12.569  0.1138 -0.3978 -0.0071
12622TIP3    H159357   3.836   2.810  12.503 -0.5321 -1.3184  0.9332
12622TIP3    H259358   3.868   2.910  12.613 -0.8159 -1.4118  1.1012
12623TIP3   OH259359   5.131   1.136  17.051 -0.1072 -0.1511 -0.5247
12623TIP3    H159360   5.088   1.126  16.966  0.6445  0.9603 -1.0601
12623TIP3    H259361   5.220   1.164  17.030  1.1772 -3.0317  0.5206
12624TIP3   OH259362   6.515   4.968  15.085 -0.6551  0.2473 -0.5538
12624TIP3    H159363   6.477   4.935  15.166 -0.1961  0.9001 -0.0595
12624TIP3    H259364   6.442   5.010  15.039 -0.5183  1.7563  0.5259
12625TIP3   OH259365   0.327   4.807  11.912 -0.1954 -0.1654 -0.4589
12625TIP3    H159366   0.250   4.762  11.945 -1.1567  1.0153 -1.0461
12625TIP3    H259367   0.332   4.783  11.820  0.7046 -0.9839 -0.2183
12626TIP3   OH259368   0.901   3.579   5.360 -0.2745 -0.7677 -0.5035
12626TIP3    H159369   0.939   3.511   5.304  0.8350  1.4635 -2.6168
12626TIP3    H259370   0.813   3.592   5.325 -0.3707 -0.8398 -0.2971
12627TIP3   OH259371   5.355   0.211  14.651 -0.3416 -0.4622  0.3114
12627TIP3    H159372   5.289   0.277  14.630  1.9656  1.1651 -2.4459
12627TIP3    H259373   5.317   0.128  14.621 -1.4542  0.3081 -0.4658
12628TIP3   OH259374   4.608   6.208   3.622  0.7144 -0.5360  0.0490
12628TIP3    H159375   4.623   6.174   3.534  0.1269 -0.1235 -0.2191
12628TIP3    H259376   4.611   6.303   3.612  1.2498 -0.4930  0.5892
12629TIP3   OH259377   6.143   6.168  16.014 -0.2810 -0.5687  0.3644
12629TIP3    H159378   6.098   6.251  16.002 -1.4543 -0.9141  2.0477
12629TIP3    H259379   6.093   6.122  16.081  0.7043 -2.3806 -0.0570
12630TIP3   OH259380   0.314   1.635   1.549  0.2083 -0.4885  0.6129
12630TIP3    H159381   0.406   1.623   1.573  0.2072 -0.6038  0.5629
12630TIP3    H259382   0.316   1.677   1.463  0.2124  1.3548  1.4752
12631TIP3   OH259383   6.047   4.173  14.617  0.1351 -0.1372 -0.1958
12631TIP3    H159384   6.096   4.254  14.606 -1.5667  0.7987 -1.2446
12631TIP3    H259385   6.017   4.175  14.708 -2.4823  2.0252 -0.9733
12632TIP3   OH259386   3.390   6.689  12.753  0.0636 -0.7084 -0.1724
12632TIP3    H159387   3.436   6.628  12.811 -0.2186 -0.4389  0.3440
12632TIP3    H259388   3.329   6.634  12.704 -0.8609 -0.7192  0.9700
12633TIP3   OH259389   5.495   6.724   4.834 -0.6504  0.0862 -0.2401
12633TIP3    H159390   5.444   6.643   4.839  1.2801 -1.1774  0.0289
12633TIP3    H259391   5.433   6.793   4.858 -2.7704 -1.0975 -2.0005
12634TIP3   OH259392   6.142   2.537  14.605  0.0670 -0.2668  0.3939
12634TIP3    H159393   6.211   2.492  14.653  1.7772 -1.1724 -2.6199
12634TIP3    H259394   6.188   2.601  14.550 -1.7524  0.9197  0.1503
12635TIP3   OH259395   2.233   0.065  15.534 -0.1562 -0.0400 -0.3217
12635TIP3    H159396   2.320   0.063  15.574 -0.2618 -0.6054 -0.1088
12635TIP3    H259397   2.218   0.158  15.514  0.4637  0.0700 -0.3010
12636TIP3   OH259398   5.517   6.146   0.454 -0.8021  0.2577 -0.9572
12636TIP3    H159399   5.437   6.156   0.506  0.5394 -1.3763  1.6203
12636TIP3    H259400   5.501   6.068   0.401 -0.8451 -0.2260 -0.2466
12637TIP3   OH259401   5.322   0.109   1.730 -0.6455  0.6380  0.2554
12637TIP3    H159402   5.335   0.199   1.760 -0.7937  0.7498 -0.0088
12637TIP3    H259403   5.406   0.066   1.747 -0.9382  0.5175  1.4396
12638TIP3   OH259404   1.453   6.342   3.571 -0.3266  0.3732 -0.4549
12638TIP3    H159405   1.396   6.300   3.635 -0.1375  0.3822 -0.2823
12638TIP3    H259406   1.442   6.436   3.587  1.8509  0.3715  1.4466
12639TIP3   OH259407   6.118   1.523  13.456 -0.4133 -0.1142 -0.3513
12639TIP3    H159408   6.080   1.585  13.518  1.7545  0.3134  0.6424
12639TIP3    H259409   6.174   1.577  13.400  1.3074 -1.0533  0.3640
12640TIP3   OH259410   5.336   1.674  12.902 -0.5324 -0.1576 -0.4125
12640TIP3    H159411   5.351   1.664  12.808 -0.5774 -0.4690 -0.3867
12640TIP3    H259412   5.421   1.698  12.938  0.0385 -2.3225 -0.2030
12641TIP3   OH259413   6.528   3.782  12.685 -0.3732 -0.0730 -0.0615
12641TIP3    H159414   6.523   3.825  12.599  1.2001  0.5724  0.1357
12641TIP3    H259415   6.471   3.706  12.677 -1.1366  0.5993 -1.3103
12642TIP3   OH259416   2.026   1.479   3.273 -0.1974  0.2727  0.3519
12642TIP3    H159417   1.998   1.427   3.198 -0.3632  1.8090 -0.6984
12642TIP3    H259418   2.014   1.422   3.349 -0.0935 -1.2942 -0.7739
12643TIP3   OH259419   5.792   5.069   5.013  0.3069 -0.6325 -0.0621
12643TIP3    H159420   5.809   5.068   5.108  0.8192  0.2824 -0.1293
12643TIP3    H259421   5.767   4.979   4.992  1.7476 -1.2462  0.6776
12644TIP3   OH259422   3.199   0.344  14.792  0.8180 -0.4170  0.3782
12644TIP3    H159423   3.187   0.420  14.849  1.1177  0.2259 -0.3884
12644TIP3    H259424   3.111   0.323  14.760  0.7329 -0.4061  0.6044
12645TIP3   OH259425   5.306   5.081  15.340  0.4596 -0.3729 -0.0870
12645TIP3    H159426   5.303   5.132  15.421  2.1451 -0.3795  0.0220
12645TIP3    H259427   5.388   5.107  15.298  0.2218 -1.2903 -1.1714
12646TIP3   OH259428   5.227   2.090   4.141  0.2947 -0.2594 -0.1024
12646TIP3    H159429   5.147   2.116   4.096  1.2796 -0.8758 -2.3824
12646TIP3    H259430   5.286   2.164   4.129 -0.0580  0.4352  2.0709
12647TIP3   OH259431   5.821   0.181  12.690 -0.1931 -0.9242  0.1495
12647TIP3    H159432   5.803   0.215  12.778  1.0751 -1.1150  0.5055
12647TIP3    H259433   5.787   0.248  12.631  2.7262  1.3407  0.8285
12648TIP3   OH259434   2.056   0.782  11.494  0.2442  0.0976 -0.4249
12648TIP3    H159435   2.004   0.799  11.415  0.2847  1.9607 -0.0928
12648TIP3    H259436   1.991   0.774  11.564  0.2581 -0.6155 -0.4893
12649TIP3   OH259437   5.598   2.400  11.275 -0.2253 -0.4913  0.3159
12649TIP3    H159438   5.575   2.308  11.281 -1.8984 -0.3389 -2.0654
12649TIP3    H259439   5.514   2.444  11.260  0.5229  1.4497  1.4420
12650TIP3   OH259440   4.941   3.321   5.010  0.2943  0.2918 -0.2482
12650TIP3    H159441   4.984   3.399   4.977 -1.1857  1.4339  0.4152
12650TIP3    H259442   4.968   3.316   5.102  0.8780 -0.3504 -0.4460
12651TIP3   OH259443   2.506   1.285  11.930  0.1585 -0.0615  0.5298
12651TIP3    H159444   2.521   1.196  11.963 -1.1886 -0.2034  0.8280
12651TIP3    H259445   2.461   1.329  12.002 -0.7691  0.3191 -0.2782
12652TIP3   OH259446   2.970   0.332  16.002  0.4812 -0.1375 -0.1841
12652TIP3    H159447   2.904   0.380  15.952 -0.2808 -1.2564 -0.2821
12652TIP3    H259448   2.951   0.240  15.985  0.6605 -0.5363  1.5954
12653TIP3   OH259449   4.895   4.627  11.747  0.4782  0.1540 -0.3443
12653TIP3    H159450   4.918   4.647  11.838 -0.7809 -0.7187  0.1958
12653TIP3    H259451   4.951   4.554  11.724  1.7101  1.1801 -0.7301
12654TIP3   OH259452   3.257   0.249  16.486  0.1269 -0.2244 -0.1727
12654TIP3    H159453   3.205   0.309  16.432 -0.2745 -0.7358 -0.3586
12654TIP3    H259454   3.192   0.200  16.537  0.4522 -0.5104 -0.0310
12655TIP3   OH259455   0.817   3.885  12.304 -0.1892  0.1234 -0.3787
12655TIP3    H159456   0.852   3.974  12.298  2.2938 -0.8677 -3.3195
12655TIP3    H259457   0.748   3.881  12.238 -0.7679  0.0314  0.2226
12656TIP3   OH259458   5.330   2.487   3.051 -0.1969  0.1714  0.2419
12656TIP3    H159459   5.295   2.500   3.140 -1.2375  2.5176 -0.4276
12656TIP3    H259460   5.256   2.508   2.993  1.0058  0.5843 -1.1962
12657TIP3   OH259461   1.785   6.242   5.255  0.1297  0.5356 -0.0144
12657TIP3    H159462   1.873   6.225   5.223 -0.5872 -1.2850 -1.2117
12657TIP3    H259463   1.790   6.224   5.349  0.6700 -1.3385 -0.3628
12658TIP3   OH259464   3.199   3.608  11.906  0.3775  0.0097  0.6878
12658TIP3    H159465   3.285   3.598  11.865 -0.3468  1.7050 -1.4062
12658TIP3    H259466   3.219   3.631  11.997  2.1465  0.3056  0.2744
12659TIP3   OH259467   5.517   5.155   5.575  0.4188  0.7545 -0.3358
12659TIP3    H159468   5.607   5.177   5.549  0.2898  2.2604  0.3998
12659TIP3    H259469   5.527   5.110   5.659  0.6227 -1.4404 -1.4533
12660TIP3   OH259470   5.600   4.694   0.835  0.5584 -0.4955  0.4452
12660TIP3    H159471   5.662   4.703   0.908  0.4483  0.3639  0.4530
12660TIP3    H259472   5.532   4.635   0.868 -0.8186  1.7726  2.0050
12661TIP3   OH259473   5.838   1.842  15.403  0.1911 -0.0209 -0.5672
12661TIP3    H159474   5.845   1.816  15.312  0.2693 -1.4562 -0.1737
12661TIP3    H259475   5.744   1.841  15.421  0.1334  0.8253 -0.7708
12662TIP3   OH259476   3.620   0.356  16.318 -0.1284  0.6865 -0.1390
12662TIP3    H159477   3.706   0.336  16.281 -0.7065 -1.1411 -0.6253
12662TIP3    H259478   3.565   0.374  16.242 -1.2347 -2.7179 -0.3376
12663TIP3   OH259479   4.697   5.520  15.172 -0.2470 -0.0876  0.1802
12663TIP3    H159480   4.727   5.584  15.108 -0.0365 -0.4521 -0.0903
12663TIP3    H259481   4.657   5.451  15.119  0.2408 -0.5592  0.4176
12664TIP3   OH259482   4.707   0.406   2.638  0.0796 -0.5112 -0.3202
12664TIP3    H159483   4.798   0.413   2.612  0.6120 -1.1735  1.2570
12664TIP3    H259484   4.693   0.479   2.699 -0.5312 -0.2527 -0.7510
12665TIP3   OH259485   4.847   1.726   1.421  0.2816  0.4840 -0.9209
12665TIP3    H159486   4.778   1.782   1.457  0.9536  0.6585  0.1694
12665TIP3    H259487   4.908   1.714   1.494  0.0542 -1.8585 -1.0652
12666TIP3   OH259488   2.840   4.970  11.418 -0.3134 -0.1679  0.2128
12666TIP3    H159489   2.815   4.882  11.449  1.1105 -0.4758  0.5812
12666TIP3    H259490   2.855   4.958  11.324  1.0225 -0.6192  0.4649
12667TIP3   OH259491   5.349   5.238   4.401 -0.6521  0.1870  0.0355
12667TIP3    H159492   5.390   5.242   4.315 -0.2835  0.3049  0.2136
12667TIP3    H259493   5.264   5.198   4.386 -0.4753 -0.0437 -0.3415
12668TIP3   OH259494   2.340   0.370  13.677 -0.2263 -0.0485 -0.0161
12668TIP3    H159495   2.283   0.401  13.607 -1.2651  0.0013  0.8325
12668TIP3    H259496   2.364   0.449  13.726 -0.0078 -0.1570  0.0548
12669TIP3   OH259497   1.522   0.141  11.899  0.2779 -0.1665 -0.0577
12669TIP3    H159498   1.580   0.174  11.831  2.7269 -3.1697  0.3455
12669TIP3    H259499   1.466   0.077  11.854  0.8421 -1.0181  0.4192
12670TIP3   OH259500   2.098   3.941  14.190 -0.2697 -0.3517 -0.1224
12670TIP3    H159501   2.043   3.876  14.145  0.3054  0.6253 -2.3700
12670TIP3    H259502   2.043   3.974  14.260 -2.0193 -0.4970 -1.3557
12671TIP3   OH259503   4.245   3.918  16.335  0.0291  0.9167  0.4122
12671TIP3    H159504   4.311   3.968  16.382 -0.5915  1.6627  0.5078
12671TIP3    H259505   4.197   3.983  16.283  0.5316  0.1480 -1.0633
12672TIP3   OH259506   3.614   4.715  16.384  0.4360 -0.2829 -0.0977
12672TIP3    H159507   3.651   4.689  16.468  1.4480  0.4091 -0.3135
12672TIP3    H259508   3.520   4.728  16.401  0.6514 -0.0701  0.9294
12673TIP3   OH259509   0.864   3.281  14.719  0.0037 -0.4692  0.2970
12673TIP3    H159510   0.888   3.192  14.745 -0.9821 -0.5737  0.8730
12673TIP3    H259511   0.948   3.327  14.715  0.3390 -0.6469  2.9802
12674TIP3   OH259512   4.383   3.648   4.961 -0.1555 -0.0750 -0.7080
12674TIP3    H159513   4.402   3.661   5.054 -0.1416 -2.4468 -0.3205
12674TIP3    H259514   4.288   3.637   4.957  0.0082 -1.5561 -0.7371
12675TIP3   OH259515   4.447   5.506  12.898 -0.6536 -0.1835  0.1567
12675TIP3    H159516   4.426   5.538  12.985 -1.7096  1.7333 -0.7505
12675TIP3    H259517   4.543   5.501  12.896 -0.3771  2.9936  0.4093
12676TIP3   OH259518   4.706   2.864  11.647 -0.6235  0.3159  0.1670
12676TIP3    H159519   4.758   2.801  11.695  0.0335 -0.0341 -0.9686
12676TIP3    H259520   4.616   2.849  11.677 -0.5298 -1.3940 -0.3030
12677TIP3   OH259521   2.923   0.414  17.154  0.7405  0.5404  0.4735
12677TIP3    H159522   2.906   0.320  17.158  2.8804  0.1117  0.9432
12677TIP3    H259523   2.899   0.447  17.241  2.5274 -0.1213  1.2742
12678TIP3   OH259524   3.417   6.735   2.432  0.5508 -0.3489  0.0440
12678TIP3    H159525   3.442   6.782   2.511 -0.7028 -1.8769  1.4175
12678TIP3    H259526   3.379   6.653   2.463 -1.8521 -0.1644 -2.0275
12679TIP3   OH259527   1.035   3.194  13.332 -0.1804  0.2164  0.2329
12679TIP3    H159528   1.096   3.255  13.290  0.3040  0.3295  1.0634
12679TIP3    H259529   0.957   3.247  13.349  0.5811  0.9217  1.8119
12680TIP3   OH259530   2.677   4.502  15.295  0.0784 -0.3598  0.6951
12680TIP3    H159531   2.696   4.532  15.384  1.2972  0.8712  0.0711
12680TIP3    H259532   2.620   4.570  15.258 -1.2404 -1.3606  0.8260
12681TIP3   OH259533   6.184   6.271   3.322 -0.6317 -0.3904 -0.0553
12681TIP3    H159534   6.240   6.311   3.255 -0.0547  2.7644  2.0681
12681TIP3    H259535   6.116   6.336   3.339 -0.3792 -0.7119  2.8034
12682TIP3   OH259536   4.665   3.867  12.730 -0.2956  0.0489 -0.5006
12682TIP3    H159537   4.589   3.815  12.703 -1.1695  1.6270 -1.1966
12682TIP3    H259538   4.672   3.852  12.824 -0.8124 -0.9384 -0.6025
12683TIP3   OH259539   0.045   3.326  12.672 -0.0849  0.0714  0.4366
12683TIP3    H159540   0.107   3.336  12.744 -1.0509  2.0695  1.0685
12683TIP3    H259541  -0.037   3.363  12.705 -1.1615 -0.9631 -0.9544
12684TIP3   OH259542   5.077   6.405   6.954 -0.5282  0.0872  0.1116
12684TIP3    H159543   5.160   6.389   7.000 -0.0690  0.1110 -0.6828
12684TIP3    H259544   5.062   6.324   6.905 -1.6803 -0.4416  1.2766
12685TIP3   OH259545   0.590   6.485  12.349  0.2357 -0.0005  0.6998
12685TIP3    H159546   0.551   6.403  12.378 -0.4502  0.1645  0.2671
12685TIP3    H259547   0.517   6.535  12.312  0.6647  0.7517  0.8350
12686TIP3   OH259548   2.280   3.044  13.068  0.0996 -0.6691  0.4078
12686TIP3    H159549   2.269   2.959  13.110  0.8097  0.2334  2.5894
12686TIP3    H259550   2.372   3.065  13.082 -0.6128  1.6160  2.4547
12687TIP3   OH259551   4.032   5.519   5.985  0.2903  0.7414 -0.4780
12687TIP3    H159552   3.953   5.531   5.933 -0.3354  0.6882  0.4487
12687TIP3    H259553   4.001   5.507   6.075  1.3241  0.3424 -0.1544
12688TIP3   OH259554   6.644   1.790   4.841  0.7397 -0.0721 -0.3197
12688TIP3    H159555   6.698   1.860   4.878  0.7636 -0.0837 -0.3331
12688TIP3    H259556   6.699   1.749   4.774  1.3452 -1.1773  0.8188
12689TIP3   OH259557   6.014   4.829  16.953  0.0774  0.4367 -0.9872
12689TIP3    H159558   6.109   4.821  16.942  0.2135  1.4277 -0.5881
12689TIP3    H259559   5.997   4.923  16.952 -0.8235  0.2917 -0.3725
12690TIP3   OH259560   4.272   0.417   4.766  0.3089  0.3296 -0.5892
12690TIP3    H159561   4.230   0.421   4.852  0.2957  0.9594 -0.6220
12690TIP3    H259562   4.204   0.383   4.707 -0.0022  0.8553 -0.5412
12691TIP3   OH259563   4.885   5.050  14.431 -0.3318  0.4813 -0.1423
12691TIP3    H159564   4.967   5.008  14.407 -0.5322  0.4692 -0.8276
12691TIP3    H259565   4.894   5.140  14.400 -1.1699  0.0840 -1.6720
12692TIP3   OH259566   0.107   5.805   4.289 -0.0717  0.4069 -0.4023
12692TIP3    H159567   0.173   5.791   4.356 -0.2172 -0.2394 -0.3938
12692TIP3    H259568   0.120   5.734   4.226 -0.2519  0.7262 -0.8077
12693TIP3   OH259569   1.593   2.103   1.609  0.5817  0.1895 -0.5862
12693TIP3    H159570   1.590   2.154   1.529  0.4855 -0.3312 -0.9180
12693TIP3    H259571   1.687   2.086   1.623  0.5269 -0.9108 -1.3683
12694TIP3   OH259572   3.445   1.428  13.560 -0.2510  0.7332  0.6467
12694TIP3    H159573   3.498   1.382  13.625 -0.4150  1.2178  1.1313
12694TIP3    H259574   3.438   1.517  13.593  1.5720  1.6246 -1.1904
12695TIP3   OH259575   0.125   6.510   1.113 -0.1209  0.0851 -0.5811
12695TIP3    H159576   0.046   6.558   1.137  0.3374 -0.0743  1.4391
12695TIP3    H259577   0.196   6.558   1.156  0.3716 -2.1626  1.3181
12696TIP3   OH259578   0.988   6.485   1.967 -1.1169 -0.3008 -0.2872
12696TIP3    H159579   1.053   6.450   1.906  1.3271  0.1740  1.8689
12696TIP3    H259580   0.910   6.498   1.914  0.8131  0.0234 -3.2983
12697TIP3   OH259581   5.282   5.364  16.945  0.0974  0.6855 -0.1143
12697TIP3    H159582   5.299   5.308  16.869 -0.1084 -1.4995  1.3651
12697TIP3    H259583   5.190   5.348  16.967  0.9907 -1.4429  2.5800
12698TIP3   OH259584   4.484   1.521   6.191  0.3377  0.5017  0.6487
12698TIP3    H159585   4.431   1.595   6.159 -0.9623 -0.2737  0.9328
12698TIP3    H259586   4.494   1.465   6.114  1.1346  0.8374  0.4916
12699TIP3   OH259587   4.464   0.657  13.612  0.2545 -0.5120 -0.2204
12699TIP3    H159588   4.409   0.659  13.691  0.9176 -1.5476  0.2979
12699TIP3    H259589   4.521   0.734  13.621  0.4189 -0.6936  0.4019
12700TIP3   OH259590   6.637   0.248  12.767 -0.5824 -0.3126  0.3686
12700TIP3    H159591   6.670   0.330  12.730  0.2806  0.5892  2.8818
12700TIP3    H259592   6.575   0.275  12.835  0.6184 -1.6290  2.0953
12701TIP3   OH259593   1.121   0.341  11.181 -0.3374 -0.2153 -0.2236
12701TIP3    H159594   1.209   0.321  11.210  0.1000  1.2312 -0.4467
12701TIP3    H259595   1.125   0.334  11.086  0.0469  1.5694 -0.3744
12702TIP3   OH259596   1.203   3.498  17.646 -0.0894 -0.3535 -0.2429
12702TIP3    H159597   1.161   3.414  17.629 -0.7360 -0.0932  0.0269
12702TIP3    H259598   1.171   3.556  17.577  1.0519 -0.5425 -0.9663
12703TIP3   OH259599   6.420   0.076   4.759  0.8218 -0.1516 -0.5367
12703TIP3    H159600   6.505   0.082   4.802 -0.4052  2.4996  1.7689
12703TIP3    H259601   6.438   0.095   4.667  2.3462  4.8463  0.5381
12704TIP3   OH259602   4.961   0.398   1.900  0.1823  0.3686 -0.2672
12704TIP3    H159603   4.985   0.406   1.807 -1.6353  0.8428 -0.7256
12704TIP3    H259604   4.866   0.401   1.900  0.1063 -0.9598  1.5147
12705TIP3   OH259605   4.623   6.587  16.805 -0.3750  0.4663  0.5072
12705TIP3    H159606   4.649   6.511  16.752  3.3802  2.7969 -1.3786
12705TIP3    H259607   4.649   6.564  16.894  1.4165 -0.2569 -0.1580
12706TIP3   OH259608   5.378   3.482   1.121  0.5028 -0.3801 -0.0663
12706TIP3    H159609   5.298   3.494   1.173  0.8035 -0.2085  0.3618
12706TIP3    H259610   5.443   3.538   1.163 -0.1619  2.6787 -2.7759
12707TIP3   OH259611   2.454   5.225   6.436 -0.1630  0.6698 -0.6712
12707TIP3    H159612   2.448   5.313   6.474 -0.0004 -0.0618  1.1307
12707TIP3    H259613   2.473   5.168   6.511 -0.4120 -0.9261 -1.7902
12708TIP3   OH259614   3.375   3.375   0.604 -0.4630  0.3694 -1.4140
12708TIP3    H159615   3.323   3.450   0.575  0.2816  1.8317  0.7327
12708TIP3    H259616   3.313   3.320   0.653 -0.5765  0.6696 -1.2183
12709TIP3   OH259617   5.437   2.990  16.813  0.1316  0.8735  0.3509
12709TIP3    H159618   5.488   2.949  16.883  1.6792  0.9613 -0.6995
12709TIP3    H259619   5.452   3.084  16.824  1.7054  0.8161 -1.0500
12710TIP3   OH259620   6.330   0.116  11.756  0.7231 -0.0320  0.4569
12710TIP3    H159621   6.400   0.061  11.790  0.1563 -0.4182  1.0189
12710TIP3    H259622   6.355   0.134  11.665  0.6416 -1.6809  0.0917
12711TIP3   OH259623   6.166   0.458  14.312  0.1127 -0.4169  0.1007
12711TIP3    H159624   6.258   0.432  14.316  0.5252  1.0987  0.8832
12711TIP3    H259625   6.158   0.530  14.374 -1.7616 -0.9561  0.5600
12712TIP3   OH259626   4.065   1.176   0.474  0.1613 -0.3676 -0.1342
12712TIP3    H159627   4.108   1.200   0.392  0.0176 -0.8485 -0.3563
12712TIP3    H259628   3.980   1.140   0.446 -0.3141  0.3852  0.2825
12713TIP3   OH259629   6.410   2.369   2.734  0.3720  0.1237 -0.6612
12713TIP3    H159630   6.447   2.281   2.724 -0.6346 -0.4253  0.2521
12713TIP3    H259631   6.391   2.397   2.644  1.3623 -0.2852 -1.0160
12714TIP3   OH259632   0.249   0.768   0.779 -0.5569 -0.3319 -0.9572
12714TIP3    H159633   0.197   0.814   0.713 -2.6685 -0.6389  0.4012
12714TIP3    H259634   0.339   0.799   0.766 -1.0122  0.0850 -3.5229
12715TIP3   OH259635   1.507   5.223   1.588 -0.0660 -0.0876 -0.3040
12715TIP3    H159636   1.442   5.293   1.593  1.2252  1.0708  0.9239
12715TIP3    H259637   1.512   5.203   1.494 -2.4231 -0.4886 -0.4176
12716TIP3   OH259638   0.605   6.654   1.358  0.0348 -0.3761 -0.1987
12716TIP3    H159639   0.623   6.732   1.306 -1.0988 -0.0261 -0.0935
12716TIP3    H259640   0.626   6.581   1.300  1.5494 -0.0181 -0.1391
12717TIP3   OH259641   6.332   5.373   0.710 -0.0347 -0.1544  0.3093
12717TIP3    H159642   6.275   5.449   0.706 -1.1278 -0.9960 -0.5016
12717TIP3    H259643   6.289   5.313   0.771  1.0870  0.0489  1.3658
12718TIP3   OH259644   3.153   4.174  14.870  0.0736  0.5396  0.4647
12718TIP3    H159645   3.058   4.178  14.876 -0.0631  0.2706 -1.1139
12718TIP3    H259646   3.182   4.263  14.886 -0.4409  0.6081  1.0201
12719TIP3   OH259647   3.950   6.365  11.991 -0.5843 -0.2622  0.0783
12719TIP3    H159648   3.952   6.347  12.085  2.2906  0.9518  0.3513
12719TIP3    H259649   3.885   6.435  11.981 -1.8061 -1.2234  0.9200
12720TIP3   OH259650   4.416   3.024   3.319 -0.4736  0.5798 -0.0205
12720TIP3    H159651   4.467   2.969   3.260  0.9235 -0.7698  2.2672
12720TIP3    H259652   4.379   3.092   3.264  1.1123 -0.3204 -2.3229
12721TIP3   OH259653   2.674   5.379  10.943  0.1060  0.2415 -0.2104
12721TIP3    H159654   2.682   5.452  10.881  1.2329 -0.9253 -1.5167
12721TIP3    H259655   2.717   5.410  11.022 -1.1983  1.7086 -0.0229
12722TIP3   OH259656   5.284   5.833  14.232 -0.2501  0.4151  0.3525
12722TIP3    H159657   5.271   5.747  14.191  0.5325  0.9443 -1.0383
12722TIP3    H259658   5.218   5.836  14.301  0.3212 -1.7070  1.0866
12723TIP3   OH259659   6.366   6.466   2.272  0.1333 -0.3302  0.2916
12723TIP3    H159660   6.284   6.512   2.255 -0.9182 -1.1394  2.7902
12723TIP3    H259661   6.357   6.383   2.224 -0.7543 -0.6091  0.9014
12724TIP3   OH259662   4.035   1.852  11.969 -0.1339  0.1683 -0.2311
12724TIP3    H159663   4.121   1.891  11.958  0.0357 -0.4137 -1.1158
12724TIP3    H259664   3.988   1.913  12.026  0.9306  0.3694  0.4566
12725TIP3   OH259665   2.987   3.666  13.674  0.7366  0.1396  0.0866
12725TIP3    H159666   3.051   3.635  13.610  0.0251  0.7673 -0.9664
12725TIP3    H259667   3.023   3.749  13.706  0.0870  0.9700 -1.1853
12726TIP3   OH259668   2.266   4.360  12.939 -0.5855  0.5151  0.1994
12726TIP3    H159669   2.280   4.270  12.969  0.7012  0.4620 -0.4909
12726TIP3    H259670   2.223   4.404  13.013 -0.9401 -0.5740  0.6592
12727TIP3   OH259671   4.912   2.799   0.339 -0.1825  0.2478 -0.1353
12727TIP3    H159672   4.906   2.704   0.339  1.7452  0.0853  0.6410
12727TIP3    H259673   5.005   2.818   0.353 -0.5631  2.2445  0.0607
12728TIP3   OH259674   1.235   5.745   4.636  0.3893 -0.3515 -0.1615
12728TIP3    H159675   1.326   5.719   4.628  0.9803  1.6021 -0.4430
12728TIP3    H259676   1.197   5.727   4.550  1.1761  1.0021 -0.8363
12729TIP3   OH259677   5.329   4.777   3.045 -0.3089 -0.4808 -0.2146
12729TIP3    H159678   5.384   4.711   3.004 -1.6510 -1.1093 -1.0811
12729TIP3    H259679   5.386   4.853   3.056  0.8842 -1.3175 -0.4949
12730TIP3   OH259680   4.262   0.133   0.097 -0.1911 -0.5168 -0.2522
12730TIP3    H159681   4.203   0.196   0.139 -1.1476 -0.8667 -1.0427
12730TIP3    H259682   4.339   0.185   0.074  0.3302 -0.3022  1.8302
12731TIP3   OH259683   5.314   1.646   5.571  0.0697  0.7849  0.0141
12731TIP3    H159684   5.272   1.666   5.655 -0.5216 -2.3876  0.6048
12731TIP3    H259685   5.245   1.663   5.506 -1.0546 -0.9541  0.6608
12732TIP3   OH259686   1.389   3.148   2.296  0.1129 -0.0303 -0.2947
12732TIP3    H159687   1.440   3.069   2.312 -0.1419 -0.5416 -1.8484
12732TIP3    H259688   1.442   3.200   2.236 -0.9253 -0.3413 -1.5364
12733TIP3   OH259689   2.474   3.810  13.576  0.2552 -0.4663  0.0206
12733TIP3    H159690   2.403   3.751  13.553  0.9603 -1.0496 -0.6892
12733TIP3    H259691   2.470   3.816  13.672 -1.4028  0.3690 -0.0634
12734TIP3   OH259692   4.806   2.782  16.933  0.0183 -0.4564 -0.5651
12734TIP3    H159693   4.812   2.860  16.988  1.5547 -0.4122 -0.7420
12734TIP3    H259694   4.743   2.805  16.865 -0.5543  0.1369  0.1513
12735TIP3   OH259695   3.163   1.124   1.946 -0.3495  0.6486  0.2295
12735TIP3    H159696   3.137   1.152   1.858 -0.2414 -0.9827 -0.3421
12735TIP3    H259697   3.222   1.050   1.931 -2.7525 -1.7181  1.6974
12736TIP3   OH259698   6.358   3.574   2.956  0.1098  0.0935 -0.0379
12736TIP3    H159699   6.273   3.618   2.952  0.0703 -0.0109 -0.4645
12736TIP3    H259700   6.362   3.523   2.875  1.6440  2.1075 -1.3366
12737TIP3   OH259701   6.698   3.217   3.433 -0.2910 -0.0821 -0.3955
12737TIP3    H159702   6.715   3.191   3.343 -1.1513 -1.1034 -0.2801
12737TIP3    H259703   6.694   3.135   3.482  0.9935  0.4990  0.7398
12738TIP3   OH259704   0.781   5.381  16.670 -0.0805  0.0253  0.4883
12738TIP3    H159705   0.716   5.429  16.620  0.6037  2.2818  1.6334
12738TIP3    H259706   0.822   5.447  16.726  1.2638 -1.8228  1.8164
12739TIP3   OH259707   4.660   5.944  17.093  0.1426  0.2748  0.3459
12739TIP3    H159708   4.700   5.899  17.167  0.1459 -1.7348 -0.8084
12739TIP3    H259709   4.626   6.026  17.130  0.5561 -0.4469  2.4410
12740TIP3   OH259710   2.605   3.169  16.695  0.3619 -0.1825  0.4427
12740TIP3    H159711   2.641   3.241  16.643 -0.1867 -0.7400 -0.7267
12740TIP3    H259712   2.678   3.109  16.707  0.3459 -0.3172 -0.1477
12741TIP3   OH259713   3.532   6.110   5.533  0.2782  0.5633  0.4553
12741TIP3    H159714   3.571   6.198   5.527  0.1454  0.5327 -1.3128
12741TIP3    H259715   3.601   6.057   5.574  0.6555  1.3085  0.8221
12742TIP3   OH259716   6.406   4.294  13.909 -0.0541  0.2304  0.0879
12742TIP3    H159717   6.429   4.368  13.965 -0.2461  1.3557 -1.2698
12742TIP3    H259718   6.372   4.334  13.829 -0.5045 -1.3371 -0.5429
12743TIP3   OH259719   1.881   2.210   1.784 -0.2301 -0.5448 -0.1646
12743TIP3    H159720   1.822   2.265   1.732  0.6616 -0.6929 -1.3730
12743TIP3    H259721   1.952   2.188   1.724  0.8252 -0.7550  1.1318
12744TIP3   OH259722   0.409   4.344  11.528  0.2586  0.0707 -0.7632
12744TIP3    H159723   0.479   4.289  11.562  0.9503  0.1519 -1.9976
12744TIP3    H259724   0.345   4.282  11.492 -1.2032 -0.0855  1.9219
12745TIP3   OH259725   5.410   2.959  14.473  0.2905 -0.7752  0.2247
12745TIP3    H159726   5.381   3.050  14.468 -0.0078 -0.9299 -1.5870
12745TIP3    H259727   5.432   2.945  14.565  0.0603  1.0360  0.5802
12746TIP3   OH259728   0.854   3.231   4.010 -0.2323  0.1098 -0.5049
12746TIP3    H159729   0.916   3.280   3.955  0.0458 -1.3530 -1.5604
12746TIP3    H259730   0.828   3.156   3.956 -0.6835 -0.8881  1.0270
12747TIP3   OH259731   0.589   1.084   1.491  0.4206 -0.2748 -0.0268
12747TIP3    H159732   0.587   1.120   1.402  1.3732  1.8576  0.7566
12747TIP3    H259733   0.592   0.989   1.478  0.1983 -0.0402 -2.2491
12748TIP3   OH259734   0.856   6.380  15.496  0.4974 -0.0516  0.0218
12748TIP3    H159735   0.945   6.378  15.462  0.3126 -0.3141 -0.4638
12748TIP3    H259736   0.865   6.367  15.590  0.7607 -4.2214 -0.4197
12749TIP3   OH259737   5.501   3.117  14.901 -0.9059  0.4589  0.1462
12749TIP3    H159738   5.495   3.155  14.813 -2.8428  0.1200  0.1014
12749TIP3    H259739   5.577   3.160  14.940 -1.5881  2.6187 -0.7570
12750TIP3   OH259740   6.632   1.716   5.482 -0.4922  0.3369  0.1152
12750TIP3    H159741   6.656   1.794   5.530 -2.0829 -0.4319  2.3501
12750TIP3    H259742   6.708   1.659   5.487  0.3561  1.3559 -0.7745
12751TIP3   OH259743   4.890   4.902  13.795 -0.0389  0.4433  0.5705
12751TIP3    H159744   4.825   4.877  13.862  0.1456  1.3706  1.1121
12751TIP3    H259745   4.973   4.901  13.842  0.5747 -2.0057 -0.4149
12752TIP3   OH259746   4.938   4.085   5.785 -0.0646  0.0024  0.5151
12752TIP3    H159747   5.010   4.148   5.778 -1.0061  1.1313  0.8419
12752TIP3    H259748   4.903   4.080   5.696 -1.6457  1.9663  0.9675
12753TIP3   OH259749   6.673   0.077  13.599  0.1465  0.7053 -0.0826
12753TIP3    H159750   6.603   0.018  13.571  0.3508 -0.3978  1.5904
12753TIP3    H259751   6.632   0.163  13.601 -0.4300  0.4886 -1.6373
12754TIP3   OH259752   1.809   5.219  12.772 -0.4356 -0.1959  0.2355
12754TIP3    H159753   1.720   5.239  12.743  0.4614  1.0634 -1.9244
12754TIP3    H259754   1.852   5.185  12.693  1.6142  1.4323  0.5650
12755TIP3   OH259755   3.765   2.923   6.250 -0.4169  0.3297  0.3349
12755TIP3    H159756   3.804   3.008   6.230 -0.7209  0.3019 -0.4150
12755TIP3    H259757   3.671   2.940   6.250 -0.4776 -0.0117  0.1582
12756TIP3   OH259758   6.634   0.128  10.579  0.4096 -0.4885 -0.5833
12756TIP3    H159759   6.593   0.100  10.497  0.1138  1.0528 -0.9922
12756TIP3    H259760   6.560   0.140  10.639  0.4018  0.6134 -0.7987
12757TIP3   OH259761   5.188   2.440   5.628 -0.1508 -0.6862 -0.4457
12757TIP3    H159762   5.267   2.405   5.587  0.0524  0.9150 -1.5335
12757TIP3    H259763   5.214   2.528   5.657 -1.4992 -0.1725 -0.7509
12758TIP3   OH259764   1.615   3.130   2.754  0.3608  0.3002  0.0179
12758TIP3    H159765   1.591   3.057   2.812  1.3370 -0.8539 -0.9800
12758TIP3    H259766   1.532   3.156   2.713  0.2356 -1.5321 -1.0160
12759TIP3   OH259767   1.593   1.477  13.062 -0.1785  0.0887  0.3503
12759TIP3    H159768   1.588   1.573  13.056 -1.0068 -0.0378 -2.2749
12759TIP3    H259769   1.638   1.451  12.981 -4.6629 -1.9545 -1.8146
12760TIP3   OH259770   6.202   3.586  14.967  0.1021 -0.7121 -1.3854
12760TIP3    H159771   6.261   3.546  15.030  0.6531  0.7074 -0.9667
12760TIP3    H259772   6.257   3.645  14.915 -1.0447  1.4808 -0.2732
12761TIP3   OH259773   2.760   0.165   1.040 -0.2027  0.3333 -0.2330
12761TIP3    H159774   2.782   0.073   1.053  2.4953  1.2710  3.6682
12761TIP3    H259775   2.709   0.189   1.118  0.1856  2.3792 -0.5544
12762TIP3   OH259776   2.410   6.344   0.105  0.2374  0.0523  0.0235
12762TIP3    H159777   2.440   6.330   0.015 -0.3493 -1.0494 -0.0139
12762TIP3    H259778   2.464   6.286   0.158  0.1798  0.2634  0.3153
12763TIP3   OH259779   3.000   5.886   2.667  0.1610  0.7866  0.1451
12763TIP3    H159780   3.052   5.855   2.593  0.8001 -1.5159  1.4498
12763TIP3    H259781   3.047   5.853   2.744 -1.0341  2.2119  1.5435
12764TIP3   OH259782   2.285   5.785   0.525  0.6181  0.3283  0.6005
12764TIP3    H159783   2.325   5.870   0.507  0.5389  0.2707  0.1324
12764TIP3    H259784   2.204   5.806   0.572  1.1205  0.4523  1.4386
12765TIP3   OH259785   0.857   4.543  13.973  0.1476 -0.4266 -0.3698
12765TIP3    H159786   0.823   4.600  13.905 -1.1159 -0.4915  0.1817
12765TIP3    H259787   0.827   4.582  14.055 -0.8609 -1.9267  0.0129
12766TIP3   OH259788   5.711   3.362   0.429 -0.2561 -0.5357 -0.6798
12766TIP3    H159789   5.760   3.367   0.511 -0.4734 -0.1718 -0.5696
12766TIP3    H259790   5.666   3.447   0.422 -0.6440 -0.7544 -0.9169
12767TIP3   OH259791   5.395   1.574  11.378  0.3503  0.3270  0.1876
12767TIP3    H159792   5.444   1.492  11.364  1.8538  1.1255  0.4925
12767TIP3    H259793   5.325   1.572  11.313  1.9501 -0.0113 -1.6069
12768TIP3   OH259794   1.456   5.658  15.578  0.5276  0.1153  0.1026
12768TIP3    H159795   1.544   5.689  15.599  0.3437  0.4212  0.4244
12768TIP3    H259796   1.439   5.693  15.490 -0.5420  2.8500  1.3151
12769TIP3   OH259797   4.861   3.779   4.961 -0.2158  0.1649  0.2693
12769TIP3    H159798   4.846   3.735   4.877 -1.9767  0.5733  0.3304
12769TIP3    H259799   4.898   3.711   5.017  2.2800  0.2231 -1.1758
12770TIP3   OH259800   6.186   5.618  16.196 -0.2055  0.1762  0.3811
12770TIP3    H159801   6.172   5.590  16.287 -2.1632  1.1764  0.4296
12770TIP3    H259802   6.100   5.613  16.156  0.2695  1.5934 -0.8913
12771TIP3   OH259803   1.754   2.977   5.769 -0.1150  0.5179  0.0631
12771TIP3    H159804   1.680   3.035   5.789  0.1482  1.1116 -0.6539
12771TIP3    H259805   1.730   2.934   5.687  0.4847  0.9740 -0.3585
12772TIP3   OH259806   1.117   4.168  12.076 -0.1046 -0.0244  0.4618
12772TIP3    H159807   1.102   4.156  12.170 -1.3758 -0.1209  0.2638
12772TIP3    H259808   1.094   4.084  12.037 -0.5179  0.3178 -0.0411
12773TIP3   OH259809   6.589   0.361   5.834 -0.2326  0.0582  0.6086
12773TIP3    H159810   6.504   0.393   5.863 -0.0386 -0.0466  1.2959
12773TIP3    H259811   6.586   0.266   5.849  0.1224  0.0961  0.9497
12774TIP3   OH259812   1.968   2.544  12.014  0.3517  0.7226  0.1110
12774TIP3    H159813   2.039   2.516  12.071  0.3310  2.7235  1.2237
12774TIP3    H259814   2.012   2.569  11.932  0.5011 -1.1578 -0.4208
12775TIP3   OH259815   1.340   3.209   2.675  0.1286  0.0612 -0.7175
12775TIP3    H159816   1.283   3.233   2.602  0.0213  0.0250 -0.6452
12775TIP3    H259817   1.315   3.119   2.697  0.1841  0.0600 -0.6583
12776TIP3   OH259818   0.343   5.541   5.872  0.2975 -0.0165 -0.1658
12776TIP3    H159819   0.262   5.561   5.825  0.3358 -1.5851 -0.9926
12776TIP3    H259820   0.403   5.510   5.803  1.4243  0.6088  0.5104
12777TIP3   OH259821   2.315   6.469  15.419  0.4375  0.1712 -0.3289
12777TIP3    H159822   2.294   6.435  15.506 -0.7876 -0.1810 -0.7492
12777TIP3    H259823   2.301   6.395  15.361  2.0692  0.1543 -0.7555
12778TIP3   OH259824   2.677   1.682   2.380  0.8378  0.5590 -0.0779
12778TIP3    H159825   2.699   1.761   2.332 -1.3275 -0.0915 -2.3279
12778TIP3    H259826   2.746   1.620   2.358  2.3633  1.6178  1.4393
12779TIP3   OH259827   6.595   5.221   5.868 -0.2225 -0.3160  0.1131
12779TIP3    H159828   6.566   5.197   5.780  1.2100  0.9723 -0.7576
12779TIP3    H259829   6.521   5.267   5.906 -0.5653 -0.1464 -0.7413
12780TIP3   OH259830   3.666   0.057   1.025  0.3887 -0.3434  0.0373
12780TIP3    H159831   3.731   0.020   1.085  0.6236  0.4843  0.3057
12780TIP3    H259832   3.594   0.084   1.082  0.4910  0.1840 -0.0762
12781TIP3   OH259833   0.341   6.352  11.874 -0.4768 -0.1986  0.1255
12781TIP3    H159834   0.247   6.352  11.854 -0.8959 -0.8929  1.8824
12781TIP3    H259835   0.369   6.262  11.856 -0.0401  0.0991 -0.7493
12782TIP3   OH259836   5.376   2.376  11.520 -0.3849  0.3439 -0.4072
12782TIP3    H159837   5.333   2.417  11.595  0.6090  0.6311  0.0246
12782TIP3    H259838   5.469   2.397  11.531  0.3554 -2.7552  0.3636
12783TIP3   OH259839   0.641   0.676  15.375  0.3634 -0.6553  0.1655
12783TIP3    H159840   0.674   0.588  15.356  2.3083 -0.6321  2.8414
12783TIP3    H259841   0.595   0.668  15.458 -0.1173  0.7313  0.0655
12784TIP3   OH259842   2.094   6.728   4.617 -1.2243  0.6320  0.6601
12784TIP3    H159843   2.067   6.676   4.693 -0.4496 -2.7444 -1.1801
12784TIP3    H259844   2.012   6.747   4.571 -1.3850 -1.0705  0.1719
12785TIP3   OH259845   1.033   1.091  17.547  0.5971 -0.1388 -0.0779
12785TIP3    H159846   0.980   1.095  17.467  2.0742 -0.3487 -1.1099
12785TIP3    H259847   0.992   1.154  17.606 -1.3634 -0.9935 -0.4525
12786TIP3   OH259848   1.848   2.558  15.147 -0.0497 -0.1218  0.1889
12786TIP3    H159849   1.827   2.609  15.069 -2.1018  0.7474  1.2127
12786TIP3    H259850   1.879   2.623  15.210 -0.2878 -0.5099  0.7150
12787TIP3   OH259851   3.144   0.894   3.313  0.7908 -0.1582 -0.8325
12787TIP3    H159852   3.072   0.847   3.356 -0.2622  1.5825 -0.6041
12787TIP3    H259853   3.207   0.908   3.383 -1.0854  3.0065  0.4326
12788TIP3   OH259854   1.841   6.712  12.985 -0.3129  0.1097 -0.6862
12788TIP3    H159855   1.853   6.803  13.012  0.9586 -0.4811  0.8091
12788TIP3    H259856   1.854   6.714  12.890  0.4287  1.3790 -0.5814
12789TIP3   OH259857   6.028   4.119   4.975 -0.0640  0.0124 -0.0433
12789TIP3    H159858   6.113   4.150   4.942  0.2339 -0.0186  0.6717
12789TIP3    H259859   5.964   4.157   4.915  0.2837  2.0284  0.7761
12790TIP3   OH259860   1.490   2.642  12.861 -0.0718 -0.5764  0.0343
12790TIP3    H159861   1.465   2.709  12.797  1.3649  0.2750  0.3201
12790TIP3    H259862   1.432   2.568  12.842 -2.1986  0.9529  0.1673
12791TIP3   OH259863   4.432   0.658  12.500 -0.0879 -0.4254  0.0211
12791TIP3    H159864   4.521   0.693  12.494  0.3609 -1.7927 -2.3154
12791TIP3    H259865   4.378   0.720  12.451  0.0274 -0.8841 -0.6998
12792TIP3   OH259866   3.144   3.866  13.295 -0.2787  0.4475  0.2412
12792TIP3    H159867   3.079   3.936  13.301 -1.0350  0.0915 -2.4679
12792TIP3    H259868   3.095   3.786  13.316  0.3229  0.5539  2.2350
12793TIP3   OH259869   5.004   4.046  16.349 -0.3648  0.3867  0.2893
12793TIP3    H159870   5.043   4.130  16.374  0.5823  0.2324 -0.5781
12793TIP3    H259871   5.041   3.982  16.410 -0.5920  0.4974  0.5448
12794TIP3   OH259872   5.919   0.448  13.332 -0.2421 -0.2444  0.4116
12794TIP3    H159873   5.873   0.499  13.266 -2.6846  0.2376  2.3114
12794TIP3    H259874   5.872   0.365  13.335  0.7884 -0.8395  0.5195
12795TIP3   OH259875   5.625   0.490   3.559  0.1992  0.4605  0.3167
12795TIP3    H159876   5.625   0.453   3.470  0.0633  1.0248  0.0765
12795TIP3    H259877   5.599   0.417   3.615  2.4517 -0.5099  0.1756
12796TIP3   OH259878   3.980   4.387  13.145  0.1058  0.0035  0.0472
12796TIP3    H159879   4.053   4.423  13.095 -0.0362 -1.0933 -0.9953
12796TIP3    H259880   4.017   4.367  13.231  0.8403  0.1208 -0.2374
12797TIP3   OH259881   0.895   3.789   4.027  0.0465  0.5657  0.0797
12797TIP3    H159882   0.927   3.848   3.959  1.6489 -1.3263 -0.9081
12797TIP3    H259883   0.834   3.731   3.981  0.8230 -0.4556  0.2989
12798TIP3   OH259884   0.006   4.278  13.212 -0.2122 -0.8939 -0.2008
12798TIP3    H159885   0.089   4.326  13.217 -0.7927  0.1545 -0.4334
12798TIP3    H259886  -0.015   4.260  13.304 -0.6339  0.4681  0.0002
12799TIP3   OH259887   2.681   2.494  16.946  0.1347  0.1888  0.2483
12799TIP3    H159888   2.608   2.480  16.885 -0.3496 -0.8050  1.0258
12799TIP3    H259889   2.639   2.511  17.030  0.8046  0.1591  0.5940
12800TIP3   OH259890   3.277   6.409   3.159  0.2271 -0.3624 -0.2440
12800TIP3    H159891   3.269   6.482   3.098  0.6294 -0.2347 -0.1489
12800TIP3    H259892   3.359   6.365   3.133  1.2617  0.6154  1.1723
12801TIP3   OH259893   2.969   5.137  16.695 -0.7265  0.0180 -0.0200
12801TIP3    H159894   2.892   5.082  16.678 -0.1956 -0.5631 -0.6023
12801TIP3    H259895   3.010   5.097  16.772 -0.6012 -0.1321 -0.1612
12802TIP3   OH259896   1.386   4.825  12.955 -0.0350 -0.4934  0.6833
12802TIP3    H159897   1.453   4.767  12.920  2.0535  1.4983  1.1074
12802TIP3    H259898   1.309   4.810  12.900  0.6943 -2.9342  0.2257
12803TIP3   OH259899   1.191   6.608  16.833 -0.1039 -0.6018 -0.7942
12803TIP3    H159900   1.163   6.534  16.887  1.5151 -0.2513  0.6298
12803TIP3    H259901   1.286   6.613  16.847  0.0470  0.8281 -2.0470
12804TIP3   OH259902   4.409   2.955   5.783 -0.0897 -0.1739 -0.7611
12804TIP3    H159903   4.477   3.011   5.745  0.1388 -0.9585 -1.5434
12804TIP3    H259904   4.336   2.960   5.720 -0.1926 -0.5010 -0.6662
12805TIP3   OH259905   4.255   1.413   6.652  0.1431  0.2873 -0.3514
12805TIP3    H159906   4.215   1.375   6.574 -2.3700 -0.9731  1.4192
12805TIP3    H259907   4.206   1.494   6.666 -0.3490 -0.1634  0.6200
12806TIP3   OH259908   3.791   5.203   0.208 -0.0691 -0.0662 -0.2815
12806TIP3    H159909   3.849   5.239   0.275 -1.1262 -0.0810  0.6698
12806TIP3    H259910   3.704   5.232   0.233 -0.5302 -0.3084 -1.5088
12807TIP3   OH259911   0.152   5.761   1.358 -0.0912 -0.0867 -0.3786
12807TIP3    H159912   0.119   5.680   1.396 -2.0915 -0.1270 -2.0443
12807TIP3    H259913   0.146   5.825   1.429 -0.7998 -0.8469  0.2627
12808TIP3   OH259914   0.328   2.435  11.435 -0.1331 -0.1599  0.0348
12808TIP3    H159915   0.268   2.438  11.361  1.3829 -0.9744 -1.2941
12808TIP3    H259916   0.410   2.401  11.399  0.7633 -0.2990  2.0256
12809TIP3   OH259917   1.636   3.629   2.897  0.4181  0.1437  0.7759
12809TIP3    H159918   1.619   3.546   2.942 -0.8895  0.4513  0.9190
12809TIP3    H259919   1.557   3.681   2.915  0.4260  0.7512 -0.7964
12810TIP3   OH259920   4.691   2.961  17.569  0.3222  0.1825  0.0085
12810TIP3    H159921   4.634   2.892  17.535 -0.2438  0.4944  0.3177
12810TIP3    H259922   4.772   2.915  17.592  0.9140  0.0140 -2.1404
12811TIP3   OH259923   0.706   6.066   2.587  0.1040 -1.3615  0.0554
12811TIP3    H159924   0.708   6.162   2.581 -1.8386 -1.2628  0.3827
12811TIP3    H259925   0.694   6.049   2.680  0.0945 -1.9177 -0.0466
12812TIP3   OH259926   0.294   4.992  14.329 -0.0900  0.3664  0.4381
12812TIP3    H159927   0.306   4.992  14.234  0.5639 -0.9403  0.4939
12812TIP3    H259928   0.323   4.905  14.357 -2.4344 -0.1172  1.5839
12813TIP3   OH259929   2.569   6.553   5.727  0.4526 -0.9870  0.2513
12813TIP3    H159930   2.538   6.569   5.638  2.1616  1.7358  0.0238
12813TIP3    H259931   2.635   6.484   5.718  0.5098 -0.8366 -0.5856
12814TIP3   OH259932   2.097   3.542   6.362  0.1502  0.6666  0.1090
12814TIP3    H159933   2.046   3.541   6.443  1.0982  1.1329  0.7319
12814TIP3    H259934   2.084   3.630   6.327 -0.9091  0.2056 -0.6806
12815TIP3   OH259935   4.437   2.985  12.106 -0.3362 -0.0801  0.2696
12815TIP3    H159936   4.404   3.058  12.054  1.6111 -1.1766 -2.7847
12815TIP3    H259937   4.396   2.908  12.067 -2.4485 -0.8041  3.5021
12816TIP3   OH259938   5.068   0.007  11.514 -0.0400 -0.3130  0.2975
12816TIP3    H159939   5.051   0.011  11.420  3.8565  0.1012 -0.5532
12816TIP3    H259940   5.060  -0.086  11.536 -1.0063 -0.4054 -0.3964
12817TIP3   OH259941   0.817   4.503  12.321  0.6013  0.1863  0.3250
12817TIP3    H159942   0.909   4.527  12.332  0.4129  0.8135  0.5760
12817TIP3    H259943   0.820   4.419  12.275  1.3106 -0.1408  0.9461
12818TIP3   OH259944   6.702   0.615   4.356  0.2904  0.1545  0.1206
12818TIP3    H159945   6.672   0.702   4.331  0.1533  0.2888  0.7460
12818TIP3    H259946   6.755   0.629   4.434  1.6133 -0.1356 -0.6937
12819TIP3   OH259947   5.153   0.857   2.882 -0.4020  0.4173 -0.6116
12819TIP3    H159948   5.068   0.815   2.872 -0.9312  0.8926  1.3902
12819TIP3    H259949   5.146   0.907   2.963  2.2372 -0.7566  0.4864
12820TIP3   OH259950   2.020   3.083  15.622  0.0166 -0.1428 -0.3332
12820TIP3    H159951   2.043   2.990  15.624 -2.9211 -1.1276 -3.2046
12820TIP3    H259952   2.084   3.122  15.562  0.6390 -0.4745  0.0984
12821TIP3   OH259953   1.356   1.827   3.228 -0.0110  0.6450  0.0216
12821TIP3    H159954   1.330   1.735   3.231 -0.8283  0.8816  0.8725
12821TIP3    H259955   1.332   1.855   3.140 -0.5003  0.2460  0.0201
12822TIP3   OH259956   5.418   3.864   3.277 -0.5354 -0.3552 -0.1370
12822TIP3    H159957   5.373   3.946   3.260 -0.0234 -0.3993 -1.9212
12822TIP3    H259958   5.495   3.889   3.329 -0.3828  0.2913 -0.6669
12823TIP3   OH259959   4.200   0.802  12.821  0.4988  0.3684 -0.0217
12823TIP3    H159960   4.186   0.728  12.761 -0.3787  0.0555  0.5523
12823TIP3    H259961   4.280   0.779  12.868 -0.6358 -1.0645  1.3311
12824TIP3   OH259962   2.537   0.761   2.123  0.6158 -0.1541 -0.0878
12824TIP3    H159963   2.562   0.712   2.201  1.4501  0.7541  0.2367
12824TIP3    H259964   2.583   0.845   2.131 -1.3013  0.9843 -0.2564
12825TIP3   OH259965   1.425   2.246   4.943 -0.3583 -0.0242  0.2516
12825TIP3    H159966   1.368   2.215   4.872  0.0909 -2.4023  0.8460
12825TIP3    H259967   1.514   2.236   4.909 -0.0196 -2.9756  1.6504
12826TIP3   OH259968   0.711   1.388  16.881  0.0847  0.0284 -0.2588
12826TIP3    H159969   0.687   1.338  16.959  0.6680  0.1548  0.0022
12826TIP3    H259970   0.754   1.324  16.824  1.9815  0.4829  0.6004
12827TIP3   OH259971   4.828   0.989   1.315  0.1909 -0.1100 -0.0981
12827TIP3    H159972   4.920   0.967   1.332  0.2919 -0.0597 -0.5764
12827TIP3    H259973   4.824   1.006   1.221 -0.5105 -1.0291 -0.2404
12828TIP3   OH259974   2.191   3.046  13.423 -0.3558  0.3934 -0.0105
12828TIP3    H159975   2.137   3.070  13.498 -0.8754  1.1481 -0.6157
12828TIP3    H259976   2.146   3.083  13.347  1.0206  1.1012 -0.5219
12829TIP3   OH259977   1.144   5.745  16.074  0.4074 -0.2378  0.5697
12829TIP3    H159978   1.116   5.828  16.035 -1.1336 -1.2620 -0.6442
12829TIP3    H259979   1.072   5.720  16.131  0.8396 -0.7680  0.8946
12830TIP3   OH259980   5.022   4.039  15.968  0.0817  0.0891 -0.2733
12830TIP3    H159981   4.983   3.975  15.908  0.2594  1.9442 -2.4698
12830TIP3    H259982   4.950   4.066  16.024 -0.1047 -1.6164  0.3869
12831TIP3   OH259983   5.406   0.017  11.344  0.1851 -0.0227  1.0124
12831TIP3    H159984   5.494   0.048  11.365  1.5173 -2.2551 -0.7480
12831TIP3    H259985   5.396  -0.064  11.394 -0.3711 -0.3952  0.3309
12832TIP3   OH259986   6.487   4.478   0.936 -0.5359  0.0513  0.0974
12832TIP3    H159987   6.546   4.543   0.897 -0.6727 -0.0010 -0.2014
12832TIP3    H259988   6.530   4.452   1.017 -0.9053  1.1738  0.6717
12833TIP3   OH259989   4.271   0.476   2.412 -0.2381  0.6056  0.6891
12833TIP3    H159990   4.255   0.541   2.344 -0.2627  0.6182  0.7069
12833TIP3    H259991   4.364   0.485   2.433 -0.1781  0.4470  0.4976
12834TIP3   OH259992   3.316   4.658   1.508 -0.2881 -0.0443 -0.2747
12834TIP3    H159993   3.306   4.625   1.419  0.8669 -2.2896  0.3418
12834TIP3    H259994   3.365   4.589   1.554  1.2965  2.0991  1.4691
12835TIP3   OH259995   5.275   2.637   2.097 -0.5413 -0.4351  0.1473
12835TIP3    H159996   5.345   2.702   2.107 -0.3094 -0.9286  2.1864
12835TIP3    H259997   5.321   2.554   2.083 -0.6207 -0.9159  2.4068
12836TIP3   OH259998   3.803   1.763  11.813  0.0468  0.8081 -0.3243
12836TIP3    H159999   3.850   1.749  11.895 -0.0232 -0.5567 -0.4997
12836TIP3    H260000   3.738   1.830  11.834  0.6254  1.1310  0.4900
12837TIP3   OH260001   2.687   6.196   4.169  0.2418 -0.2026  0.4121
12837TIP3    H160002   2.615   6.236   4.120  0.1310 -0.2790  0.5110
12837TIP3    H260003   2.650   6.179   4.256 -0.1614 -1.8382 -0.0475
12838TIP3   OH260004   5.558   5.624   4.586  0.9322  0.1994 -0.3052
12838TIP3    H160005   5.591   5.680   4.515 -0.8401 -0.6891 -1.9259
12838TIP3    H260006   5.464   5.617   4.569  0.7883 -1.6615  0.9745
12839TIP3   OH260007   0.991   6.627  15.240 -0.9155 -0.3317 -0.1649
12839TIP3    H160008   0.944   6.633  15.157 -0.9174 -1.0010 -0.2165
12839TIP3    H260009   0.923   6.630  15.307 -0.9128  0.2204 -0.1811
12840TIP3   OH260010   6.309   1.720  17.379  0.4052 -0.4848 -0.5780
12840TIP3    H160011   6.403   1.713  17.398  0.3194 -0.3662 -0.1106
12840TIP3    H260012   6.266   1.696  17.460  0.0109 -1.3830 -1.0428
12841TIP3   OH260013   6.036   0.562  16.256 -0.2649 -0.0228  0.4314
12841TIP3    H160014   6.090   0.488  16.229 -0.7010  0.0638 -0.7434
12841TIP3    H260015   6.041   0.562  16.352  1.0182 -0.5922  0.3811
12842TIP3   OH260016   6.055   4.465  17.599  0.0311  0.1650 -0.5510
12842TIP3    H160017   6.029   4.552  17.630 -3.5891 -0.4781 -1.3348
12842TIP3    H260018   6.089   4.481  17.511  0.0838  0.8524 -0.4154
12843TIP3   OH260019   2.337   2.141   0.945  0.6745 -0.2655  0.0671
12843TIP3    H160020   2.281   2.065   0.931 -0.3407  0.4946 -0.1620
12843TIP3    H260021   2.350   2.144   1.039  1.1270 -0.9949  0.0347
12844TIP3   OH260022   6.531   2.010   6.414  0.2722  0.0632 -0.6244
12844TIP3    H160023   6.610   1.979   6.458  1.0374  1.9539 -0.5488
12844TIP3    H260024   6.514   1.946   6.345  0.0122 -2.0721  1.3310
12845TIP3   OH260025   3.234   5.694   4.280 -0.4057 -0.1114 -0.1998
12845TIP3    H160026   3.320   5.652   4.281 -0.3484 -0.1001  2.5814
12845TIP3    H260027   3.243   5.770   4.338 -1.9232  0.7341 -1.0034
12846TIP3   OH260028   3.374   1.406  16.440 -0.7505 -0.3951  0.2891
12846TIP3    H160029   3.360   1.491  16.397  1.6573 -0.6546 -1.1939
12846TIP3    H260030   3.458   1.376  16.406  0.3640 -1.6192  3.7217
12847TIP3   OH260031   3.790   0.575   1.642  0.3181 -0.8238  0.1068
12847TIP3    H160032   3.698   0.549   1.639 -0.6365  2.0326  1.0792
12847TIP3    H260033   3.818   0.551   1.730 -0.2663  0.4195  0.6599
12848TIP3   OH260034   6.533   2.461   1.379 -0.2326  0.4065 -0.9096
12848TIP3    H160035   6.494   2.509   1.306 -1.8628  0.5619  0.0060
12848TIP3    H260036   6.513   2.514   1.456 -1.1069 -1.1362 -0.0104
12849TIP3   OH260037   5.012   2.893   5.030 -0.2504 -0.3505 -0.2079
12849TIP3    H160038   5.084   2.936   4.984 -0.0529  1.2848  1.5116
12849TIP3    H260039   5.051   2.815   5.069  0.8901  1.0079  1.4963
12850TIP3   OH260040   5.351   6.088  15.844  0.1447 -0.0411 -0.4483
12850TIP3    H160041   5.419   6.121  15.903 -0.7655  0.6733  0.2259
12850TIP3    H260042   5.341   6.156  15.778 -0.0549 -0.0458 -0.4254
12851TIP3   OH260043   1.637   2.892  14.054  0.4414  0.3934  0.5660
12851TIP3    H160044   1.714   2.898  14.111  0.7911 -0.9739  0.2891
12851TIP3    H260045   1.613   2.799  14.057 -0.0285  0.4450 -0.8785
12852TIP3   OH260046   1.975   0.714   2.874 -0.4531 -0.0331  0.1509
12852TIP3    H160047   2.037   0.643   2.894 -0.5868 -0.7319 -1.7211
12852TIP3    H260048   2.027   0.779   2.828 -0.2849  1.2572  2.0519
12853TIP3   OH260049   4.896   4.748  15.144 -0.0332  0.4202  0.5352
12853TIP3    H160050   4.912   4.694  15.221 -1.1268 -0.7776 -0.0287
12853TIP3    H260051   4.911   4.838  15.173  1.4238 -0.1455  1.6159
12854TIP3   OH260052   3.995   3.939   1.114 -0.2190 -0.3649  0.3681
12854TIP3    H160053   3.949   3.989   1.047 -1.1919 -1.3182  0.2838
12854TIP3    H260054   3.976   3.847   1.092  0.0119 -0.7127  1.5447
12855TIP3   OH260055   1.244   0.992  14.877  0.0358  0.2257  0.8111
12855TIP3    H160056   1.173   1.044  14.842 -1.5278 -0.3227  2.9337
12855TIP3    H260057   1.207   0.949  14.954  2.1690 -1.4826  1.0045
12856TIP3   OH260058   4.076   5.783   2.892 -0.1658 -0.2426  0.5252
12856TIP3    H160059   4.085   5.833   2.811 -0.6671  1.1311  1.2943
12856TIP3    H260060   4.125   5.832   2.957 -1.0936 -0.4559  1.4204
12857TIP3   OH260061   0.825   3.917   3.507  0.4133  0.0974  0.1950
12857TIP3    H160062   0.886   3.943   3.438  2.0724  0.5219  1.7759
12857TIP3    H260063   0.818   3.822   3.499 -0.0995  0.2222 -1.0797
12858TIP3   OH260064   0.978   6.652   4.896 -0.0191  0.4785  0.0092
12858TIP3    H160065   0.923   6.575   4.884  0.8753 -0.3047  0.8038
12858TIP3    H260066   0.919   6.719   4.929 -0.9621  0.3842 -1.3883
12859TIP3   OH260067   6.076   0.131  17.399 -0.5352  0.2034 -0.5286
12859TIP3    H160068   6.056   0.059  17.459 -2.0877  0.6535 -0.4565
12859TIP3    H260069   5.992   0.176  17.387  0.0703  1.0542 -1.8136
12860TIP3   OH260070   5.734   1.429  11.058  0.2358  0.3254 -0.4650
12860TIP3    H160071   5.666   1.363  11.051  0.9444 -0.6166  0.9851
12860TIP3    H260072   5.711   1.495  10.993 -0.1038 -1.6929 -2.5189
12861TIP3   OH260073   5.574   4.708   0.559  0.3141  0.1844 -0.0805
12861TIP3    H160074   5.587   4.701   0.653 -0.1310 -0.4666 -0.0609
12861TIP3    H260075   5.526   4.790   0.547  1.3135  0.8262  0.1483
12862TIP3   OH260076   1.386   2.078   3.359  0.5592 -0.2798 -0.5321
12862TIP3    H160077   1.396   1.993   3.316  1.8492  0.4299 -1.7113
12862TIP3    H260078   1.435   2.068   3.441  0.5439 -0.7319 -0.5719
12863TIP3   OH260079   3.311   4.007  15.807 -0.3230  0.1596  0.0009
12863TIP3    H160080   3.317   3.922  15.764 -0.5330 -0.3965  1.0422
12863TIP3    H260081   3.354   4.067  15.747 -0.5221 -0.6066 -0.9328
12864TIP3   OH260082   0.230   1.033   4.760 -0.5001  0.6598 -0.5841
12864TIP3    H160083   0.296   1.027   4.830  0.3726  1.9632 -1.2548
12864TIP3    H260084   0.269   0.986   4.687 -1.0916 -0.0533 -0.4576
12865TIP3   OH260085   4.954   1.208   5.893 -0.2629  0.0733 -0.1005
12865TIP3    H160086   4.945   1.137   5.957 -1.9883 -2.2442 -2.7112
12865TIP3    H260087   5.041   1.194   5.854 -0.3113 -0.1578 -0.1239
12866TIP3   OH260088   1.955   1.352  14.138 -0.2129 -0.4806  0.1435
12866TIP3    H160089   1.870   1.381  14.104 -0.2335 -0.4850  0.1912
12866TIP3    H260090   1.933   1.281  14.198 -0.2168 -0.1358  0.5534
12867TIP3   OH260091   2.242   3.356  14.808 -0.2391 -0.1628  0.4198
12867TIP3    H160092   2.155   3.317  14.821  0.5387 -2.1844  0.0327
12867TIP3    H260093   2.251   3.363  14.713 -0.5499  1.5253  0.4835
12868TIP3   OH260094   0.663   0.164  17.061 -0.5325  0.7794 -0.0370
12868TIP3    H160095   0.751   0.166  17.025 -0.1252 -0.5391  0.8564
12868TIP3    H260096   0.667   0.220  17.139 -0.7341  1.4211 -0.4700
12869TIP3   OH260097   6.457   2.215   4.984 -0.0990 -0.1122  0.0228
12869TIP3    H160098   6.388   2.239   4.922  0.8910 -0.9778 -1.5054
12869TIP3    H260099   6.428   2.131   5.021 -1.2409  0.9551  1.6723
12870TIP3   OH260100   2.525   2.893   5.568 -1.0447  0.3552  0.5940
12870TIP3    H160101   2.474   2.833   5.515 -1.0299  0.1148  0.8500
12870TIP3    H260102   2.459   2.947   5.613 -1.1716 -1.0927  2.2780
12871TIP3   OH260103   6.502   2.937   4.035 -0.2230 -0.5426 -0.2718
12871TIP3    H160104   6.464   2.971   3.953 -1.9207 -1.5419  0.0641
12871TIP3    H260105   6.461   2.851   4.047  2.1228 -1.6766  0.1867
12872TIP3   OH260106   0.519   3.825   4.688  0.3050 -0.4827 -0.5849
12872TIP3    H160107   0.471   3.886   4.633 -0.2712 -0.2054  0.2139
12872TIP3    H260108   0.452   3.776   4.736  0.7926 -0.2148  0.4112
12873TIP3   OH260109   1.195   3.957  17.595 -0.5745  0.1893 -0.3793
12873TIP3    H160110   1.275   3.914  17.565 -0.9947  0.5922 -2.1915
12873TIP3    H260111   1.225   4.022  17.659  0.6184  0.6767 -1.3982
12874TIP3   OH260112   3.791   1.497   6.259 -0.3031 -0.1143  0.0919
12874TIP3    H160113   3.825   1.414   6.293  1.4646 -0.1060 -1.5280
12874TIP3    H260114   3.829   1.564   6.315  5.0590  0.1530 -3.1986
12875TIP3   OH260115   4.608   0.436  14.189 -0.1876  0.6382 -0.0376
12875TIP3    H160116   4.680   0.485  14.227  0.2408  1.0307 -1.3096
12875TIP3    H260117   4.597   0.361  14.247 -0.8926  2.2120  1.9862
12876TIP3   OH260118   5.350   4.646  13.084  0.2249 -0.4528 -0.2148
12876TIP3    H160119   5.433   4.614  13.117  0.5697 -0.5744 -1.1524
12876TIP3    H260120   5.296   4.567  13.074 -0.6026 -0.2267  1.8920
12877TIP3   OH260121   4.688   1.257   0.319  0.4450 -0.4080  0.4542
12877TIP3    H160122   4.641   1.329   0.275  0.8821 -1.3150 -1.5847
12877TIP3    H260123   4.777   1.290   0.330  0.5315 -0.4647 -0.0632
12878TIP3   OH260124   1.428   0.695   2.879  0.4198  0.4551 -0.0724
12878TIP3    H160125   1.385   0.686   2.964  1.4459  0.0080  0.4076
12878TIP3    H260126   1.456   0.606   2.857  0.0815  0.5479 -0.9308
12879TIP3   OH260127   2.786   1.151   5.412 -1.4376  0.5287  0.3098
12879TIP3    H160128   2.714   1.214   5.419 -0.9042  0.9641  2.8489
12879TIP3    H260129   2.815   1.138   5.502  3.6004  2.6525 -0.6796
12880TIP3   OH260130   0.424   6.601   3.680 -0.2028  0.2900  0.2039
12880TIP3    H160131   0.493   6.569   3.622  1.1743 -0.6211  2.2778
12880TIP3    H260132   0.460   6.595   3.768 -3.2373 -1.0546  1.4965
12881TIP3   OH260133   5.857   1.968   1.123  0.1911 -0.2032  0.3147
12881TIP3    H160134   5.897   2.036   1.177  0.8390 -1.5707  1.6224
12881TIP3    H260135   5.898   1.886   1.151 -1.0027 -1.2418 -0.7730
12882TIP3   OH260136   2.558   0.571   2.336  0.1143 -0.0439 -0.1901
12882TIP3    H160137   2.639   0.528   2.309  0.3302  1.0498 -1.3724
12882TIP3    H260138   2.580   0.614   2.419  0.2246 -1.2116  0.3976
12883TIP3   OH260139   4.052   4.942   2.140 -0.1406 -0.1473  0.0380
12883TIP3    H160140   4.129   4.907   2.184  0.4797  2.5618  1.2608
12883TIP3    H260141   3.978   4.896   2.180  0.6017  0.1521  1.7980
12884TIP3   OH260142   0.743   5.809   0.900  0.4738  0.0016 -0.4190
12884TIP3    H160143   0.688   5.759   0.960 -0.8629  0.1939 -1.4376
12884TIP3    H260144   0.807   5.852   0.956 -0.0535 -0.6788  0.7446
12885TIP3   OH260145   3.095   3.730   3.666  0.1012  0.0023  0.1127
12885TIP3    H160146   3.065   3.812   3.626  0.6958 -0.3712 -1.1539
12885TIP3    H260147   3.024   3.668   3.649 -0.9194  0.5325  2.1831
12886TIP3   OH260148   1.260   2.055   2.182  0.3818 -0.1417  0.4285
12886TIP3    H160149   1.247   1.961   2.174 -0.2808  0.1171 -2.6147
12886TIP3    H260150   1.333   2.074   2.123  0.6618  1.2514  1.1751
12887TIP3   OH260151   0.596   5.810   3.054  0.1018  0.5589  0.8133
12887TIP3    H160152   0.651   5.745   3.010 -0.0054  1.6681 -1.0889
12887TIP3    H260153   0.525   5.759   3.093 -0.8357 -0.4053 -1.9228
12888TIP3   OH260154   0.085   3.530   2.625 -0.0465  0.3113 -0.6561
12888TIP3    H160155  -0.000   3.569   2.604 -0.1539  0.0727 -0.6667
12888TIP3    H260156   0.140   3.605   2.648  0.2622  0.6583 -2.3951
12889TIP3   OH260157   3.396   4.268   6.954  0.5064 -0.4018  0.3874
12889TIP3    H160158   3.322   4.207   6.958  0.2969 -0.3168 -1.3571
12889TIP3    H260159   3.451   4.234   6.883  3.0266 -1.3788  2.6339
12890TIP3   OH260160   2.080   4.582  14.391 -0.0266  0.3386 -0.1578
12890TIP3    H160161   2.002   4.551  14.346 -0.4099  0.5652  0.3342
12890TIP3    H260162   2.098   4.668  14.352 -0.8704  0.9252  0.7008
12891TIP3   OH260163   0.165   4.791  16.941  0.1310  0.1718 -0.4020
12891TIP3    H160164   0.086   4.838  16.970  1.0364  0.9659  0.8411
12891TIP3    H260165   0.177   4.723  17.006  0.2119 -0.2668 -0.8691
12892TIP3   OH260166   4.072   2.832   0.384  0.1072 -0.7122 -0.2549
12892TIP3    H160167   4.128   2.755   0.371 -0.6694 -1.6074  1.4242
12892TIP3    H260168   3.985   2.804   0.357  0.0786  0.0707 -1.0341
12893TIP3   OH260169   1.976   2.218   5.370  0.1088 -0.1388  0.1314
12893TIP3    H160170   2.002   2.309   5.382  0.1327 -0.2081  0.6233
12893TIP3    H260171   1.884   2.216   5.395 -0.2844  0.0269 -1.2298
12894TIP3   OH260172   0.525   4.383  14.743  0.2976  0.2856 -0.6937
12894TIP3    H160173   0.498   4.364  14.653 -2.5364  0.7955 -0.0413
12894TIP3    H260174   0.620   4.395  14.737  0.5687 -2.0832 -3.1454
12895TIP3   OH260175   3.353   5.072  14.605 -0.2361 -0.2669  0.0824
12895TIP3    H160176   3.413   5.048  14.677 -0.5902 -2.2172 -0.2134
12895TIP3    H260177   3.358   5.167  14.601  1.3138 -0.2386  1.3918
12896TIP3   OH260178   4.767   2.051   1.756  0.6448 -0.3397 -0.0269
12896TIP3    H160179   4.850   2.079   1.793  1.2103 -1.2294 -0.5848
12896TIP3    H260180   4.702   2.113   1.791  1.7056  1.1178 -0.5451
12897TIP3   OH260181   2.299   5.903  14.231  0.3211 -0.0265  0.1827
12897TIP3    H160182   2.385   5.943  14.240  0.0681  0.7284 -0.6968
12897TIP3    H260183   2.317   5.814  14.202  0.8094  0.0598  0.2146
12898TIP3   OH260184   2.722   4.544   5.038  0.2430  0.0323 -0.2603
12898TIP3    H160185   2.762   4.616   5.087 -0.9488  0.6972 -0.2345
12898TIP3    H260186   2.735   4.568   4.947 -0.2484  0.3519 -0.2522
12899TIP3   OH260187   2.327   5.423  13.283  0.0406  0.2744  0.8322
12899TIP3    H160188   2.392   5.397  13.217 -1.0795 -1.7124  0.4137
12899TIP3    H260189   2.330   5.354  13.348 -0.5704  0.9710  1.6212
12900TIP3   OH260190   0.709   4.694  17.133  0.0928 -0.0203 -0.3410
12900TIP3    H160191   0.704   4.682  17.228  0.3985  0.5581 -0.2512
12900TIP3    H260192   0.797   4.667  17.110  1.1625  2.8108  0.0033
12901TIP3   OH260193   6.717   0.648   5.203  0.0416  0.0403  0.0174
12901TIP3    H160194   6.692   0.654   5.111 -0.9941  2.6916  0.3851
12901TIP3    H260195   6.640   0.612   5.247  0.0608  0.0074  0.0253
12902TIP3   OH260196   6.505   5.721  11.143  0.2461 -0.2289  0.1305
12902TIP3    H160197   6.500   5.667  11.064 -0.5958 -1.6005  1.0658
12902TIP3    H260198   6.592   5.761  11.139  0.2338 -0.2842 -1.4528
12903TIP3   OH260199   0.029   5.465  13.397 -0.5072 -0.0834  0.4741
12903TIP3    H160200   0.098   5.487  13.459 -0.3924  0.4288  0.1748
12903TIP3    H260201   0.043   5.373  13.376  1.0176  0.3936 -0.7437
12904TIP3   OH260202   2.375   6.343  17.242 -0.1153 -0.3439 -0.2851
12904TIP3    H160203   2.462   6.308  17.221 -0.7660 -1.1796 -1.7235
12904TIP3    H260204   2.381   6.436  17.220  0.2881 -0.4942 -0.8353
12905TIP3   OH260205   4.806   6.651  11.409 -0.3600 -0.1209 -0.2215
12905TIP3    H160206   4.773   6.607  11.488 -0.9288  1.1091  0.2566
12905TIP3    H260207   4.788   6.744  11.424 -0.2240  0.1682 -1.6981
12906TIP3   OH260208   5.095   0.674  11.969  0.0749  0.3656 -0.6406
12906TIP3    H160209   5.027   0.730  12.005  0.6253  0.8085 -0.2632
12906TIP3    H260210   5.135   0.633  12.046  0.6365  0.5875 -0.8088
12907TIP3   OH260211   2.900   2.561  11.724  0.6734  0.2405  0.0135
12907TIP3    H160212   2.973   2.499  11.721  0.7895  0.3795 -0.0189
12907TIP3    H260213   2.940   2.647  11.708  0.2563  0.1062 -2.0569
12908TIP3   OH260214   2.742   3.791  14.742 -0.3898  0.9200  0.1195
12908TIP3    H160215   2.693   3.847  14.682 -0.9266  0.1487 -0.1844
12908TIP3    H260216   2.708   3.812  14.829 -0.1728  1.4782  0.0694
12909TIP3   OH260217   1.576   5.575  15.204 -0.2822 -0.0051  0.6412
12909TIP3    H160218   1.645   5.588  15.270  1.5512  2.7472 -1.5954
12909TIP3    H260219   1.509   5.639  15.226  0.0139  0.4458  0.2452
12910TIP3   OH260220   5.935   5.188  16.020  0.3580 -0.3419 -0.0155
12910TIP3    H160221   5.905   5.113  16.070  0.8136 -2.1841 -2.3178
12910TIP3    H260222   5.865   5.204  15.956 -0.6768  2.5816  1.6503
12911TIP3   OH260223   6.357   0.985   4.654  0.2826 -0.6408 -0.0911
12911TIP3    H160224   6.278   0.972   4.601  0.9719 -3.4714 -0.5360
12911TIP3    H260225   6.365   0.905   4.705  2.3522  0.0186  0.7008
12912TIP3   OH260226   5.410   3.705  16.617 -0.0351  0.3017 -0.5085
12912TIP3    H160227   5.396   3.752  16.535 -2.0198  2.5525  0.9762
12912TIP3    H260228   5.505   3.703  16.628  0.1821  2.9159 -1.2838
12913TIP3   OH260229   5.781   5.154   5.450  0.7430 -0.9439 -0.2822
12913TIP3    H160230   5.786   5.111   5.365  0.9141  1.6782 -1.6980
12913TIP3    H260231   5.866   5.138   5.490  1.4535 -0.4697 -1.5441
12914TIP3   OH260232   5.526   4.346   5.507  0.4822  0.2230  0.3047
12914TIP3    H160233   5.591   4.388   5.564 -0.4812  0.0364  1.5884
12914TIP3    H260234   5.539   4.387   5.422  2.8233 -0.3878  0.2833
12915TIP3   OH260235   6.631   4.405  12.655 -0.5213 -0.5687 -0.0070
12915TIP3    H160236   6.552   4.411  12.708 -0.6346  1.5600 -0.3405
12915TIP3    H260237   6.610   4.454  12.575  0.7571 -0.9212 -0.5800
12916TIP3   OH260238   0.885   5.477   1.564 -0.4275  0.4451 -0.0417
12916TIP3    H160239   0.952   5.419   1.528 -0.2071  0.1438  0.8381
12916TIP3    H260240   0.891   5.465   1.659 -0.7090  1.5519  0.1242
12917TIP3   OH260241   4.105   3.337   6.191  0.7176 -0.7187 -0.0448
12917TIP3    H160242   4.082   3.355   6.283  1.0767 -0.3591 -0.0249
12917TIP3    H260243   4.053   3.260   6.169 -0.6888  0.1941 -0.0588
12918TIP3   OH260244   2.992   2.647  13.667 -0.1905  0.1215 -0.1610
12918TIP3    H160245   3.058   2.579  13.673 -2.0020 -1.7820 -0.6112
12918TIP3    H260246   2.945   2.642  13.751 -0.0063  1.2265  0.0254
12919TIP3   OH260247   2.802   6.485  13.591 -0.0582  0.1519  0.0801
12919TIP3    H160248   2.862   6.533  13.533  1.1148  1.5576  2.3353
12919TIP3    H260249   2.739   6.550  13.620  0.4218 -0.0737  1.7079
12920TIP3   OH260250   3.515   0.644  12.124 -0.0008 -0.1211  0.4215
12920TIP3    H160251   3.467   0.716  12.083  0.3179 -0.2997 -0.2884
12920TIP3    H260252   3.460   0.567  12.109  1.5413 -0.7963 -2.5664
12921TIP3   OH260253   3.061   6.399  16.259 -0.0110  0.0163 -0.0694
12921TIP3    H160254   3.032   6.309  16.277 -0.8239  0.5088  1.2100
12921TIP3    H260255   3.012   6.453  16.322  1.1992  1.2490 -0.1486
12922TIP3   OH260256   2.226   4.819   4.231  0.8449  0.8941  0.0833
12922TIP3    H160257   2.224   4.728   4.260  1.1376 -0.0763 -2.6498
12922TIP3    H260258   2.318   4.844   4.238  1.0164  0.4613 -0.6182
12923TIP3   OH260259   3.568   6.388   5.622 -0.2491 -0.6253 -0.4201
12923TIP3    H160260   3.474   6.374   5.611 -0.3890 -1.3632  1.4237
12923TIP3    H260261   3.576   6.448   5.696  0.7463 -1.2469  0.0052
12924TIP3   OH260262   3.971   4.802  12.920 -0.0828 -0.5349  0.4773
12924TIP3    H160263   4.011   4.791  12.834  0.8763 -1.5583  1.0271
12924TIP3    H260264   3.906   4.870  12.908  1.2658  0.6093 -0.6461
12925TIP3   OH260265   3.792   0.286   5.739 -0.2602 -0.1806  0.1664
12925TIP3    H160266   3.821   0.208   5.691  1.7105  0.1348  0.7347
12925TIP3    H260267   3.707   0.262   5.775 -0.6375 -1.3190 -1.3883
12926TIP3   OH260268   2.776   5.847   4.911 -0.2345  0.3893  0.7380
12926TIP3    H160269   2.830   5.768   4.913 -0.5417  0.1229 -0.5745
12926TIP3    H260270   2.731   5.844   4.826 -0.9595  1.5056  1.0507
12927TIP3   OH260271   3.544   5.408  10.883 -0.6884  0.5440 -0.3209
12927TIP3    H160272   3.551   5.496  10.847  1.4428  1.0030  1.0231
12927TIP3    H260273   3.531   5.421  10.977 -1.5669 -0.6132 -0.2438
12928TIP3   OH260274   1.420   5.557   0.672 -0.0798 -0.0487  0.0087
12928TIP3    H160275   1.408   5.553   0.577  2.7049 -0.5989 -0.3933
12928TIP3    H260276   1.413   5.466   0.701 -0.3408  0.0477  0.2557
12929TIP3   OH260277   3.858   6.259  16.427 -0.3468  0.3664  0.4208
12929TIP3    H160278   3.911   6.221  16.357  0.2045  1.8078  0.0237
12929TIP3    H260279   3.919   6.312  16.478 -0.7739 -0.5416  1.9334
12930TIP3   OH260280   4.726   1.382  16.309  0.3879 -0.2887  0.5510
12930TIP3    H160281   4.661   1.316  16.286 -0.1749  0.3342  0.3111
12930TIP3    H260282   4.801   1.332  16.341 -0.5196 -1.0032  1.6464
12931TIP3   OH260283   6.246   1.346  12.676  0.0816 -0.5545 -0.2485
12931TIP3    H160284   6.186   1.401  12.625 -1.3922 -1.0674  0.8575
12931TIP3    H260285   6.194   1.268  12.697  1.1374 -1.0119  0.7618
12932TIP3   OH260286   4.036   1.230  12.415  0.2138  0.2576  0.3725
12932TIP3    H160287   4.069   1.147  12.380 -1.4357 -0.2234 -0.1414
12932TIP3    H260288   4.003   1.277  12.339 -0.0036  0.8436  0.8181
12933TIP3   OH260289   4.793   5.384   0.749  0.2888  0.3923  0.1654
12933TIP3    H160290   4.862   5.352   0.808  0.3628 -1.4247 -0.8370
12933TIP3    H260291   4.745   5.305   0.723  0.1129  1.1525 -2.0129
12934TIP3   OH260292   6.640   1.362  16.601  0.5647 -0.3576  0.1725
12934TIP3    H160293   6.575   1.320  16.658 -0.3576  3.9656  2.7998
12934TIP3    H260294   6.591   1.388  16.523  0.4957 -1.6612 -0.2331
12935TIP3   OH260295   3.768   6.318   6.787  0.1003 -0.0911  0.5196
12935TIP3    H160296   3.737   6.401   6.751  1.2958  0.6249  1.0934
12935TIP3    H260297   3.747   6.253   6.719 -0.8105  0.6733  0.0510
12936TIP3   OH260298   3.015   5.662  16.580 -0.1633  0.0797 -0.3496
12936TIP3    H160299   3.010   5.569  16.602 -1.0503  0.2098  0.0491
12936TIP3    H260300   3.103   5.673  16.544 -1.1189 -1.5884 -3.6394
12937TIP3   OH260301   2.784   2.124   5.800  0.1605 -0.5209  0.5722
12937TIP3    H160302   2.736   2.098   5.721 -0.8096  1.2349  0.5215
12937TIP3    H260303   2.790   2.043   5.852 -1.4464 -1.1727 -0.1675
12938TIP3   OH260304   4.055   6.585  12.467  0.0600  0.1443 -0.6875
12938TIP3    H160305   4.065   6.512  12.406  0.1986  0.1186 -0.6358
12938TIP3    H260306   3.969   6.621  12.448 -1.1710 -1.6738  1.0656
12939TIP3   OH260307   4.796   5.613   3.561 -1.0487 -0.4602  0.5862
12939TIP3    H160308   4.842   5.625   3.645 -0.0696 -0.5896  0.0834
12939TIP3    H260309   4.780   5.702   3.530 -1.1994 -0.4131  0.7927
12940TIP3   OH260310   2.887   2.061  16.237 -0.6081  0.2820  0.6968
12940TIP3    H160311   2.956   2.126  16.244  0.9771 -1.3386  0.7135
12940TIP3    H260312   2.888   2.033  16.145 -1.0306  0.0056  0.7685
12941TIP3   OH260313   5.563   6.244  12.110 -0.5815 -0.2137 -0.1384
12941TIP3    H160314   5.629   6.313  12.105 -0.0571 -0.7203 -0.2632
12941TIP3    H260315   5.610   6.168  12.144 -1.0402 -0.6592 -0.4897
12942TIP3   OH260316   1.589   3.415  14.853 -0.4048  0.0961 -0.2718
12942TIP3    H160317   1.664   3.409  14.912 -0.3209  1.4265 -0.2124
12942TIP3    H260318   1.515   3.384  14.905  0.3201 -3.1453 -0.9265
12943TIP3   OH260319   4.433   2.390  10.874  0.5933 -0.0719  0.5325
12943TIP3    H160320   4.442   2.299  10.847  0.3555  0.1525 -0.3082
12943TIP3    H260321   4.340   2.408  10.869  0.8322  0.8069 -1.2745
12944TIP3   OH260322   4.380   0.115  16.212  0.2431 -0.2595 -0.4263
12944TIP3    H160323   4.429   0.113  16.294 -1.0905  0.3279  0.4243
12944TIP3    H260324   4.414   0.191  16.165  0.5914 -0.2384 -0.1394
12945TIP3   OH260325   5.748   1.572   1.600 -0.0553  0.4285 -0.2532
12945TIP3    H160326   5.715   1.482   1.602 -1.5615  0.9109 -1.4079
12945TIP3    H260327   5.838   1.566   1.632 -0.2661 -1.4224  0.0694
12946TIP3   OH260328   3.818   1.399  12.457 -0.2816  0.7059  0.0467
12946TIP3    H160329   3.832   1.419  12.364 -0.2192 -0.7356 -0.2686
12946TIP3    H260330   3.780   1.312  12.458 -0.2151  0.6684  1.3933
12947TIP3   OH260331   6.108   4.213   1.880  0.7086 -0.1950  0.5062
12947TIP3    H160332   6.090   4.307   1.883 -1.1792 -0.5125  2.7308
12947TIP3    H260333   6.116   4.192   1.787  0.0804  1.9888 -0.0869
12948TIP3   OH260334   5.899   3.569  12.068  0.1720  0.1608  0.1869
12948TIP3    H160335   5.967   3.511  12.103  0.0943  0.4835  0.8855
12948TIP3    H260336   5.863   3.612  12.145 -2.2461 -1.5031  0.1016
12949TIP3   OH260337   2.895   2.350   4.090 -0.7291  0.1426 -0.2478
12949TIP3    H160338   2.837   2.332   4.016  0.9597  0.2010 -1.6757
12949TIP3    H260339   2.936   2.434   4.069  1.1057 -0.6711 -0.2026
12950TIP3   OH260340   6.426   5.696  17.251 -0.2747  0.1051  0.0525
12950TIP3    H160341   6.344   5.654  17.225  0.6152 -1.8700  0.2577
12950TIP3    H260342   6.409   5.727  17.340 -1.2193  1.0004 -0.4123
12951TIP3   OH260343   1.282   0.444  16.359  0.1177  0.2949  0.3035
12951TIP3    H160344   1.228   0.407  16.429 -0.5066  1.7288  0.5977
12951TIP3    H260345   1.222   0.495  16.306  1.1420  1.8300  0.5708
12952TIP3   OH260346   2.346   0.709  12.339 -0.7500 -0.8398 -0.2963
12952TIP3    H160347   2.360   0.680  12.249 -1.6134 -1.1632 -0.3305
12952TIP3    H260348   2.377   0.800  12.340  1.0592 -1.4073 -0.4280
12953TIP3   OH260349   3.903   0.978  16.795  0.1880  0.3967  0.6144
12953TIP3    H160350   3.848   0.900  16.798 -0.3576  0.7149 -0.4530
12953TIP3    H260351   3.906   1.002  16.703 -1.4482  2.8640  1.1039
12954TIP3   OH260352   1.604   3.189   4.924  0.1940  0.2617 -0.6506
12954TIP3    H160353   1.549   3.265   4.908  0.3392  0.2743 -1.1214
12954TIP3    H260354   1.648   3.206   5.007  1.1961  1.2739 -1.3596
12955TIP3   OH260355   6.468   5.079  14.178  0.0630  0.0637  0.0173
12955TIP3    H160356   6.497   5.148  14.238  1.9761  2.4069 -3.2893
12955TIP3    H260357   6.395   5.118  14.130  1.3070  0.0099 -2.0484
12956TIP3   OH260358   3.015   4.728   3.709  0.3576  0.1443 -0.0292
12956TIP3    H160359   2.969   4.801   3.751  0.3345 -0.1504  0.4626
12956TIP3    H260360   2.945   4.671   3.677  0.3579  0.7973 -1.2614
12957TIP3   OH260361   3.861   1.638   5.361 -0.6206 -0.1732 -0.1973
12957TIP3    H160362   3.930   1.696   5.327 -0.2796  0.8205  2.0443
12957TIP3    H260363   3.780   1.686   5.346 -0.5576 -0.1022 -0.3157
12958TIP3   OH260364   0.753   4.805   6.248 -0.0143  0.0904 -0.3480
12958TIP3    H160365   0.823   4.824   6.185 -0.3409 -1.6960 -1.3201
12958TIP3    H260366   0.786   4.839   6.331  2.5244 -1.5566 -0.5492
12959TIP3   OH260367   2.198   6.259  17.433 -0.0394 -0.4282 -0.1148
12959TIP3    H160368   2.234   6.232  17.517  0.3078  1.8595  0.5287
12959TIP3    H260369   2.269   6.309  17.392 -1.0783  0.6748 -0.6156
12960TIP3   OH260370   4.554   3.433   2.622  0.0976 -0.5647  0.2706
12960TIP3    H160371   4.571   3.349   2.665  1.5014 -0.4549 -0.0161
12960TIP3    H260372   4.608   3.496   2.670  0.0844 -0.0642 -0.3520
12961TIP3   OH260373   5.448   0.149   2.814 -0.4762 -0.1902 -1.0755
12961TIP3    H160374   5.529   0.131   2.862 -0.4632  2.1735 -0.1046
12961TIP3    H260375   5.379   0.108   2.866 -0.1221 -0.4236 -0.7852
12962TIP3   OH260376   6.301   4.308  13.647 -0.3878  0.1830 -0.1145
12962TIP3    H160377   6.230   4.250  13.620 -0.0178  0.0308 -0.8011
12962TIP3    H260378   6.350   4.323  13.566  0.9764 -0.5609  0.5459
12963TIP3   OH260379   3.709   0.615  12.793  0.3409 -0.4936  0.1987
12963TIP3    H160380   3.723   0.568  12.711  0.0616 -0.4808  0.1444
12963TIP3    H260381   3.672   0.549  12.852 -1.4736  0.0095 -0.3271
12964TIP3   OH260382   6.583   3.852   5.868 -0.2682  0.3947  0.0321
12964TIP3    H160383   6.545   3.872   5.954 -0.2067 -1.4860  0.5351
12964TIP3    H260384   6.507   3.838   5.811 -0.3075  0.4892  0.0610
12965TIP3   OH260385   1.081   1.258   2.208 -0.2344 -0.0050  0.1482
12965TIP3    H160386   1.151   1.309   2.167 -0.5343  0.2480 -0.0560
12965TIP3    H260387   1.124   1.178   2.238 -0.0695 -0.3604 -0.9805
12966TIP3   OH260388   3.563   2.059  15.891 -0.2541  0.3719 -0.1864
12966TIP3    H160389   3.630   2.013  15.941 -1.7863  0.2036  1.8691
12966TIP3    H260390   3.542   2.000  15.819  0.2757 -0.5626  0.4001
12967TIP3   OH260391   4.435   4.269  15.219 -0.0986 -0.3329 -0.1063
12967TIP3    H160392   4.444   4.291  15.312  1.7402 -0.7754 -0.1448
12967TIP3    H260393   4.425   4.354  15.176 -1.2709 -0.1378  0.4956
12968TIP3   OH260394   5.816   0.282  15.760 -0.8037  0.2830  0.2948
12968TIP3    H160395   5.861   0.324  15.686 -1.0565  0.8439  0.4511
12968TIP3    H260396   5.828   0.343  15.833  0.1900 -0.6765  0.9602
12969TIP3   OH260397   3.141   3.577  16.296  0.2570  0.2582 -0.0813
12969TIP3    H160398   3.098   3.572  16.211  1.9701  0.0284 -0.9952
12969TIP3    H260399   3.233   3.556  16.277  0.5765 -0.3344  1.9168
12970TIP3   OH260400   5.215   6.078  16.944  1.0459  0.3948 -0.3420
12970TIP3    H160401   5.155   6.143  16.908 -1.0597 -1.5748 -0.5749
12970TIP3    H260402   5.269   6.051  16.869 -1.9036 -2.1591 -1.7445
12971TIP3   OH260403   1.379   5.039   0.615  0.2538 -0.5021 -0.2322
12971TIP3    H160404   1.439   4.968   0.593  0.4296 -0.0066 -1.4245
12971TIP3    H260405   1.361   5.082   0.532 -0.7235  0.1765  0.3082
12972TIP3   OH260406   6.472   2.676  10.986  0.4294 -0.4933 -0.2986
12972TIP3    H160407   6.461   2.771  10.984  0.1528 -0.5253 -0.2940
12972TIP3    H260408   6.404   2.643  10.927  0.3177 -0.7080 -0.0484
12973TIP3   OH260409   5.932   0.832   6.434 -0.2709  0.3342  0.1301
12973TIP3    H160410   5.908   0.919   6.467  0.0599  0.3680  0.2843
12973TIP3    H260411   5.919   0.774   6.509  0.1793  0.3628  0.2369
12974TIP3   OH260412   2.874   2.838   2.430  0.0351  0.2378 -0.5507
12974TIP3    H160413   2.877   2.749   2.394 -2.1214  0.6931 -2.0193
12974TIP3    H260414   2.954   2.845   2.483  1.7502 -1.5776 -2.7070
12975TIP3   OH260415   6.103   6.624  12.147  0.0560 -0.0612 -0.1682
12975TIP3    H160416   6.093   6.591  12.058  1.6488  0.4016 -0.5527
12975TIP3    H260417   6.157   6.558  12.191 -0.6714 -0.2613  0.4604
12976TIP3   OH260418   5.810   0.544  12.205  0.4678  0.0162 -0.1716
12976TIP3    H160419   5.840   0.552  12.115  1.5733  0.0599  0.1939
12976TIP3    H260420   5.791   0.451  12.217 -1.5863  0.2636 -1.0172
12977TIP3   OH260421   0.319   2.949   6.065 -0.7316 -0.7180 -0.2538
12977TIP3    H160422   0.353   2.913   5.983 -0.9978 -1.3109 -0.1079
12977TIP3    H260423   0.397   2.975   6.114 -0.5976  0.5551 -1.0895
12978TIP3   OH260424   4.774   2.655   4.498  0.5079 -0.3364 -0.1158
12978TIP3    H160425   4.818   2.620   4.420  0.0541  2.2440 -1.6431
12978TIP3    H260426   4.779   2.750   4.488 -4.1663  0.1963  0.2625
12979TIP3   OH260427   0.307   4.542  15.225  0.2452 -0.1402 -0.0787
12979TIP3    H160428   0.361   4.619  15.208 -0.0767 -0.1577 -1.2620
12979TIP3    H260429   0.339   4.477  15.162 -0.1291 -0.6538  0.2547
12980TIP3   OH260430   2.795   0.300  13.684  0.5694 -0.0434  0.3135
12980TIP3    H160431   2.724   0.259  13.634  1.7511  1.1243 -2.5658
12980TIP3    H260432   2.826   0.231  13.743 -1.1385 -1.4486 -0.3463
12981TIP3   OH260433   2.812   3.494  13.045  0.2241 -0.6406  0.8014
12981TIP3    H160434   2.761   3.438  13.104 -0.2867 -1.4818 -0.3843
12981TIP3    H260435   2.752   3.565  13.022  0.3804 -0.3812  1.1893
12982TIP3   OH260436   0.996   1.005  11.589 -0.0720  0.1318  0.3012
12982TIP3    H160437   0.975   1.012  11.496 -0.6790  0.4787  0.4546
12982TIP3    H260438   1.092   1.006  11.593 -0.0113 -1.1468 -0.4032
12983TIP3   OH260439   4.035   4.989  12.382 -0.1279 -0.4042  0.2012
12983TIP3    H160440   4.089   4.987  12.304 -0.2488  0.3922  0.0859
12983TIP3    H260441   4.076   5.055  12.438  1.3276 -2.5823  1.8458
12984TIP3   OH260442   0.885   5.848   4.340  0.2923  0.7516  0.1929
12984TIP3    H160443   0.957   5.799   4.381 -1.6075 -1.7834  0.7971
12984TIP3    H260444   0.928   5.910   4.282  2.9838  0.4962  1.7185
12985TIP3   OH260445   6.237   2.710   3.116  0.0395 -0.0874  0.1445
12985TIP3    H160446   6.329   2.698   3.139 -0.3081 -1.2681  0.9912
12985TIP3    H260447   6.235   2.795   3.071  1.5840 -0.1929 -0.1842
12986TIP3   OH260448   4.084   6.349   0.359 -0.3768 -0.0615  0.1670
12986TIP3    H160449   4.060   6.433   0.398  0.5255  0.4605 -0.3687
12986TIP3    H260450   4.179   6.352   0.353 -0.3600 -0.9896 -0.1655
12987TIP3   OH260451   5.754   5.234   4.113 -0.3658  0.1042 -0.2943
12987TIP3    H160452   5.697   5.158   4.098 -0.3580  0.4179 -2.1412
12987TIP3    H260453   5.763   5.275   4.026  1.7798  0.6956  0.1517
12988TIP3   OH260454   6.724   4.990   1.614 -0.0622 -0.0157 -0.7389
12988TIP3    H160455   6.728   5.004   1.520  2.5764  0.6422 -0.5996
12988TIP3    H260456   6.772   4.908   1.629 -0.2037  0.0344  0.0559
12989TIP3   OH260457   3.903   0.510   4.869  0.0065  0.2578 -0.0084
12989TIP3    H160458   3.851   0.492   4.790  0.1432  0.3179 -0.1126
12989TIP3    H260459   3.879   0.599   4.893 -0.0857  0.2150  0.0556
12990TIP3   OH260460   2.642   1.465   6.060 -0.0706 -0.5422 -0.4384
12990TIP3    H160461   2.725   1.513   6.054 -1.1665  1.5556  0.0190
12990TIP3    H260462   2.616   1.474   6.152 -0.8235 -1.1221 -0.5925
12991TIP3   OH260463   4.682   2.445  11.836 -0.0526 -0.3763  0.2495
12991TIP3    H160464   4.767   2.438  11.881 -0.0278 -5.9783  0.0165
12991TIP3    H260465   4.619   2.415  11.901 -1.7174  2.0684 -0.1396
12992TIP3   OH260466   3.702   0.302  13.794 -0.2413 -0.0907 -0.1959
12992TIP3    H160467   3.626   0.352  13.766 -0.7684 -1.0115 -0.4534
12992TIP3    H260468   3.674   0.211  13.790  0.5223 -0.3882  0.7761
12993TIP3   OH260469   1.588   6.391   6.930  0.2489  0.1013 -0.2036
12993TIP3    H160470   1.551   6.355   6.849 -1.2142  0.6973  0.1682
12993TIP3    H260471   1.627   6.474   6.903  1.5929 -0.6401 -0.6413
12994TIP3   OH260472   1.249   0.018   1.054 -0.1904 -0.1675  0.5177
12994TIP3    H160473   1.269   0.032   0.962  1.5575 -0.3090  0.8328
12994TIP3    H260474   1.279  -0.071   1.072  0.8414  0.3646  1.5486
12995TIP3   OH260475   3.623   1.343  16.344  0.4677 -0.1700 -0.3419
12995TIP3    H160476   3.633   1.438  16.344  1.4036 -0.2384 -1.5710
12995TIP3    H260477   3.662   1.315  16.261  0.6132 -1.6596  0.1954
12996TIP3   OH260478   1.575   3.697   1.625 -0.2135  0.3415 -0.1405
12996TIP3    H160479   1.590   3.723   1.535  1.4774  1.1675  0.3470
12996TIP3    H260480   1.622   3.614   1.635 -1.0915 -0.1907 -0.2062
12997TIP3   OH260481   2.511   5.984  14.624 -0.3834 -0.1763  0.0286
12997TIP3    H160482   2.548   6.012  14.540 -0.9649  0.4451 -0.0362
12997TIP3    H260483   2.465   6.062  14.656 -1.0759 -0.7312  0.4103
12998TIP3   OH260484   1.435   0.663  12.135 -0.0953 -0.4242 -0.4621
12998TIP3    H160485   1.529   0.676  12.126 -0.1134 -0.1814 -0.3104
12998TIP3    H260486   1.401   0.749  12.159 -0.3253 -0.5657 -0.2798
12999TIP3   OH260487   5.862   4.954  12.840  0.2611  0.0488 -0.0713
12999TIP3    H160488   5.822   4.875  12.804  2.0365 -1.5276  1.1821
12999TIP3    H260489   5.932   4.976  12.778  0.9370 -0.4645  0.4982
13000TIP3   OH260490   4.960   0.908  15.508  0.5663 -0.2139 -0.2868
13000TIP3    H160491   4.921   0.820  15.505  0.5186 -0.2080  0.1576
13000TIP3    H260492   5.049   0.894  15.539  0.5028 -0.0866 -0.0480
13001TIP3   OH260493   4.710   5.286  17.589  0.4739 -0.6234 -0.0507
13001TIP3    H160494   4.737   5.356  17.529  2.2711 -0.3042  1.0502
13001TIP3    H260495   4.616   5.276  17.573  0.0370  2.3462  0.0406
13002TIP3   OH260496   5.586   4.804   0.211 -0.0555 -0.4823 -0.1236
13002TIP3    H160497   5.639   4.840   0.282 -1.5630  0.8866  0.3572
13002TIP3    H260498   5.572   4.878   0.152 -1.0205 -0.9534 -0.5000
13003TIP3   OH260499   4.128   1.061  12.025  0.1488  0.6542  0.1982
13003TIP3    H160500   4.178   0.979  12.026  0.0580  0.5148 -1.6816
13003TIP3    H260501   4.082   1.063  12.108 -2.0732 -2.6378 -0.7418
13004TIP3   OH260502   5.519   0.313   1.163 -0.3492  0.2975  0.1383
13004TIP3    H160503   5.486   0.358   1.085 -0.7014  1.3759  0.8812
13004TIP3    H260504   5.581   0.249   1.130 -1.6093 -0.3028 -1.1372
13005TIP3   OH260505   3.750   0.881   6.142 -0.4082 -0.1512  0.1765
13005TIP3    H160506   3.735   0.973   6.163  1.2671 -0.0901  1.3815
13005TIP3    H260507   3.677   0.856   6.086 -1.5688  1.5629  0.8459
13006TIP3   OH260508   1.819   0.604   5.523  0.1864 -0.2921  0.6497
13006TIP3    H160509   1.769   0.568   5.449  0.2917  1.0022 -0.0941
13006TIP3    H260510   1.754   0.615   5.592 -0.0723 -0.8323  0.4962
13007TIP3   OH260511   5.396   5.460   1.726 -0.0663 -0.3399 -0.0143
13007TIP3    H160512   5.355   5.491   1.807  0.5383  0.4633 -0.0072
13007TIP3    H260513   5.444   5.535   1.693  1.7529 -1.3644  0.1884
13008TIP3   OH260514   1.985   0.206  16.489  0.5164  0.0917 -0.3801
13008TIP3    H160515   1.971   0.300  16.478 -0.5216  0.0379  0.3846
13008TIP3    H260516   1.929   0.181  16.562  1.1031 -1.0523 -0.2942
13009TIP3   OH260517   6.578   6.489  16.122  0.0626 -0.5542  0.5636
13009TIP3    H160518   6.621   6.526  16.199  1.7353  0.6974 -0.8845
13009TIP3    H260519   6.605   6.397  16.122  0.8072 -0.3479  0.9965
13010TIP3   OH260520   3.849   4.498   5.771  0.2569  0.1761  0.0106
13010TIP3    H160521   3.824   4.427   5.831  1.0634 -1.0806 -1.0948
13010TIP3    H260522   3.841   4.460   5.684  1.5185  1.1635 -0.5745
13011TIP3   OH260523   5.076   5.429   2.311  0.4778  0.5162 -0.5876
13011TIP3    H160524   4.990   5.438   2.270 -0.0983  0.6636  0.6086
13011TIP3    H260525   5.092   5.514   2.353  0.9678  0.3206 -0.3689
13012TIP3   OH260526   1.869   5.388  14.968 -0.3806  0.0727  0.3698
13012TIP3    H160527   1.929   5.319  14.993  0.5287 -0.0126 -1.8211
13012TIP3    H260528   1.901   5.466  15.014 -0.0752 -0.4823  1.1112
13013TIP3   OH260529   0.943   0.078   1.122 -0.1937  0.1609 -0.1054
13013TIP3    H160530   0.974   0.093   1.033 -1.8674 -0.5916 -0.8446
13013TIP3    H260531   0.951  -0.017   1.135 -1.3291  0.0667 -0.0062
13014TIP3   OH260532   1.952   6.257  13.759 -0.1448  0.7649  0.2332
13014TIP3    H160533   2.009   6.328  13.788 -1.0032  1.4181  0.3469
13014TIP3    H260534   1.879   6.301  13.715 -0.3069 -0.0805 -0.3583
13015TIP3   OH260535   2.697   6.123   0.842  0.6046  0.3241  0.4347
13015TIP3    H160536   2.689   6.146   0.749  0.0443 -2.0752 -0.1728
13015TIP3    H260537   2.616   6.077   0.863  1.3998 -0.5703  1.6721
13016TIP3   OH260538   2.415   2.488  13.871  0.0251 -0.0310 -0.1366
13016TIP3    H160539   2.503   2.464  13.900  0.7031  0.8700 -1.3781
13016TIP3    H260540   2.402   2.438  13.790  0.7937  2.3534 -1.8358
13017TIP3   OH260541   3.622   6.678  14.463 -0.1062 -0.2052 -0.2914
13017TIP3    H160542   3.614   6.690  14.558  0.5319 -0.6320 -0.1764
13017TIP3    H260543   3.553   6.732  14.426 -2.4454 -2.4085  0.5386
13018TIP3   OH260544   2.455   3.260   1.360 -0.0010  0.0816 -0.0854
13018TIP3    H160545   2.421   3.331   1.414 -2.1585  0.1639 -1.4443
13018TIP3    H260546   2.498   3.304   1.287 -0.3540 -0.0036 -0.3474
13019TIP3   OH260547   4.996   5.452  11.733 -0.3003  0.4076  0.4660
13019TIP3    H160548   4.987   5.533  11.784  0.5494 -0.0544  1.3839
13019TIP3    H260549   5.086   5.454  11.701 -1.2195  1.4060 -2.3417
13020TIP3   OH260550   4.882   4.845  11.463  0.2546 -0.3049  0.2617
13020TIP3    H160551   4.792   4.814  11.478 -0.4945 -0.3153 -3.4817
13020TIP3    H260552   4.936   4.766  11.472 -0.4837 -0.8770 -0.2004
13021TIP3   OH260553   1.448   5.762   5.022  0.6183 -0.0441 -0.7934
13021TIP3    H160554   1.439   5.844   4.973 -0.6754 -0.2696 -0.9704
13021TIP3    H260555   1.465   5.790   5.112  1.2006  0.3897 -1.0252
13022TIP3   OH260556   5.707   4.734   1.433 -0.1709 -0.3478  0.0136
13022TIP3    H160557   5.724   4.730   1.339  2.1031  1.2373  0.2951
13022TIP3    H260558   5.755   4.660   1.469  0.2618 -0.0395  0.0759
13023TIP3   OH260559   3.206   4.281   6.230  0.4693 -0.2701  0.1668
13023TIP3    H160560   3.160   4.365   6.239  1.2778  0.1869  0.1603
13023TIP3    H260561   3.298   4.303   6.242  0.9543 -0.7521 -2.1810
13024TIP3   OH260562   1.456   5.029   1.013  0.2272 -0.3056  0.2060
13024TIP3    H160563   1.509   5.107   1.027 -0.7907  0.2150  1.4030
13024TIP3    H260564   1.506   4.977   0.950  1.4986  0.7513  0.2884
13025TIP3   OH260565   5.703   6.198  13.417  0.1144  0.0088  0.1308
13025TIP3    H160566   5.685   6.244  13.499  1.5599  0.3974  0.2631
13025TIP3    H260567   5.786   6.152  13.434 -1.0190 -2.3047 -0.1389
13026TIP3   OH260568   4.071   0.845  11.777 -0.3396 -0.1773  0.0129
13026TIP3    H160569   4.072   0.776  11.710  1.2646 -0.9038  0.7207
13026TIP3    H260570   4.118   0.918  11.735 -2.2238  0.6134 -0.8142
13027TIP3   OH260571   1.181   6.636  12.991 -0.4478 -0.4822 -0.5415
13027TIP3    H160572   1.258   6.580  13.004 -0.7806 -0.7298  0.4603
13027TIP3    H260573   1.217   6.723  12.975  0.0566 -0.7486 -0.8615
13028TIP3   OH260574   5.291   1.634  17.599 -0.3107 -0.3745 -0.0568
13028TIP3    H160575   5.380   1.603  17.614  0.0145  1.2710  1.9440
13028TIP3    H260576   5.300   1.729  17.588 -1.6965 -0.3470 -1.3292
13029TIP3   OH260577   3.084   1.846   2.956 -0.0514 -0.4015  0.6935
13029TIP3    H160578   3.137   1.895   3.019 -0.9609  1.6134 -0.0311
13029TIP3    H260579   3.008   1.815   3.006  0.5039 -1.0797  1.1416
13030TIP3   OH260580   0.737   1.249   4.054  0.6515  0.9539 -0.3111
13030TIP3    H160581   0.802   1.271   3.987 -0.0022 -0.4954 -1.5039
13030TIP3    H260582   0.653   1.257   4.009  0.0995  1.2453  0.7405
13031TIP3   OH260583   5.284   4.411   2.706  0.4033  0.4445 -0.4638
13031TIP3    H160584   5.210   4.465   2.734 -0.9984 -1.5683 -0.1136
13031TIP3    H260585   5.244   4.335   2.663  2.1738 -1.2744  0.7471
13032TIP3   OH260586   2.648   4.072   1.895 -0.2828  0.1879 -0.4541
13032TIP3    H160587   2.651   4.036   1.806 -0.9428 -1.0181 -0.0232
13032TIP3    H260588   2.598   4.007   1.944 -1.1415  1.5230  0.4887
13033TIP3   OH260589   2.951   4.158   3.765 -0.0507  0.2972 -0.2292
13033TIP3    H160590   3.025   4.104   3.794  0.9474  0.4918 -2.2619
13033TIP3    H260591   2.873   4.110   3.796  0.8657 -0.2726  1.3387
13034TIP3   OH260592   0.576   0.914  13.114 -0.1366  0.1666 -0.0572
13034TIP3    H160593   0.583   0.842  13.051 -0.7910  0.2775 -0.2606
13034TIP3    H260594   0.541   0.873  13.193 -1.2818  0.3901 -0.4260
13035TIP3   OH260595   5.581   1.795   1.568 -0.2081  0.2895  0.1958
13035TIP3    H160596   5.627   1.713   1.585 -1.7096 -0.9588 -1.4485
13035TIP3    H260597   5.489   1.775   1.586 -0.7264  1.3099 -1.1446
13036TIP3   OH260598   1.924   4.270   5.639 -0.6021  0.2121  0.2283
13036TIP3    H160599   1.999   4.328   5.636  0.0041 -0.5067  0.9524
13036TIP3    H260600   1.962   4.183   5.652 -1.5662 -0.1281  0.8698
13037TIP3   OH260601   4.364   5.111   4.187 -0.5291 -0.7230 -0.6633
13037TIP3    H160602   4.453   5.131   4.218 -0.7487  0.8964 -0.9858
13037TIP3    H260603   4.345   5.025   4.222  0.2633 -0.0989  1.4437
13038TIP3   OH260604   2.709   3.547   0.628  0.4421  0.5140 -0.0105
13038TIP3    H160605   2.677   3.618   0.572  0.3500 -0.0829 -0.7216
13038TIP3    H260606   2.704   3.583   0.717 -2.3540  0.4142 -0.0504
13039TIP3   OH260607   0.427   4.739  11.116 -0.0384 -0.0771 -0.5080
13039TIP3    H160608   0.452   4.666  11.060  0.3509  0.1427 -0.6229
13039TIP3    H260609   0.405   4.810  11.056  1.6500  0.5861 -0.3872
13040TIP3   OH260610   1.729   2.482  12.925  0.3485  0.1462  0.2573
13040TIP3    H160611   1.819   2.491  12.893 -0.1422  0.1572 -1.1926
13040TIP3    H260612   1.687   2.564  12.902 -0.3592 -0.3367 -0.2308
13041TIP3   OH260613   2.467   4.108   0.272 -0.4234  0.0189 -0.4167
13041TIP3    H160614   2.475   4.027   0.322 -2.9827 -0.4786 -0.6634
13041TIP3    H260615   2.495   4.085   0.184 -1.1701 -0.6308 -0.4904
13042TIP3   OH260616   2.605   1.456  14.460  0.1263  0.7833  0.4256
13042TIP3    H160617   2.645   1.539  14.484  1.4530  0.2103  0.2586
13042TIP3    H260618   2.641   1.392  14.521 -1.0544  0.3420  0.7081
13043TIP3   OH260619   1.159   0.412  14.237  0.1303 -0.4621 -0.0123
13043TIP3    H160620   1.216   0.355  14.287 -0.7154 -0.5379  0.8816
13043TIP3    H260621   1.172   0.385  14.146  0.3831 -1.4883  0.3218
13044TIP3   OH260622   2.959   5.921   3.658 -0.3692 -0.0457  0.0153
13044TIP3    H160623   2.903   5.995   3.684 -1.8302 -1.2093  0.3694
13044TIP3    H260624   3.018   5.908   3.731 -2.7737 -1.6857  1.8388
13045TIP3   OH260625   4.794   3.030  17.147 -0.6190 -0.2280  0.7442
13045TIP3    H160626   4.708   3.067  17.127  0.2685  1.1985 -0.7773
13045TIP3    H260627   4.776   2.942  17.180 -2.6266 -0.1871 -0.1084
13046TIP3   OH260628   3.684   6.103  12.238 -0.1674  0.5395 -0.2264
13046TIP3    H160629   3.737   6.178  12.213 -0.1080  0.1420 -1.3181
13046TIP3    H260630   3.595   6.125  12.208 -0.6043  1.0883  1.3561
13047TIP3   OH260631   3.345   1.967   4.872  0.5748 -0.5314  0.5192
13047TIP3    H160632   3.418   2.021   4.842  0.3775 -0.3057  0.4415
13047TIP3    H260633   3.307   2.016   4.946 -0.6238  0.2707 -0.5762
13048TIP3   OH260634   3.953   5.763   2.227 -0.0718  0.2644 -0.0751
13048TIP3    H160635   3.981   5.849   2.260 -1.2370  0.3561  0.7058
13048TIP3    H260636   3.903   5.724   2.298  0.6755 -1.2072 -0.3193
13049TIP3   OH260637   4.792   2.856   1.006  0.6723 -0.0834 -0.0381
13049TIP3    H160638   4.720   2.914   1.030  1.7938  1.1595  0.4650
13049TIP3    H260639   4.768   2.771   1.042 -0.6996  0.2064 -0.2055
13050TIP3   OH260640   6.113   3.960   1.239 -0.3174 -0.1896 -0.3179
13050TIP3    H160641   6.196   3.996   1.270  0.3441  0.0165 -2.2001
13050TIP3    H260642   6.139   3.889   1.179 -1.5159 -0.3982 -0.6121
13051TIP3   OH260643   6.568   3.412   0.562 -0.6659  0.3761 -0.3019
13051TIP3    H160644   6.632   3.450   0.502  0.0668 -0.5123 -0.0847
13051TIP3    H260645   6.619   3.359   0.622 -1.5126  0.4009  0.4559
13052TIP3   OH260646   5.256   4.863  13.762  0.4683 -0.1173  0.1257
13052TIP3    H160647   5.237   4.770  13.757 -1.0289  0.1044  0.8990
13052TIP3    H260648   5.229   4.888  13.850  0.9132  1.0342 -0.0488
13053TIP3   OH260649   6.338   2.426   6.127  0.1479  0.3841 -0.2224
13053TIP3    H160650   6.246   2.425   6.100  0.3370 -0.0049 -0.8775
13053TIP3    H260651   6.354   2.339   6.163 -0.4685  1.3160  2.5336
13054TIP3   OH260652   2.018   2.094   5.122  0.6555  1.1905 -0.3434
13054TIP3    H160653   1.959   2.157   5.162  0.5758  1.9738 -1.6392
13054TIP3    H260654   2.048   2.039   5.195 -2.3523  0.1834  0.2439
13055TIP3   OH260655   5.693   0.980   2.380 -0.4276  0.2596  0.5432
13055TIP3    H160656   5.786   0.964   2.364 -0.7969 -0.1455 -1.3929
13055TIP3    H260657   5.681   0.955   2.472  0.8176 -2.4266  0.0898
13056TIP3   OH260658   4.980   3.083  12.609  0.4405 -0.4515  0.1610
13056TIP3    H160659   4.922   3.129  12.670  0.7240  0.8020 -0.4794
13056TIP3    H260660   5.015   3.009  12.660 -0.5040 -0.3229  1.0283
13057TIP3   OH260661   2.127   1.299   0.162  0.3188  0.1709 -0.0231
13057TIP3    H160662   2.129   1.384   0.118 -0.0085  0.8010  1.1493
13057TIP3    H260663   2.090   1.240   0.097 -0.1001  1.0651 -0.6235
13058TIP3   OH260664   5.593   5.349   1.473  0.4557  0.6517  0.1890
13058TIP3    H160665   5.638   5.402   1.539  1.7881 -0.8257  0.5368
13058TIP3    H260666   5.662   5.294   1.436 -0.9198 -1.1726  0.2147
13059TIP3   OH260667   3.380   4.088  14.507  0.0631 -0.3147  0.3368
13059TIP3    H160668   3.474   4.100  14.521  0.0534 -0.5428  0.6362
13059TIP3    H260669   3.375   4.013  14.447  0.1146  0.8992 -1.2326
13060TIP3   OH260670   0.899   4.957   6.438 -0.5455  0.0216  0.1865
13060TIP3    H160671   0.963   5.016   6.397 -0.1473 -0.0314  0.7243
13060TIP3    H260672   0.927   4.950   6.529 -1.6992  0.5210  0.6047
13061TIP3   OH260673   3.116   4.166   4.456  0.3160  0.1233 -0.1534
13061TIP3    H160674   3.117   4.241   4.396 -2.1394 -0.4382 -1.0166
13061TIP3    H260675   3.141   4.091   4.401  2.1032  0.1455  0.5534
13062TIP3   OH260676   4.703   2.084  15.090 -0.2242 -0.0549  0.0650
13062TIP3    H160677   4.691   2.165  15.139 -0.9413 -1.3985  2.2531
13062TIP3    H260678   4.635   2.086  15.022 -1.2658  0.4763  1.0977
13063TIP3   OH260679   1.269   6.507   6.289  0.0779  0.4696  0.0945
13063TIP3    H160680   1.353   6.553   6.284  0.2278  0.1948  0.0703
13063TIP3    H260681   1.204   6.573   6.265  0.3192  0.5927 -0.2329
13064TIP3   OH260682   5.958   4.106  15.730  1.0090 -0.2488  0.0371
13064TIP3    H160683   6.044   4.126  15.766  0.7606 -0.6140  0.8662
13064TIP3    H260684   5.897   4.130  15.800  0.5103 -1.0415 -0.1193
13065TIP3   OH260685   5.075   1.261  12.003  0.1964 -0.4644 -0.0973
13065TIP3    H160686   4.997   1.212  12.029  0.4748 -1.1531 -0.5631
13065TIP3    H260687   5.116   1.208  11.935  0.0758  0.7838 -1.1872
13066TIP3   OH260688   2.673   0.857  13.112  0.2118  0.4140 -0.0227
13066TIP3    H160689   2.659   0.887  13.022 -0.4801 -0.3473 -0.1883
13066TIP3    H260690   2.628   0.922  13.166 -1.5871 -0.4296 -0.3969
13067TIP3   OH260691   1.040   1.162  14.780  0.0677  0.1557 -0.8779
13067TIP3    H160692   0.969   1.211  14.739  0.5385  1.0770 -0.6286
13067TIP3    H260693   1.055   1.208  14.863 -1.0218 -1.7908  0.4853
13068TIP3   OH260694   4.894   6.686   0.776  0.2428  0.0854 -0.3907
13068TIP3    H160695   4.966   6.748   0.769 -0.0461  0.3200 -1.6342
13068TIP3    H260696   4.896   6.655   0.867  1.1739  0.9562 -0.1050
13069TIP3   OH260697   4.091   2.741  13.600 -1.1192 -0.0274 -0.1417
13069TIP3    H160698   4.168   2.767  13.650  0.3031 -4.2092  0.2432
13069TIP3    H260699   4.032   2.703  13.665 -1.0128 -1.8863 -1.0730
13070TIP3   OH260700   0.480   4.470   0.701  0.1098  0.4521 -0.0765
13070TIP3    H160701   0.534   4.521   0.761 -0.0651  1.6031 -0.8678
13070TIP3    H260702   0.524   4.477   0.617 -0.9927  1.0086 -0.6296
13071TIP3   OH260703   5.984   6.652  15.125 -0.1096  0.4732  0.0450
13071TIP3    H160704   5.901   6.618  15.160  0.1611  0.8424  1.0549
13071TIP3    H260705   5.996   6.604  15.043 -0.1989 -1.2070  0.9750
13072TIP3   OH260706   3.244   4.167  17.506 -0.5300 -0.1832  0.2473
13072TIP3    H160707   3.214   4.122  17.426  0.8795  0.3255 -0.5901
13072TIP3    H260708   3.204   4.254  17.501 -1.9346 -0.7520  1.0501
13073TIP3   OH260709   3.942   3.289   3.287 -0.5077  0.0649 -0.0171
13073TIP3    H160710   3.984   3.330   3.362  2.2179 -1.2860 -0.6837
13073TIP3    H260711   3.904   3.363   3.238  1.0023  1.3902  0.7134
13074TIP3   OH260712   6.441   5.393  14.954 -0.2831  0.5287 -0.0080
13074TIP3    H160713   6.429   5.314  15.006 -3.5865  1.2343  0.5464
13074TIP3    H260714   6.390   5.377  14.874 -2.9122  2.7235  1.0273
13075TIP3   OH260715   0.341   4.259  12.724  0.1015  0.6572 -0.1608
13075TIP3    H160716   0.326   4.171  12.760 -0.0629  1.0087  0.6655
13075TIP3    H260717   0.433   4.259  12.699  0.0638  0.2016 -0.3133
13076TIP3   OH260718   2.436   2.206   1.199  0.1734  0.2451  0.6434
13076TIP3    H160719   2.428   2.153   1.278 -0.3792  2.2559  2.0071
13076TIP3    H260720   2.511   2.263   1.215  2.5071 -1.8614 -1.9306
13077TIP3   OH260721   1.237   0.783   5.844 -0.1708 -0.1027  0.5113
13077TIP3    H160722   1.284   0.819   5.919  2.9037 -3.7216  0.6356
13077TIP3    H260723   1.170   0.727   5.883 -0.8953  0.6779  0.4216
13078TIP3   OH260724   5.784   1.438   0.032  0.3163  0.3552 -0.1355
13078TIP3    H160725   5.778   1.377   0.106 -0.7346  1.5701  0.8335
13078TIP3    H260726   5.693   1.458   0.010  0.5657 -0.7365 -2.4595
13079TIP3   OH260727   6.353   4.006  13.303  0.0545 -0.0801 -0.7152
13079TIP3    H160728   6.338   3.976  13.393  1.0244  0.7334 -0.2566
13079TIP3    H260729   6.311   4.092  13.299 -0.3064 -0.2708 -1.1670
13080TIP3   OH260730   0.614   6.030   0.325  0.0171  0.2646  0.7196
13080TIP3    H160731   0.608   6.051   0.232  0.1299 -1.4230  0.2998
13080TIP3    H260732   0.572   6.104   0.369 -0.4944  0.8463 -0.6894
13081TIP3   OH260733   5.923   1.792   5.240 -0.6663 -0.7710 -0.0137
13081TIP3    H160734   6.017   1.777   5.242 -0.1168  1.5307 -2.8326
13081TIP3    H260735   5.892   1.746   5.162 -1.3485  0.7111 -0.6583
13082TIP3   OH260736   1.847   6.379  16.695  0.6752 -0.3205  0.0819
13082TIP3    H160737   1.791   6.414  16.764  0.6406  1.4116 -0.7845
13082TIP3    H260738   1.804   6.297  16.669  0.2326 -0.5676  1.4979
13083TIP3   OH260739   2.003   2.234  14.340 -0.0802 -0.5984  0.0710
13083TIP3    H160740   2.028   2.222  14.431 -1.1080 -0.9691  0.3175
13083TIP3    H260741   1.998   2.329  14.329  0.9193 -0.5236  0.1386
13084TIP3   OH260742   4.056   2.583   1.404  0.3610 -0.7461  0.6982
13084TIP3    H160743   4.049   2.616   1.314 -1.2387  1.3409  1.4853
13084TIP3    H260744   4.103   2.652   1.451  1.4678 -1.9592  1.4467
13085TIP3   OH260745   5.972   5.088  14.216  0.4171 -0.2836  0.0438
13085TIP3    H160746   5.929   5.012  14.177 -0.1764  0.1895 -0.2192
13085TIP3    H260747   5.919   5.109  14.293 -0.1753  0.6456 -0.5925
13086TIP3   OH260748   0.238   6.609   1.690  0.1358 -0.5784 -0.1474
13086TIP3    H160749   0.187   6.680   1.649  0.1331  0.2002  1.1596
13086TIP3    H260750   0.321   6.650   1.713 -0.6126 -0.3667  2.5287
13087TIP3   OH260751   6.463   6.391   5.965  0.2695 -0.0607 -0.3105
13087TIP3    H160752   6.443   6.312   5.916  0.7741 -0.3846 -0.0063
13087TIP3    H260753   6.549   6.374   6.005  2.0880  1.9503 -2.9891
13088TIP3   OH260754   3.667   3.919   3.364 -0.3687  0.3910 -0.4870
13088TIP3    H160755   3.616   3.895   3.287 -2.4864  2.3730  0.1812
13088TIP3    H260756   3.755   3.938   3.330 -1.1007  0.7025 -2.3177
13089TIP3   OH260757   4.149   1.560   2.539  0.5252 -0.2856  0.6090
13089TIP3    H160758   4.137   1.483   2.594  0.9908 -1.1539 -0.4789
13089TIP3    H260759   4.067   1.610   2.550 -0.4752 -1.7515  0.0677
13090TIP3   OH260760   6.627   5.485   5.058  0.8337 -0.3615  0.3318
13090TIP3    H160761   6.588   5.397   5.059  0.2534 -0.1070  0.1286
13090TIP3    H260762   6.704   5.477   5.115 -0.2583 -0.5254  1.8367
13091TIP3   OH260763   4.609   4.626  15.621 -0.0209 -0.0391  0.3459
13091TIP3    H160764   4.661   4.697  15.658 -0.2014  0.1932  0.1524
13091TIP3    H260765   4.550   4.601  15.692  0.7238 -0.6837  0.7637
13092TIP3   OH260766   2.346   6.552  14.406 -0.6980 -0.0041  0.4581
13092TIP3    H160767   2.355   6.456  14.407 -0.7957 -0.0656 -1.4216
13092TIP3    H260768   2.428   6.583  14.368  0.3021  0.8596  3.1260
13093TIP3   OH260769   3.348   3.410  17.308 -0.3856 -0.0072  0.0220
13093TIP3    H160770   3.367   3.367  17.391 -1.0486 -1.0629 -0.3570
13093TIP3    H260771   3.370   3.346  17.241  0.7529  1.0591 -0.6693
13094TIP3   OH260772   1.482   1.334   5.041  0.5656 -0.0559 -0.8648
13094TIP3    H160773   1.513   1.422   5.020 -0.6501  0.3857 -0.9076
13094TIP3    H260774   1.562   1.284   5.061  1.3062  0.9178 -1.3141
13095TIP3   OH260775   0.141   2.654   4.270 -0.2089  0.3239  0.3579
13095TIP3    H160776   0.163   2.574   4.318  0.5096  1.0459  1.2580
13095TIP3    H260777   0.051   2.673   4.295  0.3055  0.9412  1.7986
13096TIP3   OH260778   6.188   6.368  16.282  0.0055 -0.7245  0.4745
13096TIP3    H160779   6.278   6.381  16.312 -0.8059  2.5186  1.9196
13096TIP3    H260780   6.183   6.415  16.199  0.0646 -2.5836 -0.6464
13097TIP3   OH260781   5.380   1.234  14.250  0.0947  0.2816  0.3713
13097TIP3    H160782   5.354   1.142  14.249 -0.5236  0.4429  1.3226
13097TIP3    H260783   5.357   1.266  14.162  0.3048 -0.4534  0.0386
13098TIP3   OH260784   5.098   0.756  13.763 -0.0937  0.2122 -0.2060
13098TIP3    H160785   5.177   0.809  13.749  0.3845  0.3258  2.3766
13098TIP3    H260786   5.127   0.666  13.753  0.2825  0.2755  0.2483
13099TIP3   OH260787   4.727   4.683   6.743  0.0623 -0.0371 -0.2440
13099TIP3    H160788   4.746   4.619   6.813  0.8346  1.3559  0.8683
13099TIP3    H260789   4.790   4.662   6.674 -0.3936 -1.1250 -0.3634
13100TIP3   OH260790   5.637   5.867   4.768 -0.2644 -0.2521  0.5828
13100TIP3    H160791   5.656   5.816   4.689  0.5798 -0.6264  1.0170
13100TIP3    H260792   5.542   5.861   4.778 -0.4218  0.0252 -0.5448
13101TIP3   OH260793   5.981   1.518   5.937 -0.1641 -0.1780  0.0638
13101TIP3    H160794   5.907   1.481   5.986 -0.3374 -0.7875 -0.6228
13101TIP3    H260795   5.942   1.587   5.883  0.1677  1.0786  1.3774
13102TIP3   OH260796   3.461   6.162   1.960 -0.3560 -0.0253  0.1498
13102TIP3    H160797   3.548   6.190   1.985 -1.1888  0.7379  2.4575
13102TIP3    H260798   3.455   6.071   1.988 -0.4290  0.0448  0.3640
13103TIP3   OH260799   0.640   4.042   5.111 -0.6512 -0.0537  0.2174
13103TIP3    H160800   0.688   4.025   5.192 -1.5460  0.7118  0.9260
13103TIP3    H260801   0.705   4.030   5.042  1.1526  2.7895  1.2242
13104TIP3   OH260802   1.039   4.852  13.874 -0.2408  0.1876  0.0368
13104TIP3    H160803   1.085   4.903  13.808  0.0167  1.7365  1.3601
13104TIP3    H260804   0.973   4.803  13.825 -1.3006  2.6820 -1.2172
13105TIP3   OH260805   2.333   0.865   1.718  0.3489 -0.5808  0.1386
13105TIP3    H160806   2.256   0.920   1.731 -0.0822 -1.1864  0.1743
13105TIP3    H260807   2.332   0.804   1.791  0.1483 -1.4119 -0.5423
13106TIP3   OH260808   4.632   2.660   0.327 -0.3650 -0.4175  0.5009
13106TIP3    H160809   4.625   2.738   0.382 -0.2495  1.1538 -1.5539
13106TIP3    H260810   4.542   2.636   0.307 -0.3969 -0.4043  0.6323
13107TIP3   OH260811   6.219   5.083   6.706 -0.3985  0.0623  0.3171
13107TIP3    H160812   6.213   5.151   6.639 -2.8215  0.7612  1.1619
13107TIP3    H260813   6.301   5.103   6.752 -0.1542  1.3071 -0.5935
13108TIP3   OH260814   1.316   1.506   4.180  0.0492  0.1510 -0.1608
13108TIP3    H160815   1.375   1.557   4.236  0.8179 -1.7833  0.9049
13108TIP3    H260816   1.373   1.472   4.111 -0.4503  0.6812 -0.8471
13109TIP3   OH260817   4.165   0.254  16.374 -0.3218 -0.2520 -0.3005
13109TIP3    H160818   4.110   0.176  16.384 -0.3838 -0.0731  0.8678
13109TIP3    H260819   4.223   0.233  16.301 -0.7465 -1.1536 -0.3902
13110TIP3   OH260820   2.746   2.787   4.484  0.1155 -0.0575 -0.3046
13110TIP3    H160821   2.826   2.773   4.533 -0.6452  0.9206  1.2845
13110TIP3    H260822   2.723   2.701   4.450  0.2054 -0.9864  1.8368
13111TIP3   OH260823   2.673   5.746   0.310  0.5828  0.3434 -0.2864
13111TIP3    H160824   2.658   5.652   0.304 -1.1081  0.6491 -1.6006
13111TIP3    H260825   2.687   5.762   0.404  1.0952 -1.2132 -0.0642
13112TIP3   OH260826   2.521   0.617  14.714 -0.4601  0.1212 -0.2722
13112TIP3    H160827   2.447   0.668  14.682 -0.5340  0.8011  0.9707
13112TIP3    H260828   2.503   0.527  14.684 -1.4664  0.3910 -0.4854
13113TIP3   OH260829   6.569   4.144   5.206  0.1105 -0.3756 -0.0358
13113TIP3    H160830   6.476   4.127   5.192 -0.7202  1.0949  2.8117
13113TIP3    H260831   6.577   4.156   5.300  2.8553  1.3970 -0.3731
13114TIP3   OH260832   6.470   1.552   2.799  0.0736  0.9101  0.7458
13114TIP3    H160833   6.406   1.577   2.866  0.3255  0.0510  1.3259
13114TIP3    H260834   6.443   1.464   2.772 -0.0991  1.2935 -0.3907
13115TIP3   OH260835   3.807   2.100  15.674  0.3069 -0.4833  0.1773
13115TIP3    H160836   3.808   2.048  15.754 -2.2046 -3.1237 -1.3069
13115TIP3    H260837   3.840   2.041  15.606 -0.3850  0.6415 -1.2151
13116TIP3   OH260838   6.230   1.345  16.201 -0.2445  0.2658  0.4361
13116TIP3    H160839   6.260   1.301  16.122  0.1830 -0.3872  0.9580
13116TIP3    H260840   6.135   1.332  16.202  0.0997 -3.2900  2.0988
13117TIP3   OH260841   4.543   4.124   0.613  0.1631 -0.4673  0.3649
13117TIP3    H160842   4.563   4.207   0.656 -0.2063 -0.5441  0.6903
13117TIP3    H260843   4.526   4.063   0.685 -1.0488 -0.4481  0.1051
13118TIP3   OH260844   5.824   5.791   3.594 -0.7825  0.2844 -0.2754
13118TIP3    H160845   5.757   5.816   3.530  0.3079  0.5963 -1.3205
13118TIP3    H260846   5.882   5.867   3.599  0.3918 -0.5652 -0.5886
13119TIP3   OH260847   1.510   5.788  13.224  0.4695  0.2560  0.0299
13119TIP3    H160848   1.442   5.795  13.290  0.1204  1.2076 -0.4192
13119TIP3    H260849   1.591   5.773  13.273 -0.0290 -0.8064  0.5708
13120TIP3   OH260850   2.315   5.366   2.701  0.1123  0.2003 -0.3851
13120TIP3    H160851   2.337   5.278   2.732  0.5228  0.7748  1.0393
13120TIP3    H260852   2.220   5.370   2.708  0.1980  0.3451  0.9622
13121TIP3   OH260853   0.770   0.664   2.325  0.0540  0.3832  0.8424
13121TIP3    H160854   0.677   0.643   2.319  0.0639  0.3011  0.9835
13121TIP3    H260855   0.773   0.759   2.328  0.0632  0.4884 -0.9838
13122TIP3   OH260856   0.187   0.798   2.550 -0.3889 -0.0537  0.9465
13122TIP3    H160857   0.125   0.727   2.568 -0.8471  0.4484  1.4017
13122TIP3    H260858   0.271   0.765   2.580 -0.1871 -1.2026 -0.7474
13123TIP3   OH260859   4.651   0.790   4.768  0.1724  0.1535  0.2113
13123TIP3    H160860   4.635   0.873   4.723 -0.0362  0.2214  0.4121
13123TIP3    H260861   4.725   0.751   4.720  0.7195  0.7704  0.5416
13124TIP3   OH260862   3.500   4.665   3.322 -0.0804 -0.0797 -0.1763
13124TIP3    H160863   3.408   4.664   3.349 -0.7536  1.3620 -2.1679
13124TIP3    H260864   3.537   4.585   3.360 -2.4351 -1.2698 -0.2101
13125TIP3   OH260865   0.663   1.037  16.509 -0.3007 -0.0878 -0.4864
13125TIP3    H160866   0.605   1.049  16.584 -0.0372 -0.0226 -0.2920
13125TIP3    H260867   0.700   0.949  16.521 -0.9657 -0.4552 -1.0320
13126TIP3   OH260868   3.989   3.636   1.142 -0.0100 -0.1664  0.5446
13126TIP3    H160869   3.968   3.567   1.079  2.0198 -0.5975  0.2646
13126TIP3    H260870   4.013   3.590   1.222  0.1810  0.2526  0.7332
13127TIP3   OH260871   4.911   3.607  17.199 -0.1445 -0.4497 -0.8492
13127TIP3    H160872   4.953   3.529  17.235  0.8261  0.6389  0.5115
13127TIP3    H260873   4.961   3.627  17.120  0.3011 -0.5772 -0.6033
13128TIP3   OH260874   1.081   1.641  13.464 -0.0804  0.1639 -0.0972
13128TIP3    H160875   1.129   1.721  13.488  1.3578 -0.5389 -0.5237
13128TIP3    H260876   0.993   1.672  13.442  0.4279  1.6318 -0.2156
13129TIP3   OH260877   5.246   3.748  12.694  0.0188  0.4352 -0.0682
13129TIP3    H160878   5.296   3.694  12.755  0.7950  0.3176 -0.7793
13129TIP3    H260879   5.155   3.739  12.723 -0.0990 -2.4281 -0.9659
13130TIP3   OH260880   1.705   3.970  12.964 -0.2449  0.4568 -0.8189
13130TIP3    H160881   1.799   3.977  12.945 -0.3125  1.2943 -0.8777
13130TIP3    H260882   1.662   3.986  12.880 -0.4203 -1.6642 -1.1786
13131TIP3   OH260883   6.601   5.040  12.538  0.5264 -0.8016 -0.3082
13131TIP3    H160884   6.552   5.108  12.491 -0.8109 -2.2631 -1.1222
13131TIP3    H260885   6.554   5.030  12.621  2.9278  1.8294  1.5685
13132TIP3   OH260886   1.983   1.917  16.052  0.3268  0.6225 -0.4785
13132TIP3    H160887   1.911   1.864  16.088  0.4846  1.5111  1.2470
13132TIP3    H260888   2.061   1.882  16.094  0.8517  0.1243 -1.8217
13133TIP3   OH260889   3.336   0.381   5.031 -0.0718  0.4952 -0.0722
13133TIP3    H160890   3.307   0.310   5.087  0.9268 -0.8323 -1.1692
13133TIP3    H260891   3.363   0.339   4.950  3.0928  1.7686  0.1709
13134TIP3   OH260892   0.562   4.373  14.214 -0.3760 -0.1828 -0.6146
13134TIP3    H160893   0.618   4.298  14.235 -0.8895 -0.6183 -0.7499
13134TIP3    H260894   0.505   4.340  14.144 -1.4533 -0.0757  0.1975
13135TIP3   OH260895   2.239   2.326   5.854  0.0930 -0.0106 -0.2357
13135TIP3    H160896   2.254   2.356   5.943 -0.0019 -1.1756  0.1995
13135TIP3    H260897   2.311   2.265   5.837 -0.7999 -1.0905 -0.3121
13136TIP3   OH260898   1.278   0.286  12.028 -0.4818  0.6119  0.1220
13136TIP3    H160899   1.302   0.347  12.098  0.5623  1.1856 -0.7006
13136TIP3    H260900   1.360   0.271  11.980 -0.4686 -2.2145  0.8576
13137TIP3   OH260901   2.311   2.706   3.173  0.0028  0.3216 -0.1459
13137TIP3    H160902   2.273   2.778   3.223  0.1280  1.2172 -1.3026
13137TIP3    H260903   2.268   2.628   3.208 -0.9163  1.0481  0.4042
13138TIP3   OH260904   4.068   2.986   6.446 -0.2790 -0.2653 -0.2116
13138TIP3    H160905   4.109   3.011   6.528 -0.8226 -2.0060  0.6328
13138TIP3    H260906   4.083   2.892   6.439 -2.7689 -0.7132 -0.6150
13139TIP3   OH260907   2.606   0.567   4.698  0.6165 -0.2157  0.6381
13139TIP3    H160908   2.582   0.615   4.777 -0.3726 -0.2630  0.3768
13139TIP3    H260909   2.583   0.476   4.719 -0.9593 -0.0323 -0.1952
13140TIP3   OH260910   2.927   4.304   5.656  0.4596  0.2269 -0.1533
13140TIP3    H160911   2.854   4.340   5.706  2.1669  1.0271  1.9179
13140TIP3    H260912   2.959   4.378   5.604  0.8441  0.3577  0.2619
13141TIP3   OH260913   4.095   1.886   3.226  0.0114 -0.4534  0.5081
13141TIP3    H160914   4.111   1.955   3.290  1.2247 -0.9718  0.7846
13141TIP3    H260915   4.035   1.826   3.271 -0.3313 -0.0449  0.5977
13142TIP3   OH260916   3.126   0.812   2.316 -0.2576 -0.1309  0.7493
13142TIP3    H160917   3.179   0.872   2.264 -1.0284 -0.7432 -0.8135
13142TIP3    H260918   3.184   0.784   2.387  0.6203  1.2190  0.5957
13143TIP3   OH260919   3.285   5.851   6.286 -0.0498 -0.7047  0.0669
13143TIP3    H160920   3.274   5.858   6.381  0.3137 -0.3478  0.0859
13143TIP3    H260921   3.202   5.883   6.250  0.5287  1.0806  0.2231
13144TIP3   OH260922   5.148   6.113   1.114  0.4916  0.3168  0.0992
13144TIP3    H160923   5.077   6.052   1.133 -0.0149  0.7950 -0.2364
13144TIP3    H260924   5.221   6.058   1.086  0.2579 -0.1761  0.4483
13145TIP3   OH260925   6.195   1.183  13.082 -0.6600  0.2202  0.5792
13145TIP3    H160926   6.165   1.219  13.166 -0.4328 -0.9762  1.1977
13145TIP3    H260927   6.140   1.227  13.017 -0.8982  1.1204  1.3459
13146TIP3   OH260928   5.070   3.477   1.748  0.4775 -0.3550 -0.6252
13146TIP3    H160929   5.010   3.417   1.791  1.6011  0.3466  2.1443
13146TIP3    H260930   5.021   3.559   1.740  0.3170 -0.4475 -0.5913
13147TIP3   OH260931   1.876   5.931  16.274  0.0006  0.6362 -0.4643
13147TIP3    H160932   1.895   5.874  16.349 -1.3191  0.1071 -0.5061
13147TIP3    H260933   1.868   5.871  16.200 -1.3867  0.8560 -0.5129
13148TIP3   OH260934   5.061   0.514  14.660  0.2678 -1.1533 -0.3565
13148TIP3    H160935   5.118   0.568  14.716  0.8904  0.1366 -2.1627
13148TIP3    H260936   5.114   0.495  14.583 -1.3903 -0.7975 -1.6388
13149TIP3   OH260937   6.393   5.727  12.593 -0.2367 -0.2972  0.4681
13149TIP3    H160938   6.417   5.780  12.517  0.2764 -2.0058 -0.6216
13149TIP3    H260939   6.333   5.661  12.558 -1.0626 -0.2974  1.8279
13150TIP3   OH260940   4.644   1.704  10.940  0.6490 -0.0835  1.0654
13150TIP3    H160941   4.569   1.758  10.965  1.0679  0.9800  0.1115
13150TIP3    H260942   4.616   1.660  10.859  0.5602 -0.7809  1.4658
13151TIP3   OH260943   4.409   4.909  14.458  0.1103 -0.3952 -0.7355
13151TIP3    H160944   4.485   4.905  14.517 -1.7595  0.4650  1.9105
13151TIP3    H260945   4.376   4.998  14.468 -3.0931 -1.6095  0.7773
13152TIP3   OH260946   1.470   6.494   5.778  0.4689 -0.6097 -0.4589
13152TIP3    H160947   1.421   6.439   5.839  0.9252 -1.4372 -0.8178
13152TIP3    H260948   1.447   6.460   5.692  0.0903  0.3298 -0.7335
13153TIP3   OH260949   4.686   3.456  13.188 -0.2115  0.3385 -0.0440
13153TIP3    H160950   4.645   3.542  13.191 -0.4408  0.2372 -0.2340
13153TIP3    H260951   4.622   3.397  13.228 -0.3613  0.1402 -0.5540
13154TIP3   OH260952   1.739   3.352  12.318  0.5198  0.1252 -0.0595
13154TIP3    H160953   1.669   3.356  12.384 -2.1159 -1.0996 -2.5639
13154TIP3    H260954   1.782   3.268  12.333 -0.5134 -0.4580 -0.2855
13155TIP3   OH260955   4.913   6.253  11.736  0.0050  0.5706 -0.3942
13155TIP3    H160956   4.853   6.243  11.663 -0.9438  0.4042  0.3819
13155TIP3    H260957   4.944   6.165  11.755 -0.5936  0.4542  0.0813
13156TIP3   OH260958   4.448   0.729  12.140 -0.8022  0.0030 -0.1838
13156TIP3    H160959   4.382   0.750  12.206 -2.2088 -0.6810 -1.3271
13156TIP3    H260960   4.409   0.757  12.057  0.6466  0.2294 -0.8237
13157TIP3   OH260961   3.766   1.386   3.172 -0.2998  0.6270  0.1916
13157TIP3    H160962   3.816   1.399   3.253  0.3677  0.5432 -0.2009
13157TIP3    H260963   3.736   1.473   3.148  0.4131  0.8149 -0.0429
13158TIP3   OH260964   6.159   5.515  12.393 -0.9338  0.1434  0.2738
13158TIP3    H160965   6.086   5.576  12.386 -1.3256 -0.4007 -0.4114
13158TIP3    H260966   6.133   5.454  12.462 -2.6224 -2.0304 -2.1296
13159TIP3   OH260967   3.987   4.240   4.739  0.1666 -0.3672  0.5482
13159TIP3    H160968   4.073   4.214   4.706 -0.5436 -2.4504  0.2271
13159TIP3    H260969   3.996   4.236   4.835  0.3453 -0.8137  0.5120
13160TIP3   OH260970   6.099   4.697   2.631 -0.2282  0.0108 -0.4029
13160TIP3    H160971   6.090   4.627   2.567  3.2289 -0.5619 -0.4690
13160TIP3    H260972   6.072   4.776   2.584 -0.9847 -0.8287 -1.4267
13161TIP3   OH260973   6.009   3.411   0.472 -0.1936  0.2759  0.6631
13161TIP3    H160974   5.969   3.398   0.386 -0.4885  0.1156  0.8234
13161TIP3    H260975   6.012   3.506   0.484  2.2087  0.4502 -0.6372
13162TIP3   OH260976   6.686   1.214   6.441 -0.4397 -0.1166 -0.3868
13162TIP3    H160977   6.621   1.179   6.502  0.6045 -2.6474 -0.5838
13162TIP3    H260978   6.639   1.219   6.357 -0.8501 -0.2803 -0.1729
13163TIP3   OH260979   1.156   6.670  15.900 -0.0370  0.3153  0.4270
13163TIP3    H160980   1.101   6.648  15.825 -0.9424  0.7489  0.9482
13163TIP3    H260981   1.125   6.756  15.929  1.7393  1.1474 -0.0097
13164TIP3   OH260982   5.738   0.110  11.519 -0.0058 -0.1459 -0.1079
13164TIP3    H160983   5.782   0.147  11.596  0.3070  1.0478 -0.8384
13164TIP3    H260984   5.646   0.137  11.529  0.0254 -0.0315 -0.1294
13165TIP3   OH260985   1.224   3.599  12.399  0.1467 -0.1163 -0.2796
13165TIP3    H160986   1.148   3.655  12.383  0.3166 -0.2866 -1.9020
13165TIP3    H260987   1.195   3.537  12.465 -0.6143  0.7782  0.2555
13166TIP3   OH260988   1.873   2.873   2.364 -0.7943 -0.3365  0.2999
13166TIP3    H160989   1.806   2.940   2.357  0.0500  0.6114  0.9591
13166TIP3    H260990   1.847   2.820   2.440 -1.5196 -0.8457 -0.2878
13167TIP3   OH260991   1.201   1.039  12.675  0.2075 -0.0350  0.2373
13167TIP3    H160992   1.118   1.053  12.719 -0.1340 -1.8565  0.2736
13167TIP3    H260993   1.234   0.956  12.712  0.9042 -0.5423 -1.4387
13168TIP3   OH260994   2.750   5.527  16.865 -0.3674 -0.1486  0.1597
13168TIP3    H160995   2.728   5.604  16.813 -1.2011  0.2972  1.1487
13168TIP3    H260996   2.840   5.507  16.841 -0.6684  0.1516 -1.3078
13169TIP3   OH260997   5.682   2.854   1.566  0.9454 -0.1163 -0.5327
13169TIP3    H160998   5.698   2.936   1.518 -0.5194  0.9998  0.8165
13169TIP3    H260999   5.652   2.882   1.652 -0.0464 -2.0907 -0.1950
13170TIP3   OH261000   4.908   4.179   0.033  0.1097  0.2766  0.1246
13170TIP3    H161001   4.960   4.259   0.028 -0.0229  0.5230  1.8383
13170TIP3    H261002   4.859   4.176  -0.049  0.5444  1.6576 -0.2028
13171TIP3   OH261003   0.142   1.775  11.597  0.2990  0.1968 -0.0323
13171TIP3    H161004   0.173   1.779  11.687  0.6375  0.1909 -0.1476
13171TIP3    H261005   0.173   1.691  11.564 -2.7330 -1.4477  0.8913
13172TIP3   OH261006   5.322   6.682  14.292 -0.4366 -0.3137  0.1726
13172TIP3    H161007   5.394   6.745  14.297 -0.3643 -0.2279 -1.5248
13172TIP3    H261008   5.289   6.676  14.382  0.3467  1.1946  0.5860
13173TIP3   OH261009   1.939   0.345  13.513 -0.9283 -0.5518 -0.6617
13173TIP3    H161010   1.863   0.299  13.549 -2.6692  1.4384 -1.6284
13173TIP3    H261011   1.964   0.408  13.581  0.6470 -1.9387  0.1240
13174TIP3   OH261012   1.211   1.749  11.113  0.5997 -0.2014  0.0135
13174TIP3    H161013   1.197   1.657  11.089  1.3879 -0.4783  0.5316
13174TIP3    H261014   1.241   1.791  11.032 -0.6546 -0.1804 -0.4529
13175TIP3   OH261015   1.398   6.506   5.202  0.2541  0.1839 -0.1610
13175TIP3    H161016   1.324   6.538   5.151  0.0713  0.0916  0.0474
13175TIP3    H261017   1.396   6.411   5.191  1.7634  0.3099 -2.1351
13176TIP3   OH261018   5.850   6.354   5.617  0.1565 -0.0790 -0.0563
13176TIP3    H161019   5.856   6.348   5.713  0.3170 -0.1373 -0.0684
13176TIP3    H261020   5.757   6.364   5.599  0.2631  1.8407  0.2104
13177TIP3   OH261021   4.631   6.105  13.048  0.2904  0.0722 -0.1630
13177TIP3    H161022   4.681   6.145  12.977 -0.1046  1.3669  0.2696
13177TIP3    H261023   4.678   6.024  13.068  2.0281  1.1079  0.0430
13178TIP3   OH261024   0.462   1.571   1.202 -0.1463 -0.1646  0.1145
13178TIP3    H161025   0.506   1.486   1.198  1.6413  0.7295 -0.4527
13178TIP3    H261026   0.448   1.595   1.110  0.8452  0.8448  0.2045
13179TIP3   OH261027   4.899   5.249  16.593 -0.3289 -0.0888 -0.2881
13179TIP3    H161028   4.974   5.307  16.578  0.0292 -0.0668  1.3342
13179TIP3    H261029   4.853   5.289  16.667  0.4467 -2.3065  1.5211
13180TIP3   OH261030   4.855   3.165  12.842  0.0811  0.1718  0.0413
13180TIP3    H161031   4.769   3.137  12.876  0.7064 -1.3458  0.4893
13180TIP3    H261032   4.882   3.235  12.901 -1.3231  1.4697 -0.7847
13181TIP3   OH261033   2.831   2.748  14.400 -0.2095 -0.3577 -0.7322
13181TIP3    H161034   2.820   2.738  14.305 -0.3644 -1.6270 -0.6035
13181TIP3    H261035   2.889   2.676  14.425  1.4399  1.1059 -0.1283
13182TIP3   OH261036   5.520   5.538  12.813 -0.4265 -0.3243 -0.2097
13182TIP3    H161037   5.470   5.598  12.869  0.7790 -0.6527  1.2777
13182TIP3    H261038   5.466   5.459  12.809 -0.8142 -0.0765 -0.0491
13183TIP3   OH261039   1.010   2.091  16.549  0.0945 -0.2026  0.3213
13183TIP3    H161040   0.974   2.003  16.533  1.5807 -0.8040  0.1629
13183TIP3    H261041   0.933   2.147  16.554 -0.8386 -1.3265 -0.7337
13184TIP3   OH261042   2.074   5.693   4.684 -0.6643  0.3880  0.1416
13184TIP3    H161043   2.101   5.699   4.592  1.7000  0.6931  0.7833
13184TIP3    H261044   2.110   5.609   4.714 -1.3990  0.2999  0.8122
13185TIP3   OH261045   2.334   4.302  12.249 -0.2275 -0.1045  0.2792
13185TIP3    H161046   2.265   4.236  12.249 -0.5693  0.2308 -0.8917
13185TIP3    H261047   2.354   4.316  12.157  2.6204 -1.4439  0.5884
13186TIP3   OH261048   3.954   6.210  11.299  0.3039 -0.0258  0.1142
13186TIP3    H161049   4.009   6.145  11.342 -0.5839 -1.5961 -1.0203
13186TIP3    H261050   4.016   6.277  11.270  2.0300 -2.5709 -2.7132
13187TIP3   OH261051   4.740   0.792   4.373 -0.8699 -0.0723  0.0288
13187TIP3    H161052   4.705   0.868   4.326 -0.0088  0.4919  0.2688
13187TIP3    H261053   4.776   0.735   4.305 -0.0009  0.5450 -0.0465
13188TIP3   OH261054   2.297   4.106   5.631 -0.2740 -0.0555 -0.1392
13188TIP3    H161055   2.342   4.069   5.555 -2.1050 -2.1003 -0.3545
13188TIP3    H261056   2.206   4.079   5.619 -0.9668  1.2555  1.8118
13189TIP3   OH261057   1.891   6.201   1.541  0.2892 -0.7759  0.0811
13189TIP3    H161058   1.893   6.288   1.580 -1.1375 -1.2892  1.4125
13189TIP3    H261059   1.904   6.141   1.615  0.6148 -1.7245 -0.7150
13190TIP3   OH261060   1.411   4.004  10.906 -0.1572 -0.1683  0.0654
13190TIP3    H161061   1.464   4.035  10.980  0.4929  0.0322 -0.4805
13190TIP3    H261062   1.437   4.059  10.832 -0.2054 -0.9004 -0.5112
13191TIP3   OH261063   2.937   4.302  16.207 -0.3113 -0.3602  0.1676
13191TIP3    H161064   3.016   4.315  16.155  0.5022 -0.5111  1.3201
13191TIP3    H261065   2.910   4.213  16.188 -1.3034  0.2704 -1.6419
13192TIP3   OH261066   5.030   6.659   5.380 -0.0346  0.2284 -0.2610
13192TIP3    H161067   5.005   6.737   5.330  0.1473  0.2382 -0.3365
13192TIP3    H261068   5.120   6.641   5.353  0.0953  0.2846  0.1308
13193TIP3   OH261069   5.112   5.104   4.328 -0.6712  0.4823 -0.5921
13193TIP3    H161070   5.049   5.038   4.353 -0.9069  0.8335 -0.2555
13193TIP3    H261071   5.079   5.139   4.245 -0.8767  0.6100 -0.4564
13194TIP3   OH261072   5.414   0.039   0.867  0.3075  0.4669 -0.1819
13194TIP3    H161073   5.490   0.080   0.908  0.3713  0.0150  0.1611
13194TIP3    H261074   5.422   0.060   0.774  0.1336  1.5482  0.0350
13195TIP3   OH261075   0.130   4.515   2.817  0.4156  0.6797  0.4287
13195TIP3    H161076   0.193   4.504   2.746  0.1848 -0.8118  0.4238
13195TIP3    H261077   0.108   4.608   2.815 -0.8357  0.4389 -2.5414
13196TIP3   OH261078   3.035   0.771   5.002 -0.1871  0.0492  0.1495
13196TIP3    H161079   3.062   0.757   4.911  1.3069  3.0509  0.0074
13196TIP3    H261080   2.969   0.839   4.998  0.4613  0.7922  1.3211
13197TIP3   OH261081   4.655   2.605   1.799 -0.2260  0.2530  0.1787
13197TIP3    H161082   4.589   2.563   1.853 -0.8397 -0.0719 -0.7947
13197TIP3    H261083   4.647   2.698   1.819  1.6560 -0.0853  2.9167
13198TIP3   OH261084   2.817   4.354   2.134  0.2295 -0.2277  0.2074
13198TIP3    H161085   2.733   4.322   2.100 -0.3455  0.6065  0.8190
13198TIP3    H261086   2.868   4.375   2.055 -1.0373  1.5699 -0.1973
13199TIP3   OH261087   1.825   4.986   0.406 -0.0690  0.4470 -0.4446
13199TIP3    H161088   1.742   4.941   0.388  0.4211 -0.3998 -0.6067
13199TIP3    H261089   1.801   5.057   0.466 -1.0858  0.8846 -1.3324
13200TIP3   OH261090   6.405   0.520   6.187 -0.2942 -0.4375 -0.4104
13200TIP3    H161091   6.353   0.459   6.239 -1.4691 -0.5077 -1.6135
13200TIP3    H261092   6.493   0.514   6.225 -0.8535 -1.2926  0.8381
13201TIP3   OH261093   4.499   6.670  15.734 -0.1497  1.1173 -0.1632
13201TIP3    H161094   4.527   6.656  15.825 -1.0551 -0.2750 -0.0730
13201TIP3    H261095   4.405   6.687  15.741 -0.4094  0.0609 -0.9054
13202TIP3   OH261096   1.692   4.621   0.442  0.3619 -0.2681 -0.2267
13202TIP3    H161097   1.730   4.536   0.419  0.5512 -0.5129  0.9160
13202TIP3    H261098   1.685   4.668   0.359  0.7453 -1.2067 -0.8001
13203TIP3   OH261099   6.311   1.943  15.828  0.1288 -0.3210  0.5962
13203TIP3    H161100   6.393   1.898  15.846  0.6291  0.4293  0.2810
13203TIP3    H261101   6.314   2.021  15.884 -1.5454 -1.5473  2.4974
13204TIP3   OH261102   1.318   6.472  14.639 -0.2996 -1.1460 -0.0089
13204TIP3    H161103   1.236   6.432  14.665 -0.4036  0.2795  2.0451
13204TIP3    H261104   1.382   6.439  14.702  0.0300  0.1811  0.3917
13205TIP3   OH261105   1.964   0.803  17.309 -0.3897  0.2901  0.2679
13205TIP3    H161106   1.996   0.787  17.220 -1.3142 -0.0584 -0.0146
13205TIP3    H261107   1.872   0.828  17.297 -1.2229 -2.0639  1.2622
13206TIP3   OH261108   5.880   6.077   1.153  0.2803  0.0259 -0.4607
13206TIP3    H161109   5.790   6.103   1.171  0.6780  0.2880  1.3702
13206TIP3    H261110   5.899   6.115   1.067 -0.8449  1.3142 -0.1779
13207TIP3   OH261111   6.152   2.407  10.590  0.4939 -0.2751 -0.2052
13207TIP3    H161112   6.145   2.315  10.566 -0.5242 -0.4481  0.6879
13207TIP3    H261113   6.106   2.414  10.674  2.3376  0.6466  0.8022
13208TIP3   OH261114   3.217   4.449  14.941 -0.4044 -0.0513 -0.0282
13208TIP3    H161115   3.145   4.490  14.989 -0.6088 -0.8615  0.3918
13208TIP3    H261116   3.293   4.460  14.997 -0.5690 -0.6886  0.3290
13209TIP3   OH261117   5.414   1.867   2.717  0.2459  0.1809  0.1275
13209TIP3    H161118   5.449   1.791   2.763  1.5051  0.4954 -0.2629
13209TIP3    H261119   5.489   1.902   2.668 -0.1060  2.0986  0.8583
13210TIP3   OH261120   0.866   5.079  16.839  0.3192  0.6224 -0.2326
13210TIP3    H161121   0.922   5.142  16.794  0.0196  1.5131  0.5982
13210TIP3    H261122   0.782   5.123  16.848 -0.2256 -0.3126 -0.5652
13211TIP3   OH261123   2.154   3.405   1.339 -0.0468 -0.3119 -0.6558
13211TIP3    H161124   2.060   3.421   1.342  0.0041  0.0036 -0.7070
13211TIP3    H261125   2.176   3.408   1.246 -0.1524 -1.4061 -0.7385
13212TIP3   OH261126   2.553   3.944  14.589  0.3655 -0.1806 -0.1924
13212TIP3    H161127   2.543   4.024  14.538  1.1277 -0.5313 -0.9377
13212TIP3    H261128   2.493   3.882  14.547  1.7242 -0.7745 -1.3874
13213TIP3   OH261129   5.003   0.621   2.405  0.1924 -0.5643  0.3087
13213TIP3    H161130   4.988   0.714   2.393  1.2946 -0.6369 -2.5136
13213TIP3    H261131   4.972   0.581   2.323 -2.2590 -3.0082  2.2318
13214TIP3   OH261132   5.130   2.206  13.473 -0.5925  0.1001  0.0996
13214TIP3    H161133   5.212   2.230  13.515  0.0082  0.8239 -1.4045
13214TIP3    H261134   5.127   2.111  13.477  1.1374 -0.0462 -1.2528
13215TIP3   OH261135   0.542   5.115   3.496 -0.2942 -0.0172  0.0992
13215TIP3    H161136   0.607   5.181   3.472 -2.0541  1.2581 -1.4520
13215TIP3    H261137   0.494   5.098   3.415 -1.6406 -1.2274  1.0983
13216TIP3   OH261138   0.842   1.404  15.195  0.4828  0.0372  0.2222
13216TIP3    H161139   0.849   1.328  15.254  0.6921 -0.1581 -0.0504
13216TIP3    H261140   0.892   1.378  15.118  0.3761  0.3733  0.0413
13217TIP3   OH261141   6.727   2.601   5.541 -0.4824 -0.5446 -0.3511
13217TIP3    H161142   6.668   2.543   5.492 -2.2812 -0.3928  1.5018
13217TIP3    H261143   6.673   2.677   5.562  0.5439 -0.1313  0.9391
13218TIP3   OH261144   2.438   1.014  15.404  0.7698  0.1642  0.6129
13218TIP3    H161145   2.351   1.044  15.430  1.2204  0.1804  2.1590
13218TIP3    H261146   2.438   0.920  15.423  1.3370  0.3071  1.3535
13219TIP3   OH261147   0.215   6.534   5.602  0.1353 -0.6848 -0.1033
13219TIP3    H161148   0.174   6.587   5.670  0.7791 -1.4737  0.9129
13219TIP3    H261149   0.165   6.453   5.601  3.5842 -3.2325  3.6709
13220TIP3   OH261150   2.438   6.449  14.704  0.4837 -0.2056  0.3331
13220TIP3    H161151   2.451   6.515  14.635 -2.9549 -0.4804 -0.7607
13220TIP3    H261152   2.411   6.498  14.781 -0.1713 -0.1699  0.0882
13221TIP3   OH261153   2.221   0.156  12.113  0.0132 -0.0550  0.1340
13221TIP3    H161154   2.297   0.123  12.162  0.7934  0.5495 -0.6499
13221TIP3    H261155   2.220   0.104  12.033  0.3639  0.8051 -0.4347
13222TIP3   OH261156   3.700   2.791   4.709  1.0297 -0.3179  0.3973
13222TIP3    H161157   3.779   2.782   4.655  0.4774  1.2609 -0.7261
13222TIP3    H261158   3.640   2.725   4.675  0.5433  0.9244 -1.2280
13223TIP3   OH261159   1.410   5.987  15.671 -0.0294 -0.5270 -0.3584
13223TIP3    H161160   1.447   5.951  15.752 -0.4895 -3.8310 -1.4593
13223TIP3    H261161   1.470   5.958  15.602 -0.2916  1.1780 -1.3515
13224TIP3   OH261162   3.207   0.975  13.107  0.0416  0.0453  0.7321
13224TIP3    H161163   3.120   0.951  13.139 -1.3194  1.8173 -1.3000
13224TIP3    H261164   3.265   0.958  13.180 -1.8852 -1.9656  1.9091
13225TIP3   OH261165   3.483   1.180   4.249 -0.1921 -0.6231 -0.0456
13225TIP3    H161166   3.413   1.171   4.314  0.4823 -0.1569  0.7703
13225TIP3    H261167   3.561   1.199   4.301  0.3771 -0.3038 -0.9943
13226TIP3   OH261168   0.521   5.921   5.928  0.0594  0.3160  0.5434
13226TIP3    H161169   0.545   5.848   5.870  1.9838  1.7845 -0.6159
13226TIP3    H261170   0.425   5.924   5.923 -0.0257 -1.6815  0.0912
13227TIP3   OH261171   4.229   3.675   6.635  0.2156 -0.1307  0.0748
13227TIP3    H161172   4.218   3.679   6.730 -0.2677 -0.4566  0.0350
13227TIP3    H261173   4.273   3.591   6.620 -1.5057 -1.0282 -0.1401
13228TIP3   OH261174   2.666   6.305  15.003  0.6560 -0.0359  0.1927
13228TIP3    H161175   2.674   6.223  14.955  2.7389 -0.2684  0.8456
13228TIP3    H261176   2.592   6.291  15.062  0.3118 -1.0435 -0.4558
13229TIP3   OH261177   6.517   5.127   0.189  0.2806  0.5485  0.6668
13229TIP3    H161178   6.464   5.086   0.257 -1.0920  0.2704 -0.5273
13229TIP3    H261179   6.458   5.137   0.115  2.0359 -0.3425 -0.9627
13230TIP3   OH261180   5.880   4.882   0.760  0.4742  0.0877 -0.4111
13230TIP3    H161181   5.789   4.853   0.770  0.9400 -1.3205 -0.0798
13230TIP3    H261182   5.926   4.843   0.834  1.6651 -0.5741 -1.4698
13231TIP3   OH261183   5.736   2.964   5.517 -0.0264 -0.6362  0.4162
13231TIP3    H161184   5.764   3.010   5.596  3.8610 -0.8575 -0.6551
13231TIP3    H261185   5.720   2.874   5.546  0.7041 -0.5615  1.0601
13232TIP3   OH261186   3.674   0.903  12.514  0.2449  0.0975 -0.4588
13232TIP3    H161187   3.657   0.829  12.455 -0.3702  2.8547 -4.1492
13232TIP3    H261188   3.608   0.893  12.583  0.0782 -2.6481 -0.8774
13233TIP3   OH261189   2.088   0.832   4.973 -0.3524 -0.6930  0.3829
13233TIP3    H161190   2.059   0.881   4.896  0.3573 -0.7871  0.0457
13233TIP3    H261191   2.045   0.875   5.047 -1.4025 -0.8870 -0.0969
13234TIP3   OH261192   1.814   5.614  17.383 -0.3161  0.3046 -0.0494
13234TIP3    H161193   1.796   5.590  17.474 -0.8717  2.2127  0.3744
13234TIP3    H261194   1.767   5.548  17.332 -2.3067  0.7637  1.0616
13235TIP3   OH261195   5.520   1.145   1.145  0.0012 -0.2814  0.8063
13235TIP3    H161196   5.427   1.163   1.129  0.6558  2.0437 -0.9824
13235TIP3    H261197   5.543   1.206   1.215  0.4994  0.2491  0.1873
13236TIP3   OH261198   5.512   4.184   3.026  0.1113  0.1936  0.1879
13236TIP3    H161199   5.534   4.246   2.957  0.8596  0.2953  0.5138
13236TIP3    H261200   5.577   4.115   3.019 -1.1104 -0.9196 -0.5981
13237TIP3   OH261201   0.869   2.694  14.583  0.5036 -0.9312 -0.3284
13237TIP3    H161202   0.880   2.703  14.677 -2.0888  2.6409 -0.1565
13237TIP3    H261203   0.825   2.610  14.571  1.2761 -1.6479  1.5556
13238TIP3   OH261204   5.285   6.203  17.193 -0.2828 -0.1823 -0.2452
13238TIP3    H161205   5.374   6.237  17.190 -0.4115  0.3633  1.1938
13238TIP3    H261206   5.269   6.167  17.106  1.3494 -0.3245 -0.5046
13239TIP3   OH261207   1.929   4.383   3.520  0.4068 -0.1036  0.1431
13239TIP3    H161208   1.902   4.321   3.451 -1.4441  0.2642  0.4712
13239TIP3    H261209   1.985   4.446   3.476  0.9038 -1.0341 -0.5811
13240TIP3   OH261210   3.312   1.570   1.999  0.1084 -0.2321  0.7576
13240TIP3    H161211   3.257   1.503   2.038 -0.9341  0.1963  0.0874
13240TIP3    H261212   3.256   1.611   1.932  0.1783  2.2771  2.1068
13241TIP3   OH261213   4.320   4.092  14.007 -0.2531  0.1960 -0.1980
13241TIP3    H161214   4.373   4.086  13.928 -0.4263  1.2577 -0.4094
13241TIP3    H261215   4.351   4.171  14.051 -0.6205 -0.0096  0.4497
13242TIP3   OH261216   3.814   5.640  14.247  0.8091 -0.4936 -0.3649
13242TIP3    H161217   3.797   5.712  14.308 -1.8491  0.9966 -2.6009
13242TIP3    H261218   3.884   5.672  14.191  1.7149 -0.9428  0.4931
13243TIP3   OH261219   5.393   0.907  14.214 -0.0169 -0.4846  0.3987
13243TIP3    H161220   5.389   0.908  14.310 -2.0964  1.5632  0.3719
13243TIP3    H261221   5.336   0.834  14.189 -0.8472  0.0298  0.7387
13244TIP3   OH261222   4.373   0.178  11.606  0.4806  0.4863  0.4554
13244TIP3    H161223   4.417   0.188  11.690  2.7097  1.8474 -0.7613
13244TIP3    H261224   4.354   0.267  11.578 -1.7140 -0.0086  0.1747
13245TIP3   OH261225   4.346   6.648   3.352  0.8941  0.5782 -0.1995
13245TIP3    H161226   4.416   6.713   3.361  0.1035  1.4008  0.1503
13245TIP3    H261227   4.305   6.645   3.439  1.0667 -0.5703 -0.1428
13246TIP3   OH261228   3.237   0.109  14.986 -0.4204 -0.2134  0.6668
13246TIP3    H161229   3.248   0.137  15.077 -0.7675  0.2202  0.5769
13246TIP3    H261230   3.180   0.175  14.947  1.8455  1.1316 -0.5937
13247TIP3   OH261231   6.098   4.531  12.760 -0.1085  0.6149  0.1123
13247TIP3    H161232   6.037   4.499  12.694 -0.2220 -0.5238  0.7310
13247TIP3    H261233   6.043   4.550  12.836 -0.0485  2.4053 -0.2478
13248TIP3   OH261234   4.568   0.347   0.971  0.1385  0.4742 -0.1203
13248TIP3    H161235   4.540   0.332   1.061 -0.1367  0.8733 -0.1344
13248TIP3    H261236   4.605   0.264   0.943  0.7392  0.5141  0.5415
13249TIP3   OH261237   3.286   3.966   1.799 -0.0479 -0.2200 -0.7896
13249TIP3    H161238   3.357   4.018   1.760 -0.0727  0.2528 -0.2080
13249TIP3    H261239   3.262   4.014   1.878  0.1760 -1.3082 -0.0438
13250TIP3   OH261240   3.474   0.201  13.075  0.3402  0.0097  0.3403
13250TIP3    H161241   3.498   0.244  13.157 -0.0657 -1.1075  1.0808
13250TIP3    H261242   3.414   0.131  13.102 -1.2967  0.7776 -1.0954
13251TIP3   OH261243   1.381   6.564  15.787  0.5643  0.4744 -0.2660
13251TIP3    H161244   1.330   6.613  15.851  0.6706  1.1047 -0.6526
13251TIP3    H261245   1.425   6.496  15.838 -0.4045  0.1140  0.1229
13252TIP3   OH261246   2.571   6.341  15.420 -0.3579  0.0166  0.4029
13252TIP3    H161247   2.489   6.319  15.376  0.0664 -0.9633  0.0745
13252TIP3    H261248   2.565   6.298  15.505  0.1407 -0.6989  0.0753
13253TIP3   OH261249   2.967   0.979   2.056 -0.5593 -0.2405  0.6530
13253TIP3    H161250   3.026   1.054   2.052 -0.6390 -0.1918  0.4223
13253TIP3    H261251   3.025   0.903   2.056 -0.4784 -0.1813  0.8846
13254TIP3   OH261252   3.286   5.223   2.376  0.2659 -0.4001 -0.0733
13254TIP3    H161253   3.293   5.137   2.415  1.4339  0.2367  1.2167
13254TIP3    H261254   3.350   5.222   2.304 -2.0490 -1.6478 -2.2788
13255TIP3   OH261255   0.820   1.361   2.283 -0.6009 -0.1234  0.2364
13255TIP3    H161256   0.857   1.383   2.368 -2.7533  0.4740  1.0922
13255TIP3    H261257   0.895   1.339   2.228  0.9421  0.8232  1.8857
13256TIP3   OH261258   1.910   5.173   2.333  0.1951 -0.1782 -0.5365
13256TIP3    H161259   1.956   5.186   2.250  0.0214 -0.7601 -0.7329
13256TIP3    H261260   1.913   5.078   2.347 -2.2636 -0.4566 -1.3583
13257TIP3   OH261261   5.929   0.875  16.808  0.2675  0.3390 -0.0371
13257TIP3    H161262   5.908   0.793  16.763  1.2877 -1.3290  2.3768
13257TIP3    H261263   5.979   0.925  16.743  0.7998 -1.4952 -1.1182
13258TIP3   OH261264   3.060   4.612  12.722  0.0691  0.1036  0.4315
13258TIP3    H161265   3.044   4.707  12.720 -2.3397 -0.2156 -2.2849
13258TIP3    H261266   3.140   4.600  12.671 -0.5563  0.6203 -0.7270
13259TIP3   OH261267   4.787   1.294   3.041 -0.2493  0.3150  0.4286
13259TIP3    H161268   4.839   1.346   2.980 -1.7842 -0.0201 -1.2430
13259TIP3    H261269   4.707   1.272   2.993 -1.3322 -0.3687  2.4092
13260TIP3   OH261270   4.822   4.368   0.503 -0.0450  0.5141  0.2157
13260TIP3    H161271   4.776   4.367   0.587  3.0070 -2.8469  2.1191
13260TIP3    H261272   4.915   4.376   0.526  0.9440 -0.7428 -2.7665
13261TIP3   OH261273   0.497   0.220  14.736  0.1413 -0.3648 -0.3380
13261TIP3    H161274   0.554   0.153  14.773  0.3007 -0.7939 -1.3418
13261TIP3    H261275   0.542   0.250  14.658  0.6897  1.8202  0.7185
13262TIP3   OH261276   3.550   3.108   6.988  0.8576  0.0686  0.2263
13262TIP3    H161277   3.488   3.181   6.989 -0.2968 -0.8375 -1.3952
13262TIP3    H261278   3.498   3.033   7.018  0.5646 -1.0738 -2.8223
13263TIP3   OH261279   1.065   1.456  11.775  0.5716  0.1869  0.2664
13263TIP3    H161280   1.137   1.404  11.809  0.3714  0.9956  2.0579
13263TIP3    H261281   1.104   1.509  11.706  1.1346 -1.1069 -0.4332
13264TIP3   OH261282   5.321   3.538   1.634 -0.6339  0.1296 -0.0304
13264TIP3    H161283   5.240   3.515   1.677 -0.6390  0.8181  0.3397
13264TIP3    H261284   5.302   3.530   1.540 -1.1429  0.3411  0.0549
13265TIP3   OH261285   2.806   0.201  16.331  0.4033 -0.3921 -0.0270
13265TIP3    H161286   2.731   0.259  16.315  1.3682  1.0292  0.3502
13265TIP3    H261287   2.790   0.164  16.418 -0.4653 -1.0866 -0.4771
13266TIP3   OH261288   5.597   2.465  15.789 -0.3056  0.4779 -0.2081
13266TIP3    H161289   5.517   2.423  15.758 -0.1709 -0.5234  0.7294
13266TIP3    H261290   5.620   2.527  15.720 -0.2217 -1.3790 -1.9619
13267TIP3   OH261291   0.442   3.227   4.975  0.3174  0.2431 -0.0936
13267TIP3    H161292   0.453   3.316   4.941  1.1778 -0.6182 -2.2700
13267TIP3    H261293   0.484   3.171   4.910 -1.4750 -1.8893  0.4391
13268TIP3   OH261294   1.233   0.998   3.379  0.5112  0.0544  0.2571
13268TIP3    H161295   1.279   0.976   3.460  0.0634 -0.0828  0.4752
13268TIP3    H261296   1.281   1.073   3.344  0.3770  0.4724  0.9412
13269TIP3   OH261297   6.000   5.812   0.770 -0.1269 -0.2400 -0.3473
13269TIP3    H161298   5.926   5.802   0.830  0.4451 -2.0776  0.1157
13269TIP3    H261299   6.064   5.865   0.819  0.4916 -2.0359  0.8930
13270TIP3   OH261300   1.419   0.938  15.924 -0.2130  0.5205  0.2674
13270TIP3    H161301   1.408   0.844  15.910 -1.7529  1.0284 -2.6597
13270TIP3    H261302   1.351   0.961  15.987  0.2145 -0.3318  1.0522
13271TIP3   OH261303   2.331   2.602   2.078 -0.1065 -0.7229  0.5376
13271TIP3    H161304   2.375   2.613   1.994 -0.2015  1.6856  0.7422
13271TIP3    H261305   2.281   2.520   2.068 -2.2853  0.7655 -2.7839
13272TIP3   OH261306   4.328   6.465  16.708  0.3768  0.6283 -0.3861
13272TIP3    H161307   4.292   6.554  16.712  0.6574  0.8747 -2.3225
13272TIP3    H261308   4.396   6.464  16.775 -2.3217  0.5065  2.5922
13273TIP3   OH261309   0.904   5.308   0.094  0.2601 -0.5362 -0.0115
13273TIP3    H161310   0.880   5.279   0.182 -0.4899 -1.1918 -0.4230
13273TIP3    H261311   0.916   5.227   0.044 -0.1985 -0.1679 -0.7374
13274TIP3   OH261312   5.780   4.227   5.320  0.2495  0.1789  0.2594
13274TIP3    H161313   5.853   4.175   5.354  0.7100  1.2094  0.8977
13274TIP3    H261314   5.810   4.318   5.327 -1.2305  0.6493  0.8471
13275TIP3   OH261315   2.059   2.770  11.519 -0.1440  0.6939 -0.4578
13275TIP3    H161316   1.992   2.823  11.562 -0.0721  0.6983 -0.3501
13275TIP3    H261317   2.011   2.713  11.460 -0.3520 -0.1531  0.4899
13276TIP3   OH261318   0.184   2.988   5.342 -0.2996  0.4184 -0.5061
13276TIP3    H161319   0.199   3.083   5.344  1.4224  0.1998 -1.2940
13276TIP3    H261320   0.173   2.967   5.250 -0.5883 -0.1683 -0.3458
13277TIP3   OH261321   3.949   6.554   0.479  0.2858  0.0281  0.0803
13277TIP3    H161322   3.944   6.638   0.434 -0.6071  0.7662  1.4765
13277TIP3    H261323   3.995   6.573   0.560 -1.1617 -0.5050  1.0658
13278TIP3   OH261324   3.623   6.276  15.287  0.3014 -0.0018  0.1191
13278TIP3    H161325   3.532   6.267  15.313  0.2461  0.0693 -0.0510
13278TIP3    H261326   3.672   6.230  15.355  0.1656  0.3255  0.4374
13279TIP3   OH261327   0.949   4.950   4.065  0.7033  0.0906  0.0097
13279TIP3    H161328   0.862   4.927   4.096  1.4960 -1.1640  1.4685
13279TIP3    H261329   0.984   5.009   4.131  0.0538  2.7683 -1.8906
13280TIP3   OH261330   6.594   1.335   3.006 -0.3420  0.5659  0.1611
13280TIP3    H161331   6.577   1.266   3.069 -0.3880  0.7955  0.4008
13280TIP3    H261332   6.558   1.302   2.924 -0.7261  0.4792  0.3630
13281TIP3   OH261333   1.792   5.739  13.291 -0.2445  0.0908  0.5076
13281TIP3    H161334   1.873   5.790  13.288 -0.9622  1.2607 -2.3122
13281TIP3    H261335   1.817   5.652  13.262  0.3154 -0.1371  1.6206
13282TIP3   OH261336   2.682   0.662  10.942  0.0917 -0.0921  0.4946
13282TIP3    H161337   2.660   0.749  10.974 -0.7379 -0.4357  0.8943
13282TIP3    H261338   2.754   0.676  10.880  0.5960  0.7665  1.2503
13283TIP3   OH261339   2.109   6.588  13.113  0.1024  0.3602 -0.1222
13283TIP3    H161340   2.146   6.674  13.133  0.5065  0.5188 -1.4629
13283TIP3    H261341   2.095   6.589  13.018 -1.4005 -0.4732  0.0513
13284TIP3   OH261342   4.446   0.113   3.187  0.0163  0.0300 -0.4736
13284TIP3    H161343   4.526   0.064   3.165 -0.1303 -0.2540 -0.3861
13284TIP3    H261344   4.376   0.059   3.152 -0.2000 -0.2156  0.3161
13285TIP3   OH261345   1.967   0.768   4.443  0.1672 -0.6231 -0.1515
13285TIP3    H161346   1.922   0.748   4.525 -0.1389  0.1494 -0.1191
13285TIP3    H261347   1.983   0.683   4.402 -2.2558 -0.8936 -0.6628
13286TIP3   OH261348   6.361   1.898  16.174 -0.1262 -0.1640  0.1898
13286TIP3    H161349   6.328   1.958  16.241 -0.7467 -2.0420  1.6526
13286TIP3    H261350   6.332   1.812  16.203  1.5824 -1.3120 -1.3118
13287TIP3   OH261351   6.135   5.751  15.344 -0.3999  0.2358 -0.6193
13287TIP3    H161352   6.166   5.700  15.420 -2.2498 -1.0007 -0.6307
13287TIP3    H261353   6.087   5.825  15.383  0.0974  0.5526 -0.6002
13288TIP3   OH261354   0.428   6.313   0.996 -0.0601 -0.1886  0.1319
13288TIP3    H161355   0.349   6.266   1.021 -0.2796  0.7047  1.1927
13288TIP3    H261356   0.397   6.393   0.954  0.1956  1.2198  2.4954
13289TIP3   OH261357   2.928   4.121   1.925  0.3008  0.0011  0.1185
13289TIP3    H161358   2.849   4.081   1.959  0.7521 -0.4707  0.6363
13289TIP3    H261359   2.943   4.077   1.841 -1.2571  1.7282 -1.1357
13290TIP3   OH261360   6.263   2.493   4.598 -0.8081 -0.2264 -0.5495
13290TIP3    H161361   6.346   2.498   4.647 -0.7332 -0.1158 -0.6866
13290TIP3    H261362   6.254   2.401   4.575 -1.7932 -0.6540  1.3212
13291TIP3   OH261363   0.918   2.641   2.706  0.9784 -0.3953  0.1505
13291TIP3    H161364   0.916   2.618   2.799  3.0643  1.6407  0.8024
13291TIP3    H261365   0.930   2.736   2.705 -0.7294 -0.1256 -2.2597
13292TIP3   OH261366   2.996   4.104  13.444  0.3051  0.5492 -0.2451
13292TIP3    H161367   2.932   4.040  13.475  0.0250  0.6489 -0.6144
13292TIP3    H261368   2.944   4.168  13.396  0.7746  0.1745 -1.2841
13293TIP3   OH261369   6.584   6.448  13.193  0.0592  0.1638 -0.1487
13293TIP3    H161370   6.576   6.506  13.118  0.6054 -0.2091 -0.5080
13293TIP3    H261371   6.535   6.369  13.169 -0.9407  0.5745  0.4617
13294TIP3   OH261372   0.199   4.485  11.856 -0.0108  0.5681 -0.5568
13294TIP3    H161373   0.205   4.473  11.950 -0.2106  1.7277 -0.3802
13294TIP3    H261374   0.116   4.443  11.831  1.0654 -1.6796 -0.5902
13295TIP3   OH261375   0.060   3.929   0.225 -0.9537  0.3748 -0.3401
13295TIP3    H161376   0.118   3.988   0.273 -0.8545  0.7565 -0.9274
13295TIP3    H261377   0.003   3.892   0.292 -0.3019  0.3016  0.1929
13296TIP3   OH261378   0.245   4.468   6.487  0.6426 -0.2493  0.4297
13296TIP3    H161379   0.339   4.450   6.492  0.5030 -1.6560 -1.3063
13296TIP3    H261380   0.226   4.516   6.568  2.4611 -1.6558  1.7733
13297TIP3   OH261381   6.642   1.987  11.922 -0.1976  0.5456  0.1652
13297TIP3    H161382   6.635   1.957  11.832  0.3648 -3.5491  1.2978
13297TIP3    H261383   6.650   2.082  11.915 -0.3467  0.4245 -4.0299
13298TIP3   OH261384   5.168   3.330   0.862 -0.2361  0.0593  0.3572
13298TIP3    H161385   5.245   3.385   0.876 -0.7138  0.6682  0.5911
13298TIP3    H261386   5.204   3.241   0.854  0.8227  0.6151 -2.4608
13299TIP3   OH261387   0.980   5.080   5.505 -0.0643 -0.2195 -0.0203
13299TIP3    H161388   0.944   5.166   5.484 -0.2943 -0.3026  0.0318
13299TIP3    H261389   0.917   5.018   5.467  0.5022 -0.3614 -0.7415
13300TIP3   OH261390   5.146   2.524   2.714  0.2735 -0.2261  0.3359
13300TIP3    H161391   5.154   2.618   2.730  2.3725 -0.4871  1.2124
13300TIP3    H261392   5.204   2.508   2.639 -0.7853 -0.7084 -0.4020
13301TIP3   OH261393   3.491   0.032  11.630 -0.5022 -0.2512 -0.1687
13301TIP3    H161394   3.520   0.047  11.540  0.1978  0.6809  0.2011
13301TIP3    H261395   3.401   0.002  11.621 -0.8147  0.8885 -1.1300
13302TIP3   OH261396   1.445   2.784  12.615 -0.3149 -0.2834  0.6067
13302TIP3    H161397   1.538   2.766  12.601 -0.3736 -0.2573  0.1596
13302TIP3    H261398   1.433   2.874  12.586 -0.6407 -0.5551 -0.1481
13303TIP3   OH261399   3.009   3.304   6.014 -0.3289 -0.1091  0.3872
13303TIP3    H161400   3.102   3.282   6.009 -0.9592 -2.9529 -1.0952
13303TIP3    H261401   2.967   3.223   6.043 -2.3959  0.9874  0.6085
13304TIP3   OH261402   0.782   4.081  14.509  0.5381 -0.1135  0.9522
13304TIP3    H161403   0.798   3.988  14.492  2.6375  0.4087 -0.3804
13304TIP3    H261404   0.722   4.108  14.439  0.3653 -0.3527  1.0087
13305TIP3   OH261405   1.433   2.585   2.682  0.2572 -0.2390 -1.0716
13305TIP3    H161406   1.372   2.513   2.667 -1.4949  0.4999  1.6293
13305TIP3    H261407   1.380   2.664   2.670  1.4140  0.5170 -1.3044
13306TIP3   OH261408   5.811   5.736   2.299  0.0252  0.4717 -0.3690
13306TIP3    H161409   5.740   5.695   2.348  0.9818  0.4774  1.0782
13306TIP3    H261410   5.778   5.823   2.278 -0.8109  0.0872 -0.6902
13307TIP3   OH261411   5.960   3.683   2.223 -0.0428 -0.5379 -0.6565
13307TIP3    H161412   5.953   3.592   2.195  0.4304 -0.4184 -1.1641
13307TIP3    H261413   6.015   3.725   2.157 -0.6902  0.2421 -0.7137
13308TIP3   OH261414   4.204   5.158  12.561 -0.2934 -0.1209  0.4969
13308TIP3    H161415   4.277   5.102  12.536 -0.3889 -0.5959  1.2458
13308TIP3    H261416   4.245   5.234  12.603 -0.1443  0.5760 -0.8572
13309TIP3   OH261417   4.476   1.150   3.170  0.2305  0.0491 -0.0443
13309TIP3    H161418   4.524   1.087   3.116 -0.6788 -0.4981 -0.2424
13309TIP3    H261419   4.453   1.220   3.109  1.7267  0.8677  0.3001
13310TIP3   OH261420   3.458   2.235  16.063 -0.2261 -0.7806 -0.3059
13310TIP3    H161421   3.452   2.206  16.154 -1.8816 -0.4389 -0.2675
13310TIP3    H261422   3.465   2.155  16.012 -1.5596 -1.1206 -0.0001
13311TIP3   OH261423   5.151   0.288   6.614 -0.4602  0.2742 -0.0156
13311TIP3    H161424   5.180   0.364   6.665  0.7413 -0.4653  0.4241
13311TIP3    H261425   5.117   0.227   6.678  0.2739 -0.3122 -0.1767
13312TIP3   OH261426   3.053   6.715  11.442  0.1431  0.5435 -0.1352
13312TIP3    H161427   2.979   6.736  11.386  0.9164 -1.0375 -1.8847
13312TIP3    H261428   3.016   6.659  11.511 -0.3607  0.0045 -0.8290
13313TIP3   OH261429   5.663   3.345   5.786 -0.2062  0.1436 -0.3193
13313TIP3    H161430   5.650   3.354   5.692  2.1193 -0.2613 -0.7428
13313TIP3    H261431   5.711   3.262   5.796  0.4520  0.6522  1.1093
13314TIP3   OH261432   0.094   2.542  11.558 -0.0772  0.1456 -0.0729
13314TIP3    H161433   0.105   2.636  11.546  0.8998  0.0736  0.2362
13314TIP3    H261434   0.178   2.504  11.532 -0.6840 -0.7120 -0.8721
13315TIP3   OH261435   5.423   4.115  14.394  0.0469  0.3892  0.2009
13315TIP3    H161436   5.478   4.065  14.455 -1.7335 -1.2012  0.6080
13315TIP3    H261437   5.419   4.203  14.432  1.1005  0.1395  0.9366
13316TIP3   OH261438   1.861   2.122  15.282 -0.2587 -0.6539  0.1178
13316TIP3    H161439   1.898   2.200  15.243  0.1497 -1.0311 -0.2561
13316TIP3    H261440   1.936   2.076  15.320 -0.5453 -0.6784  0.6697
13317TIP3   OH261441   5.260   6.159   6.561 -0.1597  0.4756 -0.2868
13317TIP3    H161442   5.348   6.164   6.522  0.3832  0.8341  0.9489
13317TIP3    H261443   5.276   6.146   6.654 -1.4328 -0.8710 -0.2190
13318TIP3   OH261444   1.568   4.523   1.972 -0.4457  0.2080 -0.2768
13318TIP3    H161445   1.517   4.550   1.896  0.4126  0.8563 -0.6351
13318TIP3    H261446   1.634   4.464   1.936 -1.0878 -0.8471  0.2241
13319TIP3   OH261447   1.608   4.952   4.525 -0.2998  0.3618 -0.4181
13319TIP3    H161448   1.552   4.883   4.561 -0.9611  1.0672 -0.0752
13319TIP3    H261449   1.692   4.941   4.571 -0.7056  0.3901  0.3388
13320TIP3   OH261450   3.644   3.782  12.854 -0.3869  0.4185 -0.7824
13320TIP3    H161451   3.661   3.825  12.771 -0.4268  0.6321 -0.6817
13320TIP3    H261452   3.588   3.843  12.902 -1.3062 -0.2004 -1.0419
13321TIP3   OH261453   5.314   4.544   2.440 -0.1550  0.5831  0.4051
13321TIP3    H161454   5.326   4.517   2.531  0.2854 -0.1411  0.1397
13321TIP3    H261455   5.402   4.545   2.404 -0.5757 -2.7206 -1.0005
13322TIP3   OH261456   1.849   6.396   4.839 -0.1026  1.0005  0.3328
13322TIP3    H161457   1.768   6.403   4.889 -0.8166 -0.4851 -0.5718
13322TIP3    H261458   1.821   6.380   4.749  1.1938  0.1381  0.0573
13323TIP3   OH261459   5.537   0.830  13.381 -0.1486  0.1820 -0.1292
13323TIP3    H161460   5.530   0.879  13.299 -0.3724 -2.4198 -1.8141
13323TIP3    H261461   5.448   0.828  13.415 -0.4568 -0.3761 -0.9232
13324TIP3   OH261462   1.252   0.448   1.613  0.0110  0.2130 -0.1537
13324TIP3    H161463   1.281   0.537   1.594 -0.9971  0.3964 -0.9111
13324TIP3    H261464   1.250   0.443   1.708  0.0427  1.0205 -0.1065
13325TIP3   OH261465   5.974   1.254  16.056  0.0110  0.0821 -0.0331
13325TIP3    H161466   5.879   1.243  16.050 -0.4788  2.6844  1.4138
13325TIP3    H261467   5.998   1.300  15.976  0.5086 -2.6112 -1.5222
13326TIP3   OH261468   1.194   4.661   4.279 -0.3871  0.7439  0.5436
13326TIP3    H161469   1.283   4.652   4.313 -1.0026  0.6384  2.2224
13326TIP3    H261470   1.166   4.748   4.310  0.1973  2.2376 -2.6754
13327TIP3   OH261471   5.726   5.213  12.863  0.1802  0.2300  0.5736
13327TIP3    H161472   5.781   5.135  12.854 -0.9994 -0.4742 -1.2036
13327TIP3    H261473   5.651   5.183  12.915 -0.8255 -0.1871 -1.0537
13328TIP3   OH261474   6.296   2.837   2.139  0.0207 -0.3634  0.4140
13328TIP3    H161475   6.225   2.807   2.196  0.1056  0.0686  0.7531
13328TIP3    H261476   6.254   2.897   2.077  0.0152 -0.4437  0.3398
13329TIP3   OH261477   1.364   6.281  12.753  0.4823 -0.2884  0.4474
13329TIP3    H161478   1.447   6.274  12.706  0.4338  0.0624  0.3082
13329TIP3    H261479   1.327   6.192  12.749  2.0199 -1.1130  2.7207
13330TIP3   OH261480   4.249   4.687  14.373 -0.1496  0.3703  0.3288
13330TIP3    H161481   4.311   4.756  14.398  0.7894 -0.1715 -0.4225
13330TIP3    H261482   4.302   4.607  14.373 -1.6011 -0.7104  2.9393
13331TIP3   OH261483   2.058   3.785  13.287  0.2062 -0.4122 -0.3964
13331TIP3    H161484   1.982   3.785  13.229  1.4376  0.2561 -2.0901
13331TIP3    H261485   2.085   3.876  13.291 -0.1699 -0.3446  1.7490
13332TIP3   OH261486   5.621   5.865  17.161  0.4789  0.5017  1.1971
13332TIP3    H161487   5.602   5.783  17.208  1.8052 -1.5439 -1.5338
13332TIP3    H261488   5.546   5.877  17.103  0.8080  0.6020  0.7926
13333TIP3   OH261489   2.820   0.433  16.655  0.1665  0.5082  0.4263
13333TIP3    H161490   2.812   0.371  16.727 -0.2596 -0.6470 -0.5792
13333TIP3    H261491   2.730   0.444  16.623  0.5226 -0.3282 -0.9739
13334TIP3   OH261492   3.646   6.563   4.766 -0.6300 -0.3617 -0.3550
13334TIP3    H161493   3.626   6.571   4.672 -0.2157  2.0726 -0.3040
13334TIP3    H261494   3.715   6.627   4.781  0.0769 -1.4858  1.4372
13335TIP3   OH261495   2.351   3.484  15.202 -0.7410 -0.3700  0.0013
13335TIP3    H161496   2.364   3.528  15.286  2.3250  1.4793 -1.2855
13335TIP3    H261497   2.267   3.519  15.170 -0.8912  0.5591  1.3331
13336TIP3   OH261498   6.374   3.583   3.471  0.0505 -0.0590 -0.4108
13336TIP3    H161499   6.297   3.641   3.477  0.5502  0.5817 -0.0778
13336TIP3    H261500   6.337   3.496   3.454 -0.8737 -0.0751  1.3723
13337TIP3   OH261501   1.340   6.637   0.803 -0.2455  0.8957 -0.3824
13337TIP3    H161502   1.353   6.553   0.846 -1.0329  0.9982  0.0812
13337TIP3    H261503   1.404   6.638   0.732 -0.2926 -0.1371 -0.4576
13338TIP3   OH261504   2.101   5.069  14.194  0.3046  0.0680  0.6664
13338TIP3    H161505   2.036   5.122  14.148  0.6424 -0.2182 -0.1618
13338TIP3    H261506   2.176   5.128  14.203 -0.4751  0.8150  2.7380
13339TIP3   OH261507   2.039   1.131   5.942  0.3648  0.5245  0.1916
13339TIP3    H161508   2.131   1.133   5.966  0.2882  1.1981  0.4438
13339TIP3    H261509   2.020   1.219   5.910 -0.4428  0.7051  1.1173
13340TIP3   OH261510   6.065   5.662  13.875 -0.5524  0.1700 -0.1022
13340TIP3    H161511   6.060   5.673  13.780 -1.4534 -0.5333 -0.1522
13340TIP3    H261512   6.143   5.712  13.901  0.4846 -0.7250 -1.3720
13341TIP3   OH261513   1.732   3.005  13.804  0.0989  0.7523 -0.0145
13341TIP3    H161514   1.764   3.095  13.810 -1.4057  1.2914  0.3753
13341TIP3    H261515   1.698   2.985  13.892 -3.0139  1.2064 -0.9664
13342TIP3   OH261516   5.617   4.184   0.358  0.7345 -0.1512 -0.1099
13342TIP3    H161517   5.712   4.171   0.363  1.1386  2.3748  0.4590
13342TIP3    H261518   5.599   4.251   0.424 -1.1000  0.9717 -1.6581
13343TIP3   OH261519   2.581   5.508   0.030 -0.0085  0.3362  0.1979
13343TIP3    H161520   2.551   5.475   0.114 -0.9482  0.1299 -0.1974
13343TIP3    H261521   2.675   5.522   0.041  0.5475 -2.7643  0.3157
13344TIP3   OH261522   2.543   3.771   2.816 -0.7789  0.3220 -0.2112
13344TIP3    H161523   2.466   3.825   2.800 -0.2255  1.3174  0.3732
13344TIP3    H261524   2.614   3.834   2.827  0.3124 -0.5936 -1.6805
13345TIP3   OH261525   1.922   6.005   5.984 -0.1010  0.6444 -0.2630
13345TIP3    H161526   1.949   6.050   5.903 -1.2940  1.5545 -0.1731
13345TIP3    H261527   1.833   5.974   5.966  0.8881 -2.3276 -0.5629
13346TIP3   OH261528   1.271   2.333   1.761  0.2423 -0.0951 -0.3608
13346TIP3    H161529   1.217   2.395   1.712  0.3747  0.2651 -0.0483
13346TIP3    H261530   1.257   2.355   1.853  1.2685  0.3062 -0.2833
13347TIP3   OH261531   3.631   1.467   3.900 -0.5661 -0.3047  0.4631
13347TIP3    H161532   3.713   1.427   3.929  1.5820  3.0341 -0.4889
13347TIP3    H261533   3.567   1.438   3.965  1.6418 -1.9189  2.1008
13348TIP3   OH261534   4.931   0.959  13.887 -0.2863 -0.1525  0.0757
13348TIP3    H161535   5.005   1.006  13.850 -0.1601 -1.6599 -1.7321
13348TIP3    H261536   4.940   0.869  13.854 -2.6958 -0.4809  0.0955
13349TIP3   OH261537   3.115   0.139  15.805 -0.3053  0.5189 -0.3391
13349TIP3    H161538   3.071   0.103  15.883 -1.4035  0.9362 -0.7441
13349TIP3    H261539   3.130   0.062  15.749 -0.5956  0.3733 -0.2242
13350TIP3   OH261540   4.121   4.571  17.055  0.1288 -0.6215 -0.1608
13350TIP3    H161541   4.090   4.513  16.986 -1.4413  0.9738 -0.8551
13350TIP3    H261542   4.076   4.654  17.039 -0.8087 -0.3750  3.1713
13351TIP3   OH261543   5.325   6.031   4.142  0.0348  0.1490 -0.1780
13351TIP3    H161544   5.395   6.095   4.155 -1.2695  1.8000 -0.8827
13351TIP3    H261545   5.348   5.987   4.060  0.5240  0.2961 -0.1246
13352TIP3   OH261546   1.471   2.595   4.893 -0.4099 -0.0720  0.1187
13352TIP3    H161547   1.491   2.552   4.810 -0.9070  0.4544 -0.2793
13352TIP3    H261548   1.468   2.523   4.956  0.4369 -0.4226 -0.2233
13353TIP3   OH261549   5.431   1.214   3.100  0.1797  0.1257 -0.0749
13353TIP3    H161550   5.472   1.215   3.187  2.2121  1.6948 -0.9875
13353TIP3    H261551   5.488   1.159   3.047  0.6541  1.6036 -1.1481
13354TIP3   OH261552   6.009   2.205   0.335  0.0748 -0.3293  0.2991
13354TIP3    H161553   5.935   2.154   0.304 -0.7965  1.2631 -0.3599
13354TIP3    H261554   5.970   2.277   0.383  1.2785 -0.4075  1.4530
13355TIP3   OH261555   5.360   4.748  17.256 -0.1415 -0.0303  0.1304
13355TIP3    H161556   5.437   4.776  17.207  0.7093  1.1631  2.0266
13355TIP3    H261557   5.394   4.723  17.341 -1.6370 -1.4698  0.3458
13356TIP3   OH261558   3.238   5.915  12.674  0.1187 -0.1958  0.0404
13356TIP3    H161559   3.182   5.858  12.727 -0.5014 -0.7643 -1.1845
13356TIP3    H261560   3.256   5.990  12.731 -1.0138 -0.5031  0.8403
13357TIP3   OH261561   5.470   0.948  17.092 -0.2035  0.7934 -0.6893
13357TIP3    H161562   5.548   0.949  17.037 -0.2935  2.1904 -0.8250
13357TIP3    H261563   5.497   0.899  17.170  1.4985  2.9340  0.1732
13358TIP3   OH261564   1.504   4.411   4.843 -0.2162 -0.4726  0.2220
13358TIP3    H161565   1.567   4.342   4.861 -0.0144 -0.0740  1.0949
13358TIP3    H261566   1.454   4.420   4.924 -1.1011 -0.4673 -0.3008
13359TIP3   OH261567   4.648   3.572   6.312  0.0152  0.1938 -0.7530
13359TIP3    H161568   4.580   3.600   6.251 -0.3903 -2.1194 -1.4570
13359TIP3    H261569   4.623   3.613   6.395 -2.7766 -1.1782 -0.7691
13360TIP3   OH261570   1.957   4.695  10.831 -0.3488  0.3387  0.1901
13360TIP3    H161571   1.900   4.629  10.792 -1.1019  1.3640 -0.5251
13360TIP3    H261572   2.012   4.647  10.893 -0.9910 -0.9102 -0.1804
13361TIP3   OH261573   1.099   2.446  15.055 -0.2588 -0.2997  0.0169
13361TIP3    H161574   1.068   2.535  15.035 -0.6217 -0.7771 -1.7572
13361TIP3    H261575   1.056   2.424  15.138 -1.5223  0.5711 -0.3661
13362TIP3   OH261576   2.306   3.135   1.677 -0.0489 -0.1202 -0.5024
13362TIP3    H161577   2.359   3.079   1.620 -0.7291 -0.0673 -1.2058
13362TIP3    H261578   2.370   3.186   1.727  0.5661  0.0559 -1.4366
13363TIP3   OH261579   4.402   6.004  12.897 -0.1734 -0.6480  0.2037
13363TIP3    H161580   4.479   5.987  12.842 -0.1267  0.4693 -0.1097
13363TIP3    H261581   4.420   6.089  12.937  0.9110 -2.4270  3.9366
13364TIP3   OH261582   4.108   5.876   5.326  0.3480  0.0271 -0.3442
13364TIP3    H161583   4.036   5.938   5.316  1.5101  1.6036  0.5519
13364TIP3    H261584   4.173   5.903   5.262  0.9666 -0.1205  0.2041
13365TIP3   OH261585   4.404   4.549  11.930  0.3569 -0.3067 -0.0672
13365TIP3    H161586   4.332   4.493  11.961  0.4110  0.0136  0.6535
13365TIP3    H261587   4.396   4.548  11.834  0.0880 -1.1873 -0.0423
13366TIP3   OH261588   6.624   0.303  14.256 -0.1119  0.4184  0.1440
13366TIP3    H161589   6.632   0.252  14.175  0.7009  0.8876 -0.0806
13366TIP3    H261590   6.714   0.318  14.284 -0.3335  1.6447  0.2647
13367TIP3   OH261591   5.167   2.003   2.081 -0.0947 -0.1946  0.1384
13367TIP3    H161592   5.121   2.008   1.998  0.7474  2.0923 -0.2670
13367TIP3    H261593   5.257   2.029   2.060  0.1638  0.3064  1.7404
13368TIP3   OH261594   5.601   5.197   4.504 -0.7065 -0.3287  0.4348
13368TIP3    H161595   5.507   5.211   4.493 -0.6018  1.0020  1.0337
13368TIP3    H261596   5.608   5.108   4.539 -1.8473 -0.0259  1.5192
13369TIP3   OH261597   0.110   1.573  17.315 -0.1985 -0.2504 -0.1794
13369TIP3    H161598   0.078   1.662  17.324  0.3860 -0.1134  0.6145
13369TIP3    H261599   0.046   1.520  17.362 -1.9997 -0.6147 -2.7959
13370TIP3   OH261600   4.829   6.049  15.451  0.1960 -0.2509  0.2252
13370TIP3    H161601   4.740   6.036  15.418 -0.3087  0.6002  1.1810
13370TIP3    H261602   4.883   5.988  15.401 -0.7292  0.0585 -1.2203
13371TIP3   OH261603   4.377   6.562  11.040 -0.3697  0.8064  0.0413
13371TIP3    H161604   4.309   6.526  11.097 -0.4536  0.8042 -0.0585
13371TIP3    H261605   4.456   6.512  11.062 -0.5058  0.4994 -0.1615
13372TIP3   OH261606   3.474   3.180  12.487 -0.7575 -0.1287  0.0004
13372TIP3    H161607   3.437   3.093  12.474 -1.8356  0.6235 -2.5241
13372TIP3    H261608   3.515   3.202  12.403 -2.1383  2.5079 -0.0712
13373TIP3   OH261609   6.138   5.180  16.241 -0.0753  0.1571 -0.7965
13373TIP3    H161610   6.122   5.095  16.200 -1.0471 -0.9903  1.7713
13373TIP3    H261611   6.072   5.237  16.203  0.5788 -0.1668 -2.5443
13374TIP3   OH261612   0.403   2.206  13.245 -0.4822 -0.3025 -0.3651
13374TIP3    H161613   0.494   2.204  13.274  0.2630  1.4789 -2.2478
13374TIP3    H261614   0.360   2.267  13.305 -0.1572 -0.3445 -0.0885
13375TIP3   OH261615   4.990   3.196  12.054 -0.2860  0.4644  0.5469
13375TIP3    H161616   5.075   3.237  12.066 -0.3059  0.8082 -0.4625
13375TIP3    H261617   5.009   3.113  12.011 -0.5020  0.7526 -0.1045
13376TIP3   OH261618   2.669   1.499  13.312 -0.1134  0.1253  0.2539
13376TIP3    H161619   2.686   1.406  13.325  1.8740  0.4367  0.2398
13376TIP3    H261620   2.641   1.506  13.221 -1.1525 -0.5416  0.5066
13377TIP3   OH261621   5.649   6.701  17.230  0.2868 -0.3851 -0.0322
13377TIP3    H161622   5.724   6.761  17.227  0.0165 -0.0174  0.5060
13377TIP3    H261623   5.577   6.754  17.265  0.5635 -1.5238  2.5119
13378TIP3   OH261624   0.644   1.079  14.805 -0.1905  0.1237 -0.0722
13378TIP3    H161625   0.647   1.175  14.801  0.9977  0.1265  0.2581
13378TIP3    H261626   0.698   1.057  14.881  1.1116 -0.8744 -1.2317
13379TIP3   OH261627   1.256   6.135  13.419 -0.5272 -0.3406  0.2418
13379TIP3    H161628   1.198   6.211  13.410  0.1192  0.1792  0.3370
13379TIP3    H261629   1.208   6.063  13.378 -1.8853 -0.2827  1.6353
13380TIP3   OH261630   6.726   6.503   3.779 -0.4766  0.3141  0.3997
13380TIP3    H161631   6.757   6.545   3.699  1.4715 -1.3544  0.2092
13380TIP3    H261632   6.747   6.567   3.848 -0.9322  1.1887 -0.2515
13381TIP3   OH261633   2.868   6.080  17.274  0.3017 -0.4833  0.4760
13381TIP3    H161634   2.885   6.017  17.204 -0.3839 -2.1109  1.7067
13381TIP3    H261635   2.916   6.046  17.349 -0.3299  0.3063  1.2593
13382TIP3   OH261636   4.412   0.081  14.414  0.3858  0.1859 -0.6560
13382TIP3    H161637   4.449  -0.004  14.391 -0.9567 -0.1112 -1.8724
13382TIP3    H261638   4.389   0.073  14.506  0.1311 -0.8272 -0.7944
13383TIP3   OH261639   3.521   2.592  11.957 -0.1080 -0.1963  0.4906
13383TIP3    H161640   3.578   2.533  12.005 -0.8952 -0.5629  1.0023
13383TIP3    H261641   3.432   2.569  11.986 -0.3924  1.8891  1.4813
13384TIP3   OH261642   2.174   1.777  13.853  0.1363 -0.2998  0.1510
13384TIP3    H161643   2.250   1.777  13.794  0.7601 -1.1892  0.9130
13384TIP3    H261644   2.167   1.867  13.883  0.1516  0.0462 -0.8534
13385TIP3   OH261645   5.233   1.721  13.470 -0.3594  0.2640 -0.1645
13385TIP3    H161646   5.178   1.709  13.392 -0.0488  0.1238 -0.3617
13385TIP3    H261647   5.300   1.784  13.443 -0.5870  0.6552  0.1630
13386TIP3   OH261648   1.536   1.922  13.654  0.3394 -0.2396  0.2395
13386TIP3    H161649   1.489   1.862  13.711  0.9031  0.2075  1.1977
13386TIP3    H261650   1.619   1.938  13.699 -0.0470  1.7494  0.3253
13387TIP3   OH261651   2.069   0.654   6.257 -0.0640 -0.1154  0.2388
13387TIP3    H161652   2.071   0.574   6.205  0.1037  0.9633 -1.5022
13387TIP3    H261653   2.102   0.628   6.343  0.8311 -1.7094 -0.5512
13388TIP3   OH261654   5.487   0.352   5.342  0.4875  0.2205  0.0968
13388TIP3    H161655   5.527   0.421   5.291 -2.3114  2.6515  0.9234
13388TIP3    H261656   5.469   0.392   5.427 -0.6817 -1.7114  0.8257
13389TIP3   OH261657   1.098   3.437   0.767 -0.7912 -0.0319 -0.3953
13389TIP3    H161658   1.124   3.516   0.721 -1.4223  1.3452  1.4709
13389TIP3    H261659   1.008   3.455   0.797 -0.3299 -0.7070  1.5616
13390TIP3   OH261660   1.521   1.310   5.534 -0.3468 -0.5390 -0.1006
13390TIP3    H161661   1.473   1.391   5.548  1.6280  0.5323  0.8496
13390TIP3    H261662   1.470   1.243   5.581 -2.7380 -0.2112 -2.0328
13391TIP3   OH261663   3.643   6.240   5.255 -0.0696  0.4117 -0.0992
13391TIP3    H161664   3.552   6.266   5.267  0.0954  0.7106  0.5499
13391TIP3    H261665   3.676   6.300   5.187  0.2403  1.8058  1.2127
13392TIP3   OH261666   6.646   1.477   4.156  0.1247  0.0677  0.8935
13392TIP3    H161667   6.655   1.511   4.245 -0.7807 -0.5209  1.2257
13392TIP3    H261668   6.555   1.494   4.133  0.5199  0.8258 -0.1965
13393TIP3   OH261669   5.283   0.800  13.482 -0.3441  0.6915  0.5481
13393TIP3    H161670   5.318   0.741  13.548  0.4432  0.6563  0.1175
13393TIP3    H261671   5.293   0.752  13.399 -0.9998  0.8666  0.3601
13394TIP3   OH261672   0.822   1.191  16.662 -0.6044 -0.3654 -0.7033
13394TIP3    H161673   0.753   1.133  16.630  1.2391 -1.9292 -2.0408
13394TIP3    H261674   0.903   1.157  16.623  0.7369  2.4076 -0.6179
13395TIP3   OH261675   6.411   6.496  12.027 -0.1300  0.0022 -0.4665
13395TIP3    H161676   6.491   6.499  12.078  1.1176 -2.0977 -2.1068
13395TIP3    H261677   6.341   6.510  12.090  1.3866 -1.2036  1.5930
13396TIP3   OH261678   3.278   6.026  15.339  0.3893 -0.0707  0.9971
13396TIP3    H161679   3.284   5.948  15.284  1.0564 -0.1631  1.1907
13396TIP3    H261680   3.360   6.028  15.388  2.4170  3.1093 -2.0736
13397TIP3   OH261681   3.335   4.369   0.853  0.2280  0.1994  0.4795
13397TIP3    H161682   3.404   4.311   0.884 -1.2263 -0.8660  1.8690
13397TIP3    H261683   3.381   4.438   0.805  2.1783 -0.8242  0.7944
13398TIP3   OH261684   3.871   2.531   0.937 -0.0689 -0.4190  0.2865
13398TIP3    H161685   3.874   2.555   0.845  0.9854  1.4571  0.7551
13398TIP3    H261686   3.917   2.448   0.942  1.2482  0.2284 -0.6827
13399TIP3   OH261687   2.802   4.549   3.611 -0.4873 -0.0692  0.4539
13399TIP3    H161688   2.744   4.484   3.573 -1.6430  1.5112 -0.6328
13399TIP3    H261689   2.887   4.506   3.615 -1.1616 -1.5602 -0.3850
13400TIP3   OH261690   1.633   4.209  12.785  0.3691 -0.1879 -0.1675
13400TIP3    H161691   1.627   4.160  12.703  1.0217  0.9130 -0.8909
13400TIP3    H261692   1.543   4.229  12.808  0.2502  1.1219 -1.6380
13401TIP3   OH261693   2.683   4.707  17.435 -0.6582  0.2252 -0.2305
13401TIP3    H161694   2.593   4.711  17.470 -0.5943 -0.0664 -0.0255
13401TIP3    H261695   2.692   4.787  17.384 -0.9683  0.3572 -0.0854
13402TIP3   OH261696   5.155   0.295  10.713  0.5034 -0.0287  0.1439
13402TIP3    H161697   5.156   0.349  10.791  1.8923 -1.5044  1.2309
13402TIP3    H261698   5.238   0.315  10.669 -0.1527  0.6053 -0.8356
13403TIP3   OH261699   5.355   2.371  10.933 -0.2830  0.0205  0.0917
13403TIP3    H161700   5.418   2.373  10.861  0.2038  1.5447  0.5310
13403TIP3    H261701   5.351   2.279  10.958  2.0455 -0.0822  0.2697
13404TIP3   OH261702   2.433   1.648   1.341 -0.0213 -0.0908  0.1957
13404TIP3    H161703   2.393   1.722   1.295 -1.9206 -0.4833  1.1173
13404TIP3    H261704   2.513   1.683   1.379 -1.4188  1.8240  1.5349
13405TIP3   OH261705   6.101   5.918  11.217  0.4108 -0.3783 -0.2551
13405TIP3    H161706   6.113   6.013  11.213 -1.0804 -0.1236  0.6042
13405TIP3    H261707   6.065   5.895  11.131  0.7889 -0.1881 -0.4717
13406TIP3   OH261708   5.811   2.630  14.698 -0.3165  0.3466 -0.3658
13406TIP3    H161709   5.821   2.544  14.738 -0.8481  0.5802  0.2851
13406TIP3    H261710   5.863   2.625  14.617  1.8506  0.2788  0.9451
13407TIP3   OH261711   4.513   4.304   5.313 -0.0334 -0.5982  0.1405
13407TIP3    H161712   4.597   4.265   5.287  1.8174  2.2452  1.4186
13407TIP3    H261713   4.484   4.352   5.236  0.8345  0.4643  0.4582
13408TIP3   OH261714   1.603   0.577  15.156  0.0222  0.3358  0.0428
13408TIP3    H161715   1.644   0.664  15.158 -0.2463  0.4591  1.0969
13408TIP3    H261716   1.509   0.595  15.160 -0.0209  0.0068  0.7615
13409TIP3   OH261717   4.813   4.938   1.122 -0.0464 -0.2369 -0.1849
13409TIP3    H161718   4.878   4.997   1.161  2.2097 -2.7735  0.1612
13409TIP3    H261719   4.787   4.879   1.192 -1.2321 -0.5519 -0.8513
13410TIP3   OH261720   6.330   5.472   4.201 -0.1690 -0.1386 -0.6191
13410TIP3    H161721   6.254   5.463   4.259  1.3428 -0.0040  1.4920
13410TIP3    H261722   6.314   5.408   4.131 -1.8783 -0.6117  0.1493
13411TIP3   OH261723   0.882   5.876   3.130 -0.0760 -0.0352  0.3602
13411TIP3    H161724   0.947   5.881   3.060 -0.5183 -1.9021 -0.2260
13411TIP3    H261725   0.798   5.884   3.084 -0.3360  0.5881  0.9184
13412TIP3   OH261726   0.544   0.775  13.410 -0.7007 -0.6489  0.0229
13412TIP3    H161727   0.634   0.747  13.391 -0.9767 -1.0132 -0.8399
13412TIP3    H261728   0.493   0.694  13.406 -1.1877 -0.3345 -0.3448
13413TIP3   OH261729   4.537   4.623  17.527 -0.3012  0.3467 -0.3349
13413TIP3    H161730   4.560   4.695  17.585  0.3306 -0.4946  0.4889
13413TIP3    H261731   4.528   4.664  17.441 -0.3206  1.4583  0.1757
13414TIP3   OH261732   2.999   2.853  16.349  0.0356  0.6632  0.0828
13414TIP3    H161733   3.008   2.796  16.273 -1.5656  0.7482 -0.2099
13414TIP3    H261734   2.905   2.865  16.358  0.2804  2.1002  1.0050
13415TIP3   OH261735   0.306   2.092  11.719 -0.2920 -0.0260 -0.0155
13415TIP3    H161736   0.212   2.095  11.700 -0.5819  0.5258  1.3768
13415TIP3    H261737   0.332   2.184  11.722  0.8904 -0.1601 -2.9122
13416TIP3   OH261738   3.554   0.682  12.406 -0.8343  0.5345 -0.0847
13416TIP3    H161739   3.469   0.725  12.415 -0.3041  1.8579 -1.0565
13416TIP3    H261740   3.587   0.713  12.321  1.3217  1.3856  0.9972
13417TIP3   OH261741   6.048   0.187  16.908  0.5101 -0.7668  0.3102
13417TIP3    H161742   6.047   0.198  16.813 -0.7015 -0.8261  0.2981
13417TIP3    H261743   5.984   0.117  16.924 -2.3928  1.9117  1.4233
13418TIP3   OH261744   2.509   2.573   2.287 -0.2276  0.7201  0.2466
13418TIP3    H161745   2.450   2.585   2.361 -0.4789 -0.0561  0.1718
13418TIP3    H261746   2.453   2.582   2.210  0.0704  1.7493  0.1270
13419TIP3   OH261747   1.642   6.397   5.056  0.1857 -0.0718 -0.5563
13419TIP3    H161748   1.671   6.327   5.115 -0.7288  1.8183  2.3427
13419TIP3    H261749   1.558   6.365   5.022 -0.8643  0.0177  1.7276
13420TIP3   OH261750   5.504   5.595  11.617  0.1101  0.6889 -0.2697
13420TIP3    H161751   5.511   5.666  11.681  0.2588 -0.5718  1.1691
13420TIP3    H261752   5.550   5.628  11.539  0.7344  1.9060  0.5862
13421TIP3   OH261753   3.387   3.252   4.296 -0.4261 -0.4311 -0.3613
13421TIP3    H161754   3.331   3.174   4.299 -1.4757  0.2410 -1.5477
13421TIP3    H261755   3.413   3.259   4.204  1.6112 -0.6991  0.1598
13422TIP3   OH261756   4.915   5.488  17.350  0.2018 -0.0918  0.0353
13422TIP3    H161757   4.907   5.403  17.306 -4.1176 -0.4695  1.0474
13422TIP3    H261758   4.848   5.543  17.308  0.7864  1.8013  1.4475
13423TIP3   OH261759   4.403   2.063  15.670  0.8022 -0.2473 -0.4172
13423TIP3    H161760   4.372   1.974  15.688  0.2149  0.0725  0.1835
13423TIP3    H261761   4.334   2.120  15.704  1.5794  0.4562  0.0102
13424TIP3   OH261762   6.369   4.953   0.426  0.1502 -0.0434 -0.6935
13424TIP3    H161763   6.297   4.892   0.410  0.4174 -0.1231 -1.6311
13424TIP3    H261764   6.433   4.901   0.476  0.0341 -0.2990 -0.8057
13425TIP3   OH261765   2.126   4.063   5.963 -0.0975  0.4941  0.5560
13425TIP3    H161766   2.032   4.050   5.970  0.0129 -1.0388 -0.3258
13425TIP3    H261767   2.165   3.993   6.015  0.6145  2.4044  2.7856
13426TIP3   OH261768   3.320   0.389   2.875  0.2650 -0.0378  0.2339
13426TIP3    H161769   3.362   0.435   2.948  1.0019 -1.8962  1.0520
13426TIP3    H261770   3.379   0.402   2.801 -1.1049  2.9281 -0.4750
13427TIP3   OH261771   6.702   2.289   2.276  0.2587 -0.1528 -0.6163
13427TIP3    H161772   6.750   2.273   2.357 -0.0856 -1.8415 -0.7163
13427TIP3    H261773   6.729   2.218   2.218 -0.2173  0.4982 -1.6605
13428TIP3   OH261774   2.061   5.993   3.106  0.1776  0.6382  0.1039
13428TIP3    H161775   2.030   6.034   3.025 -1.4223 -2.0835 -0.7962
13428TIP3    H261776   2.137   5.942   3.078 -0.7911 -0.8589  0.1277
13429TIP3   OH261777   5.957   5.055  15.032 -0.4728  0.2208  0.0059
13429TIP3    H161778   6.000   5.139  15.044 -2.0416  1.0009  0.4636
13429TIP3    H261779   5.982   5.004  15.109  1.4059 -0.1963 -0.8260
13430TIP3   OH261780   6.734   5.292  16.416  0.0988 -0.5626 -0.1497
13430TIP3    H161781   6.719   5.351  16.490 -0.6362 -0.3440 -0.4687
13430TIP3    H261782   6.676   5.217  16.432  1.1123 -1.2687  0.3145
13431TIP3   OH261783   1.062   3.514   2.318  0.7900 -0.0755 -0.5457
13431TIP3    H161784   1.144   3.480   2.352  1.1597  0.2955 -1.0494
13431TIP3    H261785   1.014   3.436   2.290  1.8037 -0.1909 -2.0773
13432TIP3   OH261786   0.225   3.419   0.339 -0.0068  0.0678  0.6790
13432TIP3    H161787   0.158   3.481   0.370  0.7713  1.0338  0.5028
13432TIP3    H261788   0.288   3.474   0.292  0.7722 -0.8552  0.6149
13433TIP3   OH261789   4.993   2.250   3.117 -0.2420  0.4877 -0.2876
13433TIP3    H161790   5.022   2.310   3.048  0.1440 -1.4093 -1.8938
13433TIP3    H261791   4.994   2.302   3.197  2.6395  1.9331 -1.1303
13434TIP3   OH261792   0.195   0.764   6.462  0.1144  0.5444  0.7738
13434TIP3    H161793   0.210   0.740   6.553 -0.5987 -0.3186  0.6778
13434TIP3    H261794   0.137   0.695   6.428 -1.1257  1.8159  0.1757
13435TIP3   OH261795   5.545   1.464  13.026 -0.1633 -0.3508 -0.3019
13435TIP3    H161796   5.624   1.430  12.983 -0.0997  0.4591 -0.8327
13435TIP3    H261797   5.473   1.420  12.981 -0.0164 -2.2037  1.1297
13436TIP3   OH261798   4.735   6.142  16.275 -0.1350 -0.5042  0.0044
13436TIP3    H161799   4.669   6.162  16.209  1.2693 -1.4937 -1.7637
13436TIP3    H261800   4.740   6.222  16.329 -0.9191  0.5463 -1.4187
13437TIP3   OH261801   0.242   5.131  14.681 -0.2963 -0.1398 -0.1160
13437TIP3    H161802   0.228   5.224  14.699  0.5725 -0.0110 -0.0639
13437TIP3    H261803   0.203   5.085  14.755  0.3215  0.2431  0.4539
13438TIP3   OH261804   5.819   5.697  13.970 -0.4464 -0.2144 -0.7940
13438TIP3    H161805   5.906   5.679  13.935 -0.1988  1.0818 -0.8874
13438TIP3    H261806   5.779   5.757  13.907  0.0544  2.2716  1.1012
13439TIP3   OH261807   0.825   3.204  16.064  0.1345 -0.2301 -0.0168
13439TIP3    H161808   0.890   3.140  16.035 -0.3022 -0.7717  0.1969
13439TIP3    H261809   0.844   3.283  16.012  1.1048 -0.3043  0.2123
13440TIP3   OH261810   6.239   5.980  16.308  0.2618  0.2197 -0.9439
13440TIP3    H161811   6.256   6.071  16.331 -1.2294 -0.1548  2.0289
13440TIP3    H261812   6.148   5.980  16.278  0.2301 -0.2998 -0.8515
13441TIP3   OH261813   4.351   4.003   1.873 -0.2043  0.0788 -0.2676
13441TIP3    H161814   4.295   4.039   1.805  2.0351  0.6287 -1.9477
13441TIP3    H261815   4.341   3.908   1.865 -0.8765  0.1661 -0.5130
13442TIP3   OH261816   3.735   5.012   3.034 -0.2151 -0.4984  0.1792
13442TIP3    H161817   3.682   4.978   3.107  0.5498 -1.6992  0.1914
13442TIP3    H261818   3.813   4.957   3.033  0.1139 -0.0407 -1.1109
13443TIP3   OH261819   0.681   1.668  16.977 -0.0699 -0.2565  0.2012
13443TIP3    H161820   0.626   1.657  17.054 -2.1022 -0.0699 -1.1615
13443TIP3    H261821   0.698   1.579  16.946  0.7120 -0.3293  0.7895
13444TIP3   OH261822   4.426   4.373   0.942  0.3027 -0.3001 -0.0805
13444TIP3    H161823   4.387   4.443   0.890  1.7627 -0.9217 -2.1195
13444TIP3    H261824   4.415   4.402   1.033  0.5618  2.4044 -0.8220
13445TIP3   OH261825   6.470   3.969  11.264 -0.1323 -0.4823  0.5390
13445TIP3    H161826   6.479   3.947  11.172  0.9292  0.7836  0.3057
13445TIP3    H261827   6.428   3.892  11.304 -0.2809 -1.1798 -0.9159
13446TIP3   OH261828   0.355   6.146  16.524 -0.2973 -0.0844 -0.2449
13446TIP3    H161829   0.309   6.217  16.569  0.0787  0.1539 -0.2326
13446TIP3    H261830   0.340   6.069  16.579  0.1508  0.2012  0.2800
13447TIP3   OH261831   0.255   0.560   5.359 -0.1866  1.2387  0.2041
13447TIP3    H161832   0.304   0.639   5.338 -0.0036  1.0224 -0.1824
13447TIP3    H261833   0.189   0.553   5.290  1.3492 -0.2779 -1.1932
13448TIP3   OH261834   1.481   1.826  15.465 -0.2229 -0.4408 -0.3411
13448TIP3    H161835   1.557   1.823  15.524 -2.4902  1.4355  2.9810
13448TIP3    H261836   1.424   1.757  15.497 -1.8680  1.1671  0.3744
13449TIP3   OH261837   5.549   4.831   5.243  0.0941  0.3285  0.2690
13449TIP3    H161838   5.491   4.825   5.167 -0.2791  0.3779  0.5507
13449TIP3    H261839   5.594   4.746   5.244  0.8356  0.6912 -0.5865
13450TIP3   OH261840   2.103   3.629  15.704  0.0617 -0.1714 -0.8965
13450TIP3    H161841   2.013   3.640  15.672  0.4754 -0.4815 -2.2425
13450TIP3    H261842   2.100   3.659  15.795 -1.0390  1.3978 -1.4029
13451TIP3   OH261843   2.487   4.626  15.107  0.3661 -0.0915  0.7020
13451TIP3    H161844   2.488   4.565  15.033 -1.0343 -0.7336  1.1765
13451TIP3    H261845   2.394   4.642  15.123  0.6822  1.3479  1.2858
13452TIP3   OH261846   5.296   4.513  14.242  0.2688  0.9125  0.6796
13452TIP3    H161847   5.239   4.437  14.232 -0.1879  1.0875  1.8328
13452TIP3    H261848   5.307   4.546  14.153  0.8215 -0.7366  0.1003
13453TIP3   OH261849   0.125   2.315  12.912  0.5878 -0.7201  0.5470
13453TIP3    H161850   0.100   2.328  13.003  0.8841  1.3442  0.3825
13453TIP3    H261851   0.081   2.386  12.864 -0.1967 -2.2116 -1.0560
13454TIP3   OH261852   4.668   0.858  12.529 -0.0351  0.0924 -0.1438
13454TIP3    H161853   4.692   0.773  12.564  0.2716 -0.1196 -0.8338
13454TIP3    H261854   4.749   0.892  12.491 -0.5321 -0.0780 -1.4072
13455TIP3   OH261855   4.235   5.376   2.177 -0.1633  0.0522  0.3429
13455TIP3    H161856   4.225   5.361   2.083  0.9204  0.8494  0.0822
13455TIP3    H261857   4.278   5.297   2.210  0.9541  0.4328 -0.1409
13456TIP3   OH261858   1.260   4.042  12.303  0.1279  0.5335  0.1686
13456TIP3    H161859   1.320   3.967  12.306 -0.0857  0.2027 -2.0764
13456TIP3    H261860   1.312   4.112  12.264 -0.2370  0.9721  0.4643
13457TIP3   OH261861   6.516   2.779  13.364  0.2111  0.1412  0.4692
13457TIP3    H161862   6.531   2.699  13.312  0.2917  0.4790 -0.0398
13457TIP3    H261863   6.604   2.814  13.380  0.1032  1.5226 -1.5598
13458TIP3   OH261864   4.996   1.687   0.044  0.0153 -0.5128 -0.4835
13458TIP3    H161865   5.024   1.696  -0.047  1.6461  0.7632  0.0975
13458TIP3    H261866   4.928   1.754   0.055  0.4505 -0.0489 -0.5496
13459TIP3   OH261867   5.543   5.362  16.074  0.1770  0.1292 -0.9934
13459TIP3    H161868   5.593   5.306  16.015 -1.9461 -0.3342 -2.4579
13459TIP3    H261869   5.597   5.441  16.083  1.4007 -0.5423 -2.0524
13460TIP3   OH261870   0.308   3.018  12.947 -0.6892 -0.4248  0.4762
13460TIP3    H161871   0.278   2.991  13.034 -1.6504  1.2680  0.7121
13460TIP3    H261872   0.257   2.965  12.886 -1.0863 -0.5703  0.9369
13461TIP3   OH261873   6.556   3.614   1.013  0.9741  0.0337 -0.0237
13461TIP3    H161874   6.507   3.635   0.933  0.1194 -0.9919  0.2071
13461TIP3    H261875   6.513   3.535   1.046  1.0821  0.6551  1.6557
13462TIP3   OH261876   5.931   6.044  13.425 -0.3243 -0.1258  0.5193
13462TIP3    H161877   5.922   5.957  13.386  0.8430 -1.5987  3.2397
13462TIP3    H261878   6.025   6.062  13.422 -0.6478  1.6846 -1.1093
13463TIP3   OH261879   5.872   0.836  15.478 -0.8421 -0.5375  0.3842
13463TIP3    H161880   5.955   0.788  15.476  0.7401  1.9897 -0.6454
13463TIP3    H261881   5.855   0.856  15.386 -1.6897  0.4324  0.7409
13464TIP3   OH261882   5.520   1.987  16.015 -0.0052 -0.0166 -0.3184
13464TIP3    H161883   5.572   2.067  16.026 -0.5935  0.2866  0.2916
13464TIP3    H261884   5.570   1.920  16.062 -0.7732  0.5401  1.3649
13465TIP3   OH261885   2.602   3.808  12.039 -0.0704 -0.0998 -0.5861
13465TIP3    H161886   2.670   3.785  11.976 -0.3206  0.5716 -1.1173
13465TIP3    H261887   2.649   3.819  12.122  0.2572 -0.9951 -0.6467
13466TIP3   OH261888   4.930   1.573   3.468 -0.1759 -0.5268 -0.2228
13466TIP3    H161889   4.881   1.632   3.526  0.0038 -0.6832  0.0935
13466TIP3    H261890   4.866   1.505   3.444 -0.3647 -0.2406 -0.5360
13467TIP3   OH261891   1.802   3.438  17.211  0.3424 -0.5345  0.0435
13467TIP3    H161892   1.804   3.416  17.304  1.4694 -0.3124  0.0824
13467TIP3    H261893   1.845   3.365  17.168 -2.0031 -1.6671 -0.5672
13468TIP3   OH261894   3.923   3.413   5.584  0.3833 -0.4167  0.1935
13468TIP3    H161895   3.997   3.442   5.529  0.4871  1.6115  1.3131
13468TIP3    H261896   3.860   3.484   5.578 -0.9297 -1.5381  0.3240
13469TIP3   OH261897   3.141   1.910   4.403  0.5619  0.3634  0.9119
13469TIP3    H161898   3.116   1.983   4.459 -0.9390 -0.2776  1.1083
13469TIP3    H261899   3.155   1.950   4.317 -1.7061  0.7281  0.6445
13470TIP3   OH261900   3.332   2.747  17.044 -0.2716 -0.4722  0.0657
13470TIP3    H161901   3.416   2.732  17.001  0.0052 -0.9357  0.7352
13470TIP3    H261902   3.271   2.765  16.973  0.1451 -1.3242 -0.5323
13471TIP3   OH261903   5.139   4.236  13.303  0.3747  0.2385  0.2234
13471TIP3    H161904   5.124   4.245  13.397  0.5674  0.5505  0.2262
13471TIP3    H261905   5.209   4.170  13.296 -1.6211 -2.0191  0.1679
13472TIP3   OH261906   0.832   1.241  11.102 -0.1458  0.3786  0.0630
13472TIP3    H161907   0.916   1.220  11.061 -1.0314  1.4076 -2.5280
13472TIP3    H261908   0.848   1.324  11.148  0.6803 -0.3920  1.2242
13473TIP3   OH261909   5.869   2.457   5.711  0.2390 -0.1465 -0.2435
13473TIP3    H161910   5.825   2.375   5.734  0.9883 -0.4527  0.1368
13473TIP3    H261911   5.957   2.449   5.749  0.1789  1.0157  0.1762
13474TIP3   OH261912   3.940   4.048  13.176  0.0832 -0.3340 -0.2436
13474TIP3    H161913   3.986   4.060  13.092  1.6158  0.4763  0.6567
13474TIP3    H261914   3.862   4.103  13.169 -0.0202 -0.5910 -1.2837
13475TIP3   OH261915   3.372   5.873   2.635 -0.9290  0.5075  0.2481
13475TIP3    H161916   3.293   5.900   2.589 -0.5896  0.4013 -0.4008
13475TIP3    H261917   3.397   5.950   2.687 -1.2847  0.6403  0.2238
13476TIP3   OH261918   3.964   5.566   0.818  0.4597 -0.4631 -0.2267
13476TIP3    H161919   3.891   5.607   0.865  0.4423  0.0386 -0.6844
13476TIP3    H261920   4.042   5.598   0.863  0.4290 -0.2627 -0.3139
13477TIP3   OH261921   4.360   4.568   0.662 -0.5330 -0.7016  0.6772
13477TIP3    H161922   4.303   4.563   0.586  2.2399  1.8080 -1.7949
13477TIP3    H261923   4.339   4.652   0.703 -0.0584 -0.7432  1.0241
13478TIP3   OH261924   5.997   6.119   2.185 -0.3602  0.1924 -0.0042
13478TIP3    H161925   6.025   6.051   2.124 -2.5283 -0.5250 -0.2964
13478TIP3    H261926   6.034   6.092   2.269 -0.9560 -1.2299 -0.1709
13479TIP3   OH261927   4.123   4.776  15.667  0.3581 -0.0138  0.3782
13479TIP3    H161928   4.181   4.818  15.730 -0.0510 -0.6980  1.2335
13479TIP3    H261929   4.042   4.761  15.716 -0.2558  0.1764 -0.5528
13480TIP3   OH261930   5.130   3.904  14.433  0.4162  0.0332 -0.0741
13480TIP3    H161931   5.150   3.937  14.345  0.0145  1.7813  0.4525
13480TIP3    H261932   5.137   3.981  14.490 -1.7857 -0.5057  1.0529
13481TIP3   OH261933   6.312   4.318   3.989  0.1836 -0.4477 -0.3025
13481TIP3    H161934   6.299   4.402   3.946  1.2868 -1.0037 -1.7939
13481TIP3    H261935   6.255   4.321   4.066 -0.1609  1.4529 -0.5978
13482TIP3   OH261936   3.520   2.678  11.648 -0.6225  0.0790 -0.2545
13482TIP3    H161937   3.494   2.611  11.712 -0.0829 -0.3794 -0.4981
13482TIP3    H261938   3.614   2.665  11.639 -0.8018 -0.3665 -1.6983
13483TIP3   OH261939   6.357   5.259   2.815 -0.2853  0.4820  0.4471
13483TIP3    H161940   6.331   5.315   2.742  1.3141  1.6649  0.7441
13483TIP3    H261941   6.287   5.193   2.820  0.0139 -0.2510 -2.7414
13484TIP3   OH261942   1.552   6.585   2.835  0.0861  0.2255  0.2478
13484TIP3    H161943   1.475   6.588   2.892  0.3222  0.3865  0.5649
13484TIP3    H261944   1.622   6.626   2.887  0.4353 -0.1015  0.0472
13485TIP3   OH261945   4.484   3.726  13.715  0.4848  0.3704 -0.3572
13485TIP3    H161946   4.431   3.678  13.779 -1.5061  2.0141 -0.6897
13485TIP3    H261947   4.476   3.676  13.634 -1.5452  1.1692 -0.6959
13486TIP3   OH261948   5.642   5.403  14.578  0.4890 -0.0291 -0.1496
13486TIP3    H161949   5.592   5.396  14.660  1.0619 -1.6532  0.0962
13486TIP3    H261950   5.576   5.396  14.509  0.0816  0.6515  0.1591
13487TIP3   OH261951   2.663   3.099  13.387  0.4071  0.1272 -0.4360
13487TIP3    H161952   2.613   3.181  13.396  1.9321  1.0019  0.5193
13487TIP3    H261953   2.624   3.040  13.450 -0.4466  0.2380 -0.8409
13488TIP3   OH261954   4.588   3.914   1.783  0.3019 -0.4366 -0.4513
13488TIP3    H161955   4.516   3.956   1.830 -0.7630 -0.6782 -1.7731
13488TIP3    H261956   4.591   3.825   1.818  1.3840  0.1643  1.0889
13489TIP3   OH261957   2.710   5.417   5.965  0.3548 -0.1797  0.0196
13489TIP3    H161958   2.633   5.455   6.005  1.3530  2.5772 -0.4446
13489TIP3    H261959   2.683   5.329   5.938 -2.2951  0.3577  0.6799
13490TIP3   OH261960   2.762   0.479  15.078  0.1029 -0.2801 -0.6671
13490TIP3    H161961   2.803   0.551  15.125 -1.6358  0.0761  0.4249
13490TIP3    H261962   2.754   0.409  15.144  2.1265 -1.6804 -1.8048
13491TIP3   OH261963   3.417   2.056  16.265 -0.3639 -0.1791 -0.4002
13491TIP3    H161964   3.370   1.986  16.220  0.8942 -0.8491 -0.7165
13491TIP3    H261965   3.448   2.016  16.347  1.1799 -0.3089 -1.0154
13492TIP3   OH261966   4.272   4.747   5.976 -0.3240 -0.4637 -0.4880
13492TIP3    H161967   4.201   4.794   6.020  2.0823  2.7440  0.3466
13492TIP3    H261968   4.317   4.701   6.047 -0.1596 -0.5711 -0.6624
13493TIP3   OH261969   3.340   2.164   3.906  0.5425  0.1781  0.0171
13493TIP3    H161970   3.335   2.259   3.893 -0.2674 -0.0053 -1.2206
13493TIP3    H261971   3.266   2.144   3.965  1.3098  0.4202  1.0858
13494TIP3   OH261972   0.141   5.498  13.912 -0.1043  0.2432  0.4099
13494TIP3    H161973   0.190   5.450  13.980 -0.0975 -1.5927 -0.8169
13494TIP3    H261974   0.205   5.514  13.843 -0.6779 -0.0889 -0.2059
13495TIP3   OH261975   3.774   2.761  12.960  0.0031  0.5885  0.2572
13495TIP3    H161976   3.784   2.693  13.026 -1.4142 -1.2211 -1.2477
13495TIP3    H261977   3.857   2.808  12.960  1.0796 -1.1894  1.3325
13496TIP3   OH261978   0.095   4.184  16.919 -0.1973  0.3228 -0.0899
13496TIP3    H161979   0.174   4.209  16.967 -0.9181  0.6057  0.9897
13496TIP3    H261980   0.023   4.211  16.976 -1.0672 -1.1843 -0.4092
13497TIP3   OH261981   4.367   3.668   4.512 -0.4764 -0.3083  0.2290
13497TIP3    H161982   4.408   3.746   4.475 -0.7533  0.1793  0.9264
13497TIP3    H261983   4.401   3.596   4.460  1.3985  0.0474  0.8765
13498TIP3   OH261984   1.415   0.392  13.680  0.6638 -0.0568  0.3487
13498TIP3    H161985   1.351   0.336  13.724  0.3102  0.1510  0.1125
13498TIP3    H261986   1.382   0.481  13.694  1.9717  0.2280  1.9468
13499TIP3   OH261987   1.292   2.388   2.985 -0.1442  0.3865 -0.4838
13499TIP3    H161988   1.264   2.373   3.075 -0.8114  1.9969 -0.3950
13499TIP3    H261989   1.227   2.342   2.932 -0.0063 -0.1895 -0.1606
13500TIP3   OH261990   5.289   0.032   1.114 -0.1120 -0.6178  0.0013
13500TIP3    H161991   5.220   0.090   1.085  1.1242  0.9972  0.1466
13500TIP3    H261992   5.347   0.023   1.038  0.8075  0.0680  0.5967
13501TIP3   OH261993   5.698   1.217  16.010  0.1615 -0.2629 -0.2948
13501TIP3    H161994   5.729   1.224  15.920 -0.7109 -0.9134 -0.6570
13501TIP3    H261995   5.616   1.265  16.011  1.7738  2.7029  1.0080
13502TIP3   OH261996   4.303   3.550  16.796 -0.2976  0.1673  0.1025
13502TIP3    H161997   4.389   3.529  16.760 -0.6799 -2.5228  0.5695
13502TIP3    H261998   4.311   3.642  16.822  1.9170  0.4535 -1.2340
13503TIP3   OH261999   6.533   0.025   4.091 -0.6966  0.2575  0.7253
13503TIP3    H162000   6.521   0.106   4.043  2.3965 -0.0106 -0.7614
13503TIP3    H262001   6.490  -0.042   4.038 -1.0648  0.5635  0.6375
13504TIP3   OH262002   5.575   5.640   2.399  1.1862 -0.1119  0.6147
13504TIP3    H162003   5.593   5.568   2.458 -1.0294 -0.4907  0.9004
13504TIP3    H262004   5.539   5.599   2.321 -1.8564  0.6778  1.4749
13505TIP3   OH262005   3.557   2.793  13.328 -0.6530  0.3449 -0.3314
13505TIP3    H162006   3.644   2.765  13.358 -0.6445  0.0815 -0.6023
13505TIP3    H262007   3.530   2.725  13.267 -1.8294 -0.5530  1.1226
13506TIP3   OH262008   4.393   2.057  12.472 -0.7010 -0.3329 -0.7027
13506TIP3    H162009   4.323   2.037  12.534 -1.7805 -2.7166 -2.4818
13506TIP3    H262010   4.464   1.999  12.497  0.1160  1.0059  0.1835
13507TIP3   OH262011   6.372   1.978  12.854 -0.3809 -0.1512  0.7999
13507TIP3    H162012   6.427   1.909  12.818  0.6042 -0.6300  3.0379
13507TIP3    H262013   6.283   1.942  12.849  0.0410 -1.3127  1.2729
13508TIP3   OH262014   1.881   3.817  17.045 -0.5955 -0.3867 -0.3879
13508TIP3    H162015   1.933   3.857  17.114 -0.6604 -1.6281  0.4095
13508TIP3    H262016   1.839   3.742  17.087 -2.2265 -0.0144 -1.2655
13509TIP3   OH262017   0.560   0.442  14.382  0.1568  0.5724  0.3988
13509TIP3    H162018   0.629   0.504  14.360  0.8832  0.7729  2.9854
13509TIP3    H262019   0.604   0.371  14.428 -0.9798 -0.7920 -0.5335
13510TIP3   OH262020   3.882   0.444   4.525 -0.4935 -0.1361 -0.1241
13510TIP3    H162021   3.832   0.426   4.445 -0.6778 -2.1539  0.3978
13510TIP3    H262022   3.948   0.508   4.498 -1.4055  0.2438 -1.5543
13511TIP3   OH262023   3.729   0.223   2.431  0.8373 -0.1907 -0.4905
13511TIP3    H162024   3.642   0.261   2.448  2.1322  1.9349  2.1716
13511TIP3    H262025   3.767   0.212   2.517  2.3661 -3.4796 -1.4496
13512TIP3   OH262026   4.452   0.751   4.394  0.3066  0.1470  0.3972
13512TIP3    H162027   4.547   0.751   4.404  0.2994 -1.9101  1.0490
13512TIP3    H262028   4.423   0.832   4.437  1.5858 -0.5667  2.7692
13513TIP3   OH262029   3.997   4.058  14.687  0.1902 -0.1761 -0.1191
13513TIP3    H162030   3.956   4.142  14.708 -3.8590 -2.0939  0.6347
13513TIP3    H262031   4.007   4.059  14.592 -1.1555  0.6426 -0.2738
13514TIP3   OH262032   6.322   0.270  12.528 -0.4341  0.9149  0.4062
13514TIP3    H162033   6.303   0.204  12.462 -1.4902  2.8444 -1.3158
13514TIP3    H262034   6.265   0.249  12.601 -0.1275 -0.5499  0.2455
13515TIP3   OH262035   0.251   3.822  12.522 -0.4007 -0.0427  0.8304
13515TIP3    H162036   0.205   3.763  12.464 -0.1738  0.3845  0.2047
13515TIP3    H262037   0.285   3.766  12.592 -0.6047 -0.5671  0.5097
13516TIP3   OH262038   1.151   4.351  13.731 -0.2067  0.1851  0.1482
13516TIP3    H162039   1.112   4.317  13.651 -1.3768  2.7043 -0.4655
13516TIP3    H262040   1.144   4.447  13.723  0.0700  0.5578  3.0330
13517TIP3   OH262041   2.306   2.272   6.694 -0.4091  0.1825  0.6754
13517TIP3    H162042   2.248   2.309   6.761  0.8566 -0.4732  2.2116
13517TIP3    H262043   2.314   2.179   6.718  1.9187  0.4265  1.0635
13518TIP3   OH262044   3.067   2.457   2.753 -0.4911  0.4793  0.5045
13518TIP3    H162045   3.158   2.486   2.752 -0.4454  0.3346  0.3906
13518TIP3    H262046   3.045   2.445   2.660  0.6416 -3.4458  0.5784
13519TIP3   OH262047   3.711   6.672   3.650 -0.0665 -0.2070 -0.4764
13519TIP3    H162048   3.620   6.691   3.628 -0.0996  1.5723  0.9941
13519TIP3    H262049   3.755   6.757   3.649  0.5985 -0.3733  2.9275
13520TIP3   OH262050   4.389   4.857   6.834 -0.6111 -0.0793  0.5027
13520TIP3    H162051   4.316   4.837   6.776  0.6604 -1.8269 -0.5892
13520TIP3    H262052   4.428   4.772   6.854  0.7446  0.7408  1.5690
13521TIP3   OH262053   4.178   5.709   1.643 -0.5387 -0.7298 -0.5778
13521TIP3    H162054   4.246   5.765   1.607 -0.7837 -0.4754 -0.6539
13521TIP3    H262055   4.142   5.759   1.717 -0.4573 -0.9804 -0.3649
13522TIP3   OH262056   0.242   2.889  16.822  0.0479 -0.0649  0.0024
13522TIP3    H162057   0.177   2.916  16.757  0.1098  0.4086  0.1299
13522TIP3    H262058   0.256   2.796  16.805 -0.5349 -0.1332 -0.1380
13523TIP3   OH262059   5.450   1.538  12.645 -0.1856  0.1125 -0.0683
13523TIP3    H162060   5.379   1.512  12.586 -2.3161  1.1684  1.8584
13523TIP3    H262061   5.478   1.457  12.687 -1.6047 -0.1135  0.5008
13524TIP3   OH262062   2.557   2.769  11.684  0.1736  0.5837 -0.3963
13524TIP3    H162063   2.469   2.797  11.663 -0.4069  0.0182  1.0899
13524TIP3    H262064   2.610   2.796  11.609 -1.0085  2.1269 -0.7337
13525TIP3   OH262065   3.933   4.453   0.428 -0.3497  0.3779  0.4958
13525TIP3    H162066   3.906   4.457   0.519 -1.5101  0.3686  0.1659
13525TIP3    H262067   3.915   4.540   0.393  1.5456  0.8780  0.6377
13526TIP3   OH262068   2.251   2.561  16.389  0.0609 -0.3052  0.3742
13526TIP3    H162069   2.214   2.514  16.463  0.4671 -1.2581 -0.0117
13526TIP3    H262070   2.189   2.545  16.317  0.2429 -0.3230  0.2190
13527TIP3   OH262071   2.562   4.002   1.032 -0.2910 -0.0575  0.4366
13527TIP3    H162072   2.573   3.916   1.072 -0.9370  0.3086  1.4221
13527TIP3    H262073   2.621   4.059   1.081  0.1982  0.0625 -0.2699
13528TIP3   OH262074   0.961   3.064   4.962 -0.1538  0.4709  0.3245
13528TIP3    H162075   1.050   3.034   4.943 -1.1998 -3.2095  0.3924
13528TIP3    H262076   0.916   3.061   4.878 -0.7766  0.0533  0.6633
13529TIP3   OH262077   6.363   4.677   0.046  0.5109  0.1584  0.0358
13529TIP3    H162078   6.319   4.592   0.041 -1.6956  1.0541  2.1488
13529TIP3    H262079   6.420   4.670   0.123  2.6948 -0.3053 -1.5133
13530TIP3   OH262080   1.402   5.864  11.141  0.3652 -0.1288  0.0734
13530TIP3    H162081   1.454   5.944  11.132 -0.5033  0.2964 -1.4477
13530TIP3    H262082   1.344   5.880  11.215 -0.9942  1.3631 -1.2585
13531TIP3   OH262083   4.318   6.584  14.180 -0.3051 -0.3685 -0.1360
13531TIP3    H162084   4.228   6.614  14.170  0.3566  2.2840  1.0361
13531TIP3    H262085   4.365   6.626  14.108 -0.0492 -2.2417 -1.1194
13532TIP3   OH262086   4.098   5.122   5.098 -0.5614 -0.4968  0.7065
13532TIP3    H162087   4.132   5.122   5.187  2.1267  1.1807 -0.1858
13532TIP3    H262088   4.147   5.191   5.053 -3.3077  0.1569 -1.5687
13533TIP3   OH262089   1.098   1.751  11.372  0.5049 -0.3006  0.6600
13533TIP3    H162090   1.014   1.705  11.375  0.3720 -0.1070  0.0553
13533TIP3    H262091   1.123   1.750  11.280  0.1318  1.4782  0.5030
13534TIP3   OH262092   4.206   0.210   3.949  0.3062  0.1522 -0.3546
13534TIP3    H162093   4.186   0.116   3.942  1.0756 -0.1451  1.0507
13534TIP3    H262094   4.294   0.218   3.912 -0.1921  0.5391 -1.5156
13535TIP3   OH262095   6.477   2.785  13.805  0.4778  0.5624  0.1951
13535TIP3    H162096   6.526   2.751  13.880  1.0045  0.4688 -0.1805
13535TIP3    H262097   6.388   2.798  13.838  0.4921 -0.2833  0.5957
13536TIP3   OH262098   2.039   6.638   1.763 -0.2435  0.2217 -0.0911
13536TIP3    H162099   1.957   6.686   1.754  0.9525  2.3379 -0.4706
13536TIP3    H262100   2.107   6.705   1.754  1.5412 -1.4705  0.0587
13537TIP3   OH262101   4.205   0.311  14.644 -0.0929 -0.0207  0.1157
13537TIP3    H162102   4.122   0.313  14.595  0.8855 -0.0014 -1.6414
13537TIP3    H262103   4.224   0.218  14.655  0.0091 -0.0317 -0.1414
13538TIP3   OH262104   2.304   6.429   3.063 -0.4500 -0.2887 -0.2500
13538TIP3    H162105   2.395   6.442   3.091 -0.3106  3.3192 -1.7822
13538TIP3    H262106   2.294   6.335   3.055  2.1243 -1.0081  3.1005
13539TIP3   OH262107   5.866   0.594   4.716 -0.0853  0.3406 -0.1113
13539TIP3    H162108   5.822   0.646   4.782 -1.6589 -0.8732 -0.1497
13539TIP3    H262109   5.799   0.575   4.650 -0.1136 -3.0560  0.6906
13540TIP3   OH262110   6.283   4.066  13.896 -0.6982  0.0188 -0.5056
13540TIP3    H162111   6.325   4.152  13.888 -0.2995 -0.0108  0.9247
13540TIP3    H262112   6.189   4.084  13.887 -0.6834  0.7450  0.6006
13541TIP3   OH262113   4.619   4.654   5.004  0.2992 -0.5590  0.1020
13541TIP3    H162114   4.575   4.569   4.999 -1.4892  0.2498  1.2896
13541TIP3    H262115   4.582   4.704   4.932  0.0597 -0.2155  0.4631
13542TIP3   OH262116   1.686   1.564   3.376 -0.4433  0.5621 -0.0654
13542TIP3    H162117   1.667   1.658   3.377 -1.4409  0.3710  0.2618
13542TIP3    H262118   1.663   1.536   3.287 -0.3616  0.5876 -0.0943
13543TIP3   OH262119   0.378   2.355  11.696 -0.0803  0.2482  0.3972
13543TIP3    H162120   0.419   2.434  11.732  1.1465  0.4280 -1.2589
13543TIP3    H262121   0.366   2.375  11.603  2.1392 -2.2159 -0.5351
13544TIP3   OH262122   6.141   1.390   4.145  0.2169 -0.2886 -0.1104
13544TIP3    H162123   6.048   1.402   4.164 -0.0455  0.5120 -1.6975
13544TIP3    H262124   6.175   1.342   4.220 -1.2156  0.4951  1.1004
13545TIP3   OH262125   2.493   2.681  16.502 -0.6633 -0.5308 -0.2199
13545TIP3    H162126   2.563   2.617  16.514  0.2373  0.6475  1.0393
13545TIP3    H262127   2.432   2.638  16.441  0.4395 -2.1334 -0.2604
13546TIP3   OH262128   3.458   4.340   6.271 -0.0896  0.2623 -0.6660
13546TIP3    H162129   3.480   4.306   6.185  1.2397  0.2988 -0.3554
13546TIP3    H262130   3.517   4.415   6.284  0.1842 -0.1346  0.5228
13547TIP3   OH262131   2.137   0.823   5.981 -0.0163  0.0417 -0.5679
13547TIP3    H162132   2.064   0.873   6.017  0.7985  1.9379 -1.4662
13547TIP3    H262133   2.190   0.800   6.058 -0.4222  0.5135 -0.1432
13548TIP3   OH262134   1.733   3.938   5.514 -0.1582  0.2793  0.1072
13548TIP3    H162135   1.659   3.984   5.554  0.3909 -0.2852  1.8568
13548TIP3    H262136   1.755   3.868   5.576  2.9634  1.5241  0.6215
13549TIP3   OH262137   5.270   4.750   5.640 -0.1448 -0.3439  0.3017
13549TIP3    H162138   5.311   4.819   5.587  0.3696  0.3298  1.5336
13549TIP3    H262139   5.186   4.734   5.597 -0.5393  1.4846  0.3064
13550TIP3   OH262140   4.981   4.356   5.614 -0.3593 -0.0740 -0.4750
13550TIP3    H162141   4.943   4.378   5.529 -0.0166 -0.1516 -0.6543
13550TIP3    H262142   4.913   4.376   5.678 -0.6904 -0.2009 -0.7868
13551TIP3   OH262143   1.946   2.445   3.343 -0.0661 -0.0922  0.0041
13551TIP3    H162144   1.996   2.523   3.318 -1.1798  0.2838 -1.1275
13551TIP3    H262145   1.997   2.406   3.414 -0.0267  2.2548  1.3565
13552TIP3   OH262146   6.062   4.656   2.344 -0.4113  0.1950 -0.3576
13552TIP3    H162147   6.012   4.678   2.266  1.0929 -1.9450 -2.0326
13552TIP3    H262148   6.035   4.567   2.366  0.5554  0.0680  0.3984
13553TIP3   OH262149   5.207   2.612   3.702 -0.2213  0.0028  0.5625
13553TIP3    H162150   5.179   2.568   3.622  0.0620  0.0744  0.4254
13553TIP3    H262151   5.185   2.704   3.688 -0.0939  0.0288  0.5330
13554TIP3   OH262152   3.656   2.419  16.700  0.0570 -0.3724 -0.6612
13554TIP3    H162153   3.607   2.500  16.717  0.4293 -0.3045  0.1273
13554TIP3    H262154   3.728   2.447  16.645  0.2715 -0.1296 -0.2668
13555TIP3   OH262155   0.984   5.085  14.715  0.2255 -0.5645  0.4375
13555TIP3    H162156   0.912   5.117  14.661  1.4713 -1.2850 -1.7613
13555TIP3    H262157   1.002   5.157  14.775  0.2036  1.2235 -1.5682
13556TIP3   OH262158   1.442   5.551   3.590  0.0380  0.2218  0.0806
13556TIP3    H162159   1.450   5.636   3.632  1.3631 -0.4943  1.3673
13556TIP3    H262160   1.390   5.498   3.651 -1.9481  0.4207 -1.3117
13557TIP3   OH262161   3.230   2.234   3.222 -0.2736 -0.3279  0.1702
13557TIP3    H162162   3.138   2.260   3.233 -0.2988  0.4290 -1.5536
13557TIP3    H262163   3.267   2.301   3.166  1.2310 -0.9000  0.4433
13558TIP3   OH262164   4.824   3.621   0.297  0.2111 -0.3287  0.2366
13558TIP3    H162165   4.801   3.710   0.325  1.6386 -0.3660  1.6558
13558TIP3    H262166   4.919   3.617   0.304  0.2769 -1.6026 -1.0165
13559TIP3   OH262167   1.092   1.247  15.037  0.0643 -0.4415 -0.1203
13559TIP3    H162168   1.120   1.219  15.124  1.6220 -0.6000 -0.6475
13559TIP3    H262169   1.089   1.342  15.042 -0.1165 -0.4614  0.1801
13560TIP3   OH262170   0.464   5.500  15.394 -0.0784  0.0587 -0.3973
13560TIP3    H162171   0.434   5.590  15.393  4.7053  1.9837 -0.6651
13560TIP3    H262172   0.463   5.475  15.487  1.9939  1.9162  0.2051
13561TIP3   OH262173   4.211   6.239   0.064  0.6608 -0.0740  0.2050
13561TIP3    H162174   4.215   6.146   0.042  1.1830 -0.3009  1.1911
13561TIP3    H262175   4.149   6.244   0.137 -0.7627  0.6092 -0.9930
13562TIP3   OH262176   2.155   0.330   4.254  0.0974  0.1698 -0.0743
13562TIP3    H162177   2.110   0.379   4.323  0.3586  0.1527  0.1107
13562TIP3    H262178   2.147   0.238   4.281  1.7383  0.2662  0.8854
13563TIP3   OH262179   2.505   2.205   7.039  0.3458 -0.9552 -0.0957
13563TIP3    H162180   2.431   2.218   7.097  0.1025 -0.7246 -0.4517
13563TIP3    H262181   2.566   2.151   7.089  2.0105  2.5055  2.0059
13564TIP3   OH262182   3.622   1.103   0.778  0.5207  0.0630  0.1851
13564TIP3    H162183   3.643   1.167   0.711  2.2990  3.7632  3.8037
13564TIP3    H262184   3.702   1.051   0.787 -0.1021 -1.1922 -1.1643
13565TIP3   OH262185   3.567   0.795  16.700  0.0545  0.0991 -0.2720
13565TIP3    H162186   3.539   0.862  16.762  0.6973  0.6452 -0.5619
13565TIP3    H262187   3.598   0.844  16.624  0.0444 -0.5422 -0.7003
13566TIP3   OH262188   0.462   0.329   5.702 -0.4435 -0.4367 -0.2377
13566TIP3    H162189   0.431   0.291   5.784  0.3629  0.0084  0.2807
13566TIP3    H262190   0.409   0.408   5.691  0.7851  0.5787  0.8905
13567TIP3   OH262191   3.309   3.767  15.218  0.4215 -0.0680  0.2286
13567TIP3    H162192   3.296   3.780  15.312  0.2388  0.9764  0.0709
13567TIP3    H262193   3.238   3.817  15.177  2.6086  2.6787 -0.5559
13568TIP3   OH262194   4.780   5.873  13.080  0.2234  0.2023  0.5458
13568TIP3    H162195   4.803   5.815  13.153 -0.0689 -1.3464 -0.5540
13568TIP3    H262196   4.856   5.872  13.022  0.3360  1.1917  0.6526
13569TIP3   OH262197   2.896   1.889   5.637  0.0845 -0.0329  0.0312
13569TIP3    H162198   2.982   1.865   5.601 -0.1091 -1.7867  0.6591
13569TIP3    H262199   2.881   1.979   5.606  1.4797 -0.2318 -1.3100
13570TIP3   OH262200   2.927   5.631   5.032 -0.9055  0.0518  0.4760
13570TIP3    H162201   2.999   5.659   5.088 -1.6270  0.7956  1.0604
13570TIP3    H262202   2.960   5.554   4.986  1.0261  1.5747 -0.8607
13571TIP3   OH262203   2.731   3.593  15.094  0.4545 -0.6663 -1.3815
13571TIP3    H162204   2.807   3.583  15.152  0.1465  0.7903 -0.6904
13571TIP3    H262205   2.761   3.560  15.010  0.9794 -2.6622 -0.4766
13572TIP3   OH262206   1.891   0.193  14.963 -0.0705  0.0212  0.6140
13572TIP3    H162207   1.899   0.103  14.931  0.1916  0.7135 -1.4085
13572TIP3    H262208   1.949   0.197  15.038  0.4359 -1.3305  0.3275
13573TIP3   OH262209   6.404   2.699  16.807 -0.0545 -0.0892 -0.0110
13573TIP3    H162210   6.436   2.679  16.895  2.0084  1.3586 -0.3362
13573TIP3    H262211   6.428   2.622  16.755  1.1566  0.1174  0.1943
13574TIP3   OH262212   6.721   5.774  15.755 -0.2585  0.5857 -0.0097
13574TIP3    H162213   6.759   5.860  15.775  1.1480  0.1473 -0.6790
13574TIP3    H262214   6.692   5.741  15.840 -0.2422  1.4546  0.3458
13575TIP3   OH262215   0.745   6.187  10.786 -0.1559 -0.6998 -0.1663
13575TIP3    H162216   0.773   6.243  10.714 -0.1626 -1.5956 -0.8883
13575TIP3    H262217   0.739   6.245  10.861  0.5106  0.1253 -0.7374
13576TIP3   OH262218   1.896   1.400   1.145  1.0585  0.2764  0.3065
13576TIP3    H162219   1.879   1.350   1.225  0.3424  0.0494  0.0250
13576TIP3    H262220   1.944   1.340   1.089  2.4079  0.7466  0.9069
13577TIP3   OH262221   2.467   0.100  16.652 -0.0724 -0.0326  0.3316
13577TIP3    H162222   2.477   0.175  16.709  2.7131  1.9856 -2.4970
13577TIP3    H262223   2.391   0.121  16.597  1.2946  1.3213 -1.1268
13578TIP3   OH262224   4.629   5.505  16.023  0.1186 -0.2514  0.3416
13578TIP3    H162225   4.686   5.543  16.090 -1.9530  2.8966  0.5584
13578TIP3    H262226   4.553   5.473  16.072 -0.9439  1.1372 -0.3116
13579TIP3   OH262227   4.425   6.102  15.652 -0.5086 -0.6207 -0.3056
13579TIP3    H162228   4.337   6.114  15.688 -0.2504  0.7189 -0.0729
13579TIP3    H262229   4.483   6.108  15.728  0.1253  3.1174 -0.8855
13580TIP3   OH262230   1.957   0.546  10.697 -0.3381  0.4568 -0.4204
13580TIP3    H162231   2.032   0.504  10.655 -0.9415  0.6091 -1.6977
13580TIP3    H262232   1.888   0.479  10.694 -0.1905  0.2179  0.9903
13581TIP3   OH262233   2.276   3.852  15.522  0.1389  0.0838  0.5721
13581TIP3    H162234   2.188   3.858  15.558 -0.8447 -1.3183 -1.4385
13581TIP3    H262235   2.284   3.929  15.466 -0.3672 -0.5338 -0.3605
13582TIP3   OH262236   4.540   0.463   4.619  0.1528  0.2946 -0.1988
13582TIP3    H162237   4.481   0.476   4.694  0.8652  2.4437  0.0468
13582TIP3    H262238   4.585   0.381   4.639  2.0449  1.9088  3.0293
13583TIP3   OH262239   6.124   2.529  16.947  0.4047 -0.0840 -0.2830
13583TIP3    H162240   6.094   2.547  16.858 -0.6251  1.1055  0.2760
13583TIP3    H262241   6.089   2.600  16.999  1.2431 -0.5995  1.0435
13584TIP3   OH262242   3.566   1.465   4.784  0.0054 -0.7143  0.0083
13584TIP3    H162243   3.589   1.451   4.693 -1.1351  0.4355 -0.4921
13584TIP3    H262244   3.548   1.559   4.791  2.6989 -0.2133  2.0778
13585TIP3   OH262245   5.157   0.028  17.450 -0.1082  0.0644  0.4136
13585TIP3    H162246   5.249   0.007  17.468 -0.1669 -1.0345 -0.4788
13585TIP3    H262247   5.109  -0.050  17.478 -0.7500  0.5283  0.6187
13586TIP3   OH262248   1.927   3.461   4.014  0.1837  0.0375 -0.2208
13586TIP3    H162249   1.926   3.385   3.956  0.7765  1.4154 -2.1736
13586TIP3    H262250   2.018   3.491   4.012 -0.0013  0.6965  0.6571
13587TIP3   OH262251   1.542   4.539  14.268 -0.4492  0.3661 -0.1173
13587TIP3    H162252   1.464   4.576  14.310 -0.2066 -0.6685  1.3119
13587TIP3    H262253   1.509   4.463  14.219 -0.5343  0.7594 -0.6741
13588TIP3   OH262254   0.205   5.900   0.082  0.3528  0.2345 -0.0826
13588TIP3    H162255   0.206   5.964   0.154 -1.1059 -1.1361  1.2312
13588TIP3    H262256   0.297   5.877   0.070  0.6933  0.9897  0.9008
13589TIP3   OH262257   5.156   2.892   2.466 -0.4123 -0.4887 -0.4042
13589TIP3    H162258   5.240   2.920   2.431 -0.5941  0.9702  0.2451
13589TIP3    H262259   5.104   2.972   2.470 -1.2583 -1.0615  0.7649
13590TIP3   OH262260   0.794   1.814   1.342  0.1218 -0.0572 -0.2952
13590TIP3    H162261   0.875   1.782   1.382  0.1658  0.8229  0.3356
13590TIP3    H262262   0.823   1.879   1.278 -0.0822  0.4444  0.1092
13591TIP3   OH262263   6.274   5.297   4.833 -0.5027  0.1263 -0.0625
13591TIP3    H162264   6.203   5.314   4.771 -0.6843  4.2951  0.9453
13591TIP3    H262265   6.229   5.272   4.914 -0.7826  0.9639  0.0601
13592TIP3   OH262266   6.471   6.169   4.225  0.6120  0.4771 -0.5961
13592TIP3    H162267   6.503   6.080   4.237  0.3090  0.1492 -1.9901
13592TIP3    H262268   6.428   6.168   4.139  0.7062  1.9920 -0.6949
13593TIP3   OH262269   3.353   5.742  16.021 -0.0475  0.3233 -0.0329
13593TIP3    H162270   3.262   5.723  16.043  0.7891  0.2848  4.4123
13593TIP3    H262271   3.369   5.829  16.059  2.3158 -0.7446  1.6590
13594TIP3   OH262272   1.322   5.501  11.589 -0.0762 -0.1645 -0.3213
13594TIP3    H162273   1.390   5.549  11.542  0.2056  0.2803  0.5013
13594TIP3    H262274   1.370   5.442  11.648 -0.4112 -0.5268 -0.4060
13595TIP3   OH262275   0.933   6.607  17.239 -0.3755  0.1626 -0.2815
13595TIP3    H162276   0.967   6.697  17.233  0.1035 -0.0599 -1.0902
13595TIP3    H262277   1.010   6.555  17.263 -0.2112 -0.3000 -1.7652
13596TIP3   OH262278   2.335   5.460   6.503 -0.2951 -0.0853  0.4257
13596TIP3    H162279   2.284   5.511   6.566  0.4152 -1.3128  2.0718
13596TIP3    H262280   2.272   5.398   6.466 -0.6184  0.3314  0.2689
13597TIP3   OH262281   3.892   5.666  12.503 -0.1208  0.1954 -0.4015
13597TIP3    H162282   3.916   5.701  12.417  0.4462  0.3123 -0.2014
13597TIP3    H262283   3.901   5.741  12.563  0.6199 -0.1595 -0.0523
13598TIP3   OH262284   2.207   4.372  14.171  0.3324  0.2310 -0.1770
13598TIP3    H162285   2.137   4.333  14.223  0.5378 -0.7908 -0.6319
13598TIP3    H262286   2.272   4.402  14.235 -0.7611  1.7176  0.2786
13599TIP3   OH262287   3.358   3.063   1.736 -0.3041  0.2400 -0.0878
13599TIP3    H162288   3.292   3.049   1.668 -0.0883  0.4027 -0.3277
13599TIP3    H262289   3.343   3.153   1.765 -0.4310  0.1547  0.1223
13600TIP3   OH262290   6.292   4.375   6.085  0.2490 -0.1402 -0.7083
13600TIP3    H162291   6.244   4.314   6.142  1.2186 -1.3942 -1.1690
13600TIP3    H262292   6.281   4.460   6.125  0.0526 -0.8469  0.7916
13601TIP3   OH262293   3.147   5.958   5.960 -0.0333 -0.8222  0.4343
13601TIP3    H162294   3.077   5.944   5.896 -0.0306  4.3093 -1.1689
13601TIP3    H262295   3.106   5.939   6.045 -2.5213 -0.6211 -0.6336
13602TIP3   OH262296   4.916   5.030  10.640 -0.2448 -0.0446  0.3373
13602TIP3    H162297   4.943   5.120  10.657 -0.6367  0.2686 -0.5913
13602TIP3    H262298   4.821   5.034  10.632 -0.6196 -1.0808  3.2875
13603TIP3   OH262299   5.766   6.602  11.367 -1.1398  0.1617  0.1070
13603TIP3    H162300   5.856   6.579  11.345 -1.1680  1.3530 -1.3884
13603TIP3    H262301   5.774   6.678  11.424 -1.1907 -0.3747  0.8465
13604TIP3   OH262302   6.359   6.652   5.052  0.1445  0.0658  0.0882
13604TIP3    H162303   6.343   6.561   5.078  0.4127 -0.0808 -0.2599
13604TIP3    H262304   6.317   6.660   4.966  0.2010  0.2447  0.0774
13605TIP3   OH262305   6.097   3.474   5.034 -0.3469 -0.4976  0.3411
13605TIP3    H162306   6.053   3.513   5.109 -2.5208 -0.5169 -0.8467
13605TIP3    H262307   6.089   3.540   4.964 -0.7918 -1.5441 -0.6353
13606TIP3   OH262308   2.855   5.774   4.024 -0.0403  0.3962  0.2626
13606TIP3    H162309   2.767   5.765   3.988  0.6333 -0.2404 -1.3165
13606TIP3    H262310   2.867   5.869   4.033 -1.0384  0.4706  0.9315
13607TIP3   OH262311   3.712   4.426   4.585 -0.1443 -0.2187  0.4194
13607TIP3    H162312   3.800   4.417   4.551 -0.0035 -0.1739  0.7623
13607TIP3    H262313   3.655   4.413   4.510  0.1783  0.7181  0.0021
13608TIP3   OH262314   1.518   4.599   5.911 -0.1654 -0.0761 -0.0281
13608TIP3    H162315   1.608   4.591   5.942  0.6174  0.2470 -2.0702
13608TIP3    H262316   1.525   4.652   5.831 -2.2145  0.2299 -0.0565
13609TIP3   OH262317   3.641   2.773   0.239  0.4231 -0.0650 -0.2103
13609TIP3    H162318   3.608   2.729   0.161 -0.9066  1.4415 -0.5435
13609TIP3    H262319   3.635   2.866   0.218  0.0678  0.3711  1.6815
13610TIP3   OH262320   6.185   5.840  13.513  0.5062 -0.0124 -0.2646
13610TIP3    H162321   6.130   5.762  13.516 -0.3177  0.4757 -1.6234
13610TIP3    H262322   6.274   5.807  13.526  0.0298 -0.9630  0.7851
13611TIP3   OH262323   1.252   0.121   5.469 -0.6750 -0.3180 -0.3647
13611TIP3    H162324   1.189   0.120   5.397  0.0663  1.5849 -1.0980
13611TIP3    H262325   1.252   0.211   5.500  0.5223 -0.6487  0.6758
13612TIP3   OH262326   1.735   5.607  15.766 -0.3273  0.3453 -0.6814
13612TIP3    H162327   1.787   5.639  15.840  0.2684 -1.3723 -0.3122
13612TIP3    H262328   1.799   5.577  15.702 -0.8110 -1.2302 -0.4768
13613TIP3   OH262329   0.848   2.979  11.915  0.2911  0.7395  0.0356
13613TIP3    H162330   0.821   2.914  11.850 -0.0401  1.1390 -0.2387
13613TIP3    H262331   0.916   2.936  11.966 -0.5564 -0.1436  0.4611
13614TIP3   OH262332   4.994   0.423   2.585 -0.0677 -0.0774  0.2207
13614TIP3    H162333   4.977   0.342   2.537  0.2957  0.3394 -0.6377
13614TIP3    H262334   5.016   0.487   2.517 -0.9254  0.9000  0.8386
13615TIP3   OH262335   0.983   1.502   6.872  0.2321  0.3225  0.4358
13615TIP3    H162336   0.982   1.526   6.964  0.8406 -1.5114  0.9481
13615TIP3    H262337   0.896   1.466   6.856  0.6553 -0.8422  0.7189
13616TIP3   OH262338   1.405   0.549   2.140 -0.0526 -0.1061 -0.3006
13616TIP3    H162339   1.326   0.499   2.115 -0.0816 -0.8200  1.1079
13616TIP3    H262340   1.444   0.497   2.210  0.9763  0.9096 -0.1045
13617TIP3   OH262341   3.823   0.854   0.487 -0.2111  0.4320 -0.0670
13617TIP3    H162342   3.787   0.923   0.543 -0.4525 -0.4893  0.9670
13617TIP3    H262343   3.755   0.787   0.484  0.5756 -0.4094  0.1763
13618TIP3   OH262344   3.323   5.862   3.671  0.0189 -0.0640 -0.7051
13618TIP3    H162345   3.347   5.908   3.591  1.3400  0.6236  0.0437
13618TIP3    H262346   3.406   5.834   3.709 -0.6249 -1.0554  0.0446
13619TIP3   OH262347   1.064   2.119   3.620 -0.4280  0.1585 -0.4238
13619TIP3    H162348   1.137   2.177   3.643 -0.6893 -0.0622  1.0815
13619TIP3    H262349   1.015   2.167   3.553 -0.6149  1.6688  0.7416
13620TIP3   OH262350   2.896   6.102  13.635  0.3779  0.0220 -0.2656
13620TIP3    H162351   2.827   6.069  13.578  0.0006  0.6147 -0.1624
13620TIP3    H262352   2.973   6.051  13.611 -0.5808 -2.3280  1.1918
13621TIP3   OH262353   4.155   0.918  16.442 -0.4777 -0.1784 -0.1061
13621TIP3    H162354   4.159   0.980  16.369  0.4716  0.7291  0.6786
13621TIP3    H262355   4.109   0.966  16.511  0.5533 -0.2110  0.6205
13622TIP3   OH262356   2.162   4.095   3.489 -0.3945  0.3428  0.6451
13622TIP3    H162357   2.250   4.069   3.464 -0.5833  0.1834  0.1369
13622TIP3    H262358   2.121   4.124   3.407 -1.2371 -0.8189  0.6373
13623TIP3   OH262359   3.875   3.878   2.356 -0.0419 -0.2627  0.2936
13623TIP3    H162360   3.910   3.911   2.440  0.6693 -0.1722 -0.0286
13623TIP3    H262361   3.828   3.953   2.319  1.4124  0.3694 -0.3464
13624TIP3   OH262362   1.988   2.470  17.421  0.3399 -0.2819 -0.3044
13624TIP3    H162363   1.967   2.500  17.509  0.0326  1.1718 -0.8401
13624TIP3    H262364   2.047   2.537  17.386  1.8265 -1.6915 -0.6314
13625TIP3   OH262365   3.383   4.579   4.898 -0.8189 -0.0578  0.0195
13625TIP3    H162366   3.350   4.568   4.809  1.5304  0.5342 -1.0068
13625TIP3    H262367   3.460   4.522   4.902  0.7928  2.0445  0.6702
13626TIP3   OH262368   3.420   0.178  10.825 -0.2180  0.1654  0.0708
13626TIP3    H162369   3.445   0.099  10.874 -1.6701 -0.0851  0.4779
13626TIP3    H262370   3.441   0.250  10.883 -0.3079 -0.0209  0.3364
13627TIP3   OH262371   0.283   2.052   1.956  0.3337 -0.7595 -0.0892
13627TIP3    H162372   0.240   2.133   1.931  0.0714 -0.2150  1.9851
13627TIP3    H262373   0.301   2.008   1.873 -0.5370  0.8784 -1.1934
13628TIP3   OH262374   4.189   4.582   6.746 -0.0703 -0.3812 -0.3797
13628TIP3    H162375   4.278   4.598   6.778  1.0541 -3.9798 -1.2510
13628TIP3    H262376   4.181   4.639   6.669  0.8895  1.0652  0.5462
13629TIP3   OH262377   1.413   1.692  11.302 -0.0142 -0.1401  0.5323
13629TIP3    H162378   1.468   1.620  11.272 -0.1665 -0.0256 -0.0329
13629TIP3    H262379   1.359   1.715  11.226  1.6470  2.1040 -0.0675
13630TIP3   OH262380   4.513   3.024   4.340 -0.5771 -0.3214  0.4964
13630TIP3    H162381   4.421   3.014   4.365 -1.1576  1.0529 -0.9357
13630TIP3    H262382   4.517   2.990   4.250  0.3634 -0.5321  0.6124
13631TIP3   OH262383   1.209   0.557  16.634  0.2662  0.1144 -0.4198
13631TIP3    H162384   1.249   0.576  16.719  0.7711 -0.4002 -0.5397
13631TIP3    H262385   1.174   0.468  16.644  0.4418  0.0015 -0.7927
13632TIP3   OH262386   0.629   0.366   2.596  0.0094  0.0035 -0.7145
13632TIP3    H162387   0.580   0.284   2.594  1.0276 -0.8148  2.1542
13632TIP3    H262388   0.654   0.382   2.505 -0.3395 -2.8003 -1.3891
13633TIP3   OH262389   5.324   3.587  15.677  0.5297 -0.6849  0.0164
13633TIP3    H162390   5.333   3.675  15.713  2.2696  0.5102 -2.9233
13633TIP3    H262391   5.414   3.557  15.664 -0.0198 -2.0817 -0.8118
13634TIP3   OH262392   6.609   3.819   2.120  0.2765 -0.0052  0.0754
13634TIP3    H162393   6.570   3.843   2.204  0.9847 -0.1051  0.4451
13634TIP3    H262394   6.677   3.886   2.106 -0.7493  0.8217 -1.0907
13635TIP3   OH262395   4.752   1.385  12.112 -0.2205  0.0316 -0.0221
13635TIP3    H162396   4.744   1.379  12.207 -2.6516  0.4587 -0.1237
13635TIP3    H262397   4.741   1.295  12.081 -3.7474  0.2976  0.0015
13636TIP3   OH262398   0.285   4.617  12.420  0.1055  0.3652  0.3333
13636TIP3    H162399   0.228   4.561  12.472  0.0373  1.7365  1.8166
13636TIP3    H262400   0.366   4.567  12.410 -0.4221 -0.5276  0.4513
13637TIP3   OH262401   1.664   2.140   2.805  0.4558 -0.8575 -0.5275
13637TIP3    H162402   1.699   2.207   2.747  0.3138  0.0987  0.4440
13637TIP3    H262403   1.621   2.189   2.875  0.2921 -1.9649  0.1870
13638TIP3   OH262404   2.284   2.148  17.237  0.4699 -0.5706 -0.0521
13638TIP3    H162405   2.269   2.075  17.297 -0.6188  0.4768  1.0011
13638TIP3    H262406   2.332   2.212  17.290 -0.4414  0.3383 -0.2912
13639TIP3   OH262407   1.314   5.496  11.250 -0.0671  0.0644 -0.0991
13639TIP3    H162408   1.344   5.432  11.314  0.7222 -2.8628 -3.1419
13639TIP3    H262409   1.394   5.537  11.218 -0.3874  0.8913  0.1295
13640TIP3   OH262410   3.071   3.943  16.892 -0.0877  0.4084  0.0237
13640TIP3    H162411   3.022   3.864  16.871 -0.4748 -0.5883  3.9459
13640TIP3    H262412   3.004   4.012  16.897  0.0379  0.7134 -1.8313
13641TIP3   OH262413   1.262   1.115  14.404  0.4029 -0.0805  0.0722
13641TIP3    H162414   1.335   1.105  14.343  0.2850  1.9129 -0.4450
13641TIP3    H262415   1.251   1.209  14.414 -2.5947 -0.2824 -0.4688
13642TIP3   OH262416   5.829   2.251  16.129  0.1699  0.1672  0.1475
13642TIP3    H162417   5.750   2.253  16.183 -0.0136  0.1430 -0.1185
13642TIP3    H262418   5.797   2.242  16.039  0.2178  4.1518 -0.4466
13643TIP3   OH262419   4.446   2.193  15.979  0.2697 -0.1195  0.4196
13643TIP3    H162420   4.353   2.179  15.958  0.0930 -1.3534  1.8665
13643TIP3    H262421   4.457   2.288  15.972 -0.6765 -0.0933 -1.3601
13644TIP3   OH262422   4.041   0.418  13.805  0.6661 -0.3540  0.0017
13644TIP3    H162423   4.039   0.492  13.866  1.3551 -0.6360  0.3677
13644TIP3    H262424   4.128   0.381  13.815  0.2918 -1.2770 -0.1209
13645TIP3   OH262425   5.278   2.724  13.391  0.4561 -0.5406  0.3261
13645TIP3    H162426   5.273   2.810  13.433  0.0904 -0.6700  0.5500
13645TIP3    H262427   5.307   2.743  13.302 -0.5484 -0.0863  0.0767
13646TIP3   OH262428   0.358   0.933   7.031 -0.6777  0.1189 -0.0739
13646TIP3    H162429   0.359   0.843   6.998  0.6887 -0.3323  1.1132
13646TIP3    H262430   0.449   0.962   7.024 -0.8416  0.9011  0.8580
13647TIP3   OH262431   6.445   4.072   3.977 -0.3177  0.1286 -0.0965
13647TIP3    H162432   6.536   4.100   3.979 -0.0250 -0.8204  0.8378
13647TIP3    H262433   6.395   4.154   3.976  0.5064  0.7131  1.7591
13648TIP3   OH262434   1.896   1.985   4.888 -0.0020  0.3291 -0.1005
13648TIP3    H162435   1.945   2.001   4.968 -0.3403  2.1824 -0.2048
13648TIP3    H262436   1.807   2.016   4.907 -0.1832  0.4362 -1.0440
13649TIP3   OH262437   1.537   5.156   3.975 -0.6723  0.4688 -0.6299
13649TIP3    H162438   1.546   5.066   3.947 -1.2971 -0.1054  0.8912
13649TIP3    H262439   1.442   5.171   3.980 -0.5941  0.7398  0.4371
13650TIP3   OH262440   2.126   1.649   4.828 -0.2258 -0.0366  0.4061
13650TIP3    H162441   2.192   1.585   4.854 -0.0489 -0.6674 -1.4720
13650TIP3    H262442   2.174   1.732   4.825  0.3751 -0.4065 -0.4682
13651TIP3   OH262443   3.431   4.303  13.702  0.2356  0.3230  0.1526
13651TIP3    H162444   3.430   4.354  13.783  1.5906  2.5872 -1.1288
13651TIP3    H262445   3.342   4.270  13.693 -0.3361  1.2669  1.7962
13652TIP3   OH262446   5.489   6.026  10.684 -0.4266  0.0767  0.8050
13652TIP3    H162447   5.425   6.068  10.742 -0.3098  1.6306 -0.1297
13652TIP3    H262448   5.436   5.975  10.623 -0.7029  0.4068  0.7652
13653TIP3   OH262449   1.407   1.629   2.958  0.6019  0.1767  0.2005
13653TIP3    H162450   1.469   1.689   3.000 -0.0254  1.5868 -0.8346
13653TIP3    H262451   1.343   1.686   2.916 -3.0304 -1.1489  3.3498
13654TIP3   OH262452   0.333   0.109   3.633  0.1420  0.7868 -0.5739
13654TIP3    H162453   0.362   0.111   3.542 -0.4169  0.8013 -0.7562
13654TIP3    H262454   0.361   0.023   3.665 -0.6340  0.3218 -1.0985
13655TIP3   OH262455   4.191   4.433  12.983  0.7667  0.2469  0.5081
13655TIP3    H162456   4.202   4.345  13.020 -2.3367  0.2569  1.8504
13655TIP3    H262457   4.213   4.492  13.055  0.2036  0.4387  0.5349
13656TIP3   OH262458   6.542   1.781  17.510  0.4900  0.3250  0.6567
13656TIP3    H162459   6.568   1.689  17.510 -2.0442 -0.4776  0.5644
13656TIP3    H262460   6.603   1.824  17.570  2.4426 -1.1558 -0.1781
13657TIP3   OH262461   2.845   2.277   0.138 -0.6556  0.1338  0.2599
13657TIP3    H162462   2.903   2.240   0.205  0.3528  1.0546 -0.0776
13657TIP3    H262463   2.881   2.247   0.055 -1.1594  0.0212  0.0796
13658TIP3   OH262464   4.180   0.934  17.490 -0.6540 -0.4910  0.1775
13658TIP3    H162465   4.198   0.949  17.398 -1.0290  2.0028  0.4338
13658TIP3    H262466   4.258   0.889  17.523 -0.3742 -1.1022 -1.2648
13659TIP3   OH262467   0.858   2.601  11.269  0.1810 -0.0430 -0.3142
13659TIP3    H162468   0.946   2.564  11.282  0.5385  1.1026  0.6650
13659TIP3    H262469   0.844   2.595  11.175  1.4898  0.1334 -0.5409
13660TIP3   OH262470   1.547   6.141  14.948 -1.0501 -0.3986 -0.4504
13660TIP3    H162471   1.470   6.092  14.921 -1.8776 -1.1377  2.7536
13660TIP3    H262472   1.608   6.073  14.979  0.6978  0.2148 -2.3513
13661TIP3   OH262473   6.139   2.228  13.170 -0.1316  0.8102 -0.2746
13661TIP3    H162474   6.098   2.211  13.254  1.5933 -0.1555  0.4190
13661TIP3    H262475   6.112   2.318  13.148 -3.3033 -0.0350 -0.3683
13662TIP3   OH262476   2.566   5.785   4.244 -0.0904 -0.0506 -0.0420
13662TIP3    H162477   2.482   5.831   4.245 -0.2282 -0.2583 -0.8088
13662TIP3    H262478   2.566   5.739   4.160 -0.4291 -2.3257  1.1495
13663TIP3   OH262479   1.016   2.962  17.642 -0.5094  0.0885 -0.5565
13663TIP3    H162480   1.042   3.013  17.719  0.4546  1.2236 -1.5841
13663TIP3    H262481   0.949   3.015  17.599 -0.8146 -0.3828 -0.6728
13664TIP3   OH262482   2.085   2.447  16.190 -0.0506  0.2876 -0.1579
13664TIP3    H162483   2.033   2.520  16.157  0.4110  0.6883 -0.0059
13664TIP3    H262484   2.020   2.387  16.226 -0.6297 -0.4689 -2.3150
13665TIP3   OH262485   2.394   4.305  14.716  0.3548  0.1238 -0.4241
13665TIP3    H162486   2.329   4.237  14.734 -1.4542  1.6703 -0.7530
13665TIP3    H262487   2.343   4.377  14.677  2.1713  1.6747 -0.0741
13666TIP3   OH262488   5.189   1.171   0.950  0.0132  0.1024  0.4732
13666TIP3    H162489   5.235   1.253   0.937  1.1484 -0.7799 -1.4995
13666TIP3    H262490   5.251   1.104   0.922 -2.3333 -1.1510 -2.2777
13667TIP3   OH262491   1.095   4.713   3.574 -0.0815  0.5004  0.3899
13667TIP3    H162492   1.064   4.754   3.654 -1.5183 -1.7680  1.0960
13667TIP3    H262493   1.185   4.686   3.594 -0.0352  0.9721  0.8226
13668TIP3   OH262494   0.131   3.208  12.188  0.2754 -0.4703  0.8591
13668TIP3    H162495   0.149   3.257  12.268  1.1580 -1.1730  1.1171
13668TIP3    H262496   0.205   3.146  12.181 -1.2119 -2.3594  1.0239
13669TIP3   OH262497   2.641   2.638   1.574  0.1862 -0.0644  0.6262
13669TIP3    H162498   2.693   2.717   1.561 -0.4254  0.2673  0.1647
13669TIP3    H262499   2.705   2.567   1.567  0.4676  0.2878 -0.8069
13670TIP3   OH262500   1.988   2.331  15.160  0.3129 -0.3548 -0.1458
13670TIP3    H162501   1.950   2.418  15.158 -2.0114 -1.2708  0.8961
13670TIP3    H262502   1.983   2.300  15.069  3.0905  1.2591 -0.9809
13671TIP3   OH262503   1.998   6.508  12.568  0.0042 -0.4549  0.1091
13671TIP3    H162504   2.015   6.600  12.550 -2.7332 -0.1516 -1.6592
13671TIP3    H262505   1.931   6.483  12.503  0.0680 -3.4757  1.0319
13672TIP3   OH262506   5.496   3.649   0.070  0.9727 -0.0254 -0.6064
13672TIP3    H162507   5.556   3.666  -0.003  0.2062  0.7719 -1.0669
13672TIP3    H262508   5.510   3.556   0.091  2.7080  0.2562 -0.3694
13673TIP3   OH262509   1.827   6.469   0.243 -0.3759  0.5518 -0.1824
13673TIP3    H162510   1.846   6.473   0.337  1.4009  0.1456 -0.4769
13673TIP3    H262511   1.867   6.387   0.215 -2.7117 -0.3827 -0.9502
13674TIP3   OH262512   1.050   1.633  15.930  0.3061 -0.7755  0.2839
13674TIP3    H162513   0.960   1.617  15.903  0.9998 -1.5523 -1.7684
13674TIP3    H262514   1.064   1.727  15.913 -0.7054 -0.1280  2.6626
13675TIP3   OH262515   3.354   1.408  11.653 -0.1433  0.0605 -0.2865
13675TIP3    H162516   3.319   1.468  11.586  0.7299  1.4815  0.4808
13675TIP3    H262517   3.449   1.416  11.644  0.0334 -2.1322 -0.9294
13676TIP3   OH262518   2.120   5.821  14.990  0.1573  0.7318  0.5357
13676TIP3    H162519   2.066   5.751  14.953  4.3068 -2.8313  0.4079
13676TIP3    H262520   2.086   5.832  15.079 -1.1474 -0.9800  0.3128
13677TIP3   OH262521   4.279   1.538   0.248 -1.0900  0.1942 -0.1949
13677TIP3    H162522   4.357   1.585   0.277 -0.6546 -0.2089 -0.6811
13677TIP3    H262523   4.302   1.506   0.161 -0.9580 -1.8740  0.5519
13678TIP3   OH262524   3.377   3.283  13.304  0.1561 -0.2413  0.3849
13678TIP3    H162525   3.447   3.229  13.339  1.2094  0.7181 -0.1727
13678TIP3    H262526   3.348   3.335  13.379  1.7141  1.0762  0.1370
13679TIP3   OH262527   3.847   0.721   5.483 -0.1408 -0.2702  0.0510
13679TIP3    H162528   3.866   0.627   5.478 -2.7933 -0.9177  0.4819
13679TIP3    H262529   3.797   0.740   5.403  0.4738  0.8267 -0.0938
13680TIP3   OH262530   1.949   0.277   3.636 -0.5977  0.2587 -0.1377
13680TIP3    H162531   1.938   0.210   3.704  0.3919 -1.6411 -1.7103
13680TIP3    H262532   2.015   0.336   3.672 -1.9479  0.8091  1.5558
13681TIP3   OH262533   5.475   0.349  14.126  0.1522  0.2880 -0.4188
13681TIP3    H162534   5.435   0.313  14.047 -3.8312  2.2800  0.4479
13681TIP3    H262535   5.496   0.272  14.180 -0.7315 -0.9470 -1.7591
13682TIP3   OH262536   0.946   0.380  11.631 -0.7957  0.2570 -0.2089
13682TIP3    H162537   0.966   0.394  11.538 -0.1111 -2.3420 -0.5389
13682TIP3    H262538   0.891   0.454  11.656 -1.8089  0.5353 -2.9598
13683TIP3   OH262539   4.100   4.729   3.993  0.1387 -0.3612  0.0942
13683TIP3    H162540   4.072   4.653   4.044 -1.6577 -0.6742 -1.2479
13683TIP3    H262541   4.049   4.723   3.912 -0.9395  2.9142  0.3839
13684TIP3   OH262542   1.348   5.801  17.511 -0.4617 -0.0026  0.0957
13684TIP3    H162543   1.316   5.852  17.586  1.2403  0.9795  0.2162
13684TIP3    H262544   1.428   5.846  17.484  0.7508 -2.2247 -0.2614
13685TIP3   OH262545   1.441   1.608   6.140 -0.0477  0.0327 -0.2412
13685TIP3    H162546   1.442   1.601   6.236 -1.8464 -0.8125 -0.2406
13685TIP3    H262547   1.501   1.680   6.121 -1.0344  1.4462  1.6348
13686TIP3   OH262548   0.764   6.673  12.446 -0.1472 -0.0789  0.3866
13686TIP3    H162549   0.847   6.628  12.432  1.3471  2.5658 -0.0915
13686TIP3    H262550   0.697   6.610  12.421  1.8430 -1.2012 -2.7404
13687TIP3   OH262551   2.748   3.417  17.200  0.3617  0.0640 -0.3935
13687TIP3    H162552   2.674   3.478  17.205  0.3129 -0.0495  0.4850
13687TIP3    H262553   2.807   3.445  17.271  1.3214  0.3516 -1.2787
13688TIP3   OH262554   3.464   3.790  13.320  0.8227 -0.5698  0.0338
13688TIP3    H162555   3.488   3.844  13.245 -1.2839 -0.1366 -0.4138
13688TIP3    H262556   3.456   3.701  13.284 -3.0037  0.0445 -1.1012
13689TIP3   OH262557   2.345   3.434   6.326 -0.1268  0.0017  0.2028
13689TIP3    H162558   2.391   3.379   6.388 -1.7019 -2.0364 -0.3263
13689TIP3    H262559   2.260   3.452   6.368 -0.2096  0.7819 -0.2687
13690TIP3   OH262560   4.916   5.675  16.971  0.0599  0.0086  0.2725
13690TIP3    H162561   4.984   5.717  17.023 -0.1554  0.5158  0.1494
13690TIP3    H262562   4.840   5.671  17.028 -0.7792  2.3052 -0.5785
13691TIP3   OH262563   6.310   0.872  11.419 -0.1110 -0.2819 -0.0013
13691TIP3    H162564   6.293   0.816  11.495  2.4988  1.6614  2.2081
13691TIP3    H262565   6.369   0.821  11.364  0.0827 -0.7349  0.6204
13692TIP3   OH262566   3.600   0.235  12.061 -0.5986  0.2228 -0.1289
13692TIP3    H162567   3.538   0.193  12.120 -0.5642  0.8257  0.3442
13692TIP3    H262568   3.553   0.312  12.028 -1.0863 -0.7658 -1.8740
13693TIP3   OH262569   3.583   0.540   2.335  0.0198 -0.6207  0.5722
13693TIP3    H162570   3.643   0.555   2.262 -0.3416 -0.3170  0.3317
13693TIP3    H262571   3.508   0.496   2.296 -1.5647  2.2324  0.1132
13694TIP3   OH262572   6.110   5.851  12.236  0.3560  0.6608 -0.8801
13694TIP3    H162573   6.193   5.862  12.282  0.5594 -0.2898 -1.0035
13694TIP3    H262574   6.121   5.770  12.185 -0.4945  0.7477 -1.2190
13695TIP3   OH262575   3.016   3.897  11.919  0.1323 -0.5677  0.0997
13695TIP3    H162576   2.978   3.983  11.936  0.8807 -0.7140  3.0749
13695TIP3    H262577   3.109   3.913  11.909  0.5979 -1.1724  2.8655
13696TIP3   OH262578   2.546   0.439   1.098 -0.3294 -0.2507 -0.1416
13696TIP3    H162579   2.608   0.511   1.097 -0.7429  0.1632  1.2620
13696TIP3    H262580   2.492   0.455   1.175 -1.4298 -1.2270 -0.6705
13697TIP3   OH262581   6.174   5.367  17.607 -0.7654 -0.3752 -0.2110
13697TIP3    H162582   6.101   5.382  17.666  1.8946 -0.1236  3.3853
13697TIP3    H262583   6.183   5.450  17.559 -1.6131  0.3191  0.7711
13698TIP3   OH262584   1.800   2.520  14.471  0.3464 -0.2669 -0.2100
13698TIP3    H162585   1.762   2.433  14.488  0.1819  0.1832  1.9096
13698TIP3    H262586   1.885   2.501  14.430 -0.3616 -1.3653 -1.2637
13699TIP3   OH262587   2.142   1.946  12.606 -0.5853  0.2448  0.4204
13699TIP3    H162588   2.054   1.952  12.571 -0.3430 -0.7956 -0.4054
13699TIP3    H262589   2.184   1.876  12.556  0.5459  0.3666  1.1471
13700TIP3   OH262590   6.617   6.344  16.692 -0.4700  0.1269  0.0938
13700TIP3    H162591   6.658   6.336  16.778 -0.0220  1.3236  0.0187
13700TIP3    H262592   6.530   6.305  16.702 -0.9766  1.5244  1.4981
13701TIP3   OH262593   0.328   2.258  15.070  0.0882 -0.9567  0.4941
13701TIP3    H162594   0.295   2.193  15.132 -3.3967 -0.3637 -0.5391
13701TIP3    H262595   0.336   2.209  14.987  1.3094 -0.9373  0.5870
13702TIP3   OH262596   4.059   5.607   5.327 -0.2118  0.1298  0.2938
13702TIP3    H162597   4.063   5.703   5.329  1.5344  0.2389 -2.6237
13702TIP3    H262598   4.133   5.580   5.381 -0.5937  0.4231  0.9711
13703TIP3   OH262599   1.335   1.177   1.023 -0.0983  0.3374  0.0331
13703TIP3    H162600   1.342   1.121   0.946 -0.0537 -0.8446  0.8721
13703TIP3    H262601   1.241   1.186   1.039 -0.1125  0.7252 -0.2453
13704TIP3   OH262602   5.714   4.585  13.505  0.3182  0.1355  0.0605
13704TIP3    H162603   5.721   4.492  13.522  0.4578  0.3598  1.3199
13704TIP3    H262604   5.721   4.626  13.591 -2.6406  1.1449 -0.0477
13705TIP3   OH262605   0.262   2.319  16.481 -0.4042  0.0843 -0.2033
13705TIP3    H162606   0.316   2.391  16.513  0.3803  0.1397 -1.6191
13705TIP3    H262607   0.290   2.243  16.532  0.5650  0.2498 -0.4834
13706TIP3   OH262608   2.678   5.474   4.405  0.0534  0.4946 -0.1583
13706TIP3    H162609   2.619   5.443   4.336 -0.9259 -0.1983  0.9350
13706TIP3    H262610   2.635   5.446   4.486 -0.4984  4.0051  0.9240
13707TIP3   OH262611   5.039   1.283   3.181  0.2607  0.2807 -0.0915
13707TIP3    H162612   5.060   1.201   3.226  0.0708 -0.1152 -0.7020
13707TIP3    H262613   4.947   1.273   3.156  0.9194 -0.4914 -2.5110
13708TIP3   OH262614   5.495   3.329  16.280  0.2483  0.2318  0.5801
13708TIP3    H162615   5.440   3.393  16.234 -0.0629 -0.0689  0.5254
13708TIP3    H262616   5.582   3.342  16.244 -0.2221 -0.8723 -1.0539
13709TIP3   OH262617   3.350   6.656   0.549  0.6326  0.0817 -0.4438
13709TIP3    H162618   3.423   6.596   0.562  0.8268  0.7390  1.9462
13709TIP3    H262619   3.272   6.601   0.546  0.8832 -0.3730  0.9503
13710TIP3   OH262620   1.427   1.484  16.052 -0.7378 -0.0291 -0.6747
13710TIP3    H162621   1.422   1.499  15.957 -0.9959 -0.7914 -0.7867
13710TIP3    H262622   1.355   1.424  16.070 -0.3331 -0.3345 -0.0825
13711TIP3   OH262623   4.784   4.361  16.716  0.8142  0.0799 -0.0895
13711TIP3    H162624   4.877   4.356  16.738  1.3412  1.5567 -1.7469
13711TIP3    H262625   4.778   4.433  16.654 -1.5243  0.2824  0.2811
13712TIP3   OH262626   2.799   1.411   1.120 -0.2960 -0.2681 -0.1120
13712TIP3    H162627   2.730   1.476   1.134 -0.8509 -1.1122  1.3121
13712TIP3    H262628   2.804   1.402   1.025  0.7035  2.7564 -0.4546
13713TIP3   OH262629   3.722   4.252   0.014 -1.0448 -0.3540 -0.0650
13713TIP3    H162630   3.761   4.243  -0.073  2.1487 -0.6841  1.2903
13713TIP3    H262631   3.777   4.316   0.059 -3.6015  1.0755  1.2703
13714TIP3   OH262632   1.559   4.144   5.157  0.7025 -0.1097  0.3067
13714TIP3    H162633   1.585   4.075   5.218 -0.4455 -0.6486  0.2089
13714TIP3    H262634   1.493   4.195   5.204 -2.0546 -2.0056 -1.2506
13715TIP3   OH262635   4.499   5.636  13.725  0.1443  0.0349 -0.5390
13715TIP3    H162636   4.463   5.558  13.682  0.6896  0.7185 -2.2966
13715TIP3    H262637   4.425   5.696  13.731 -0.3556 -0.6830  1.1011
13716TIP3   OH262638   4.806   1.435   5.814  0.0119 -0.0546  0.0180
13716TIP3    H162639   4.846   1.436   5.727  1.6852  1.7918  0.7288
13716TIP3    H262640   4.827   1.349   5.849 -3.9919 -2.4715 -2.6841
13717TIP3   OH262641   2.888   4.374  13.382  0.0337 -0.3087 -0.0971
13717TIP3    H162642   2.817   4.438  13.394  0.8440  0.6893 -0.4734
13717TIP3    H262643   2.852   4.309  13.322  0.0858  1.2798 -1.9337
13718TIP3   OH262644   2.663   2.039  14.153  0.3451 -0.4846  0.3356
13718TIP3    H162645   2.683   2.053  14.060  0.6337  1.3313  0.6339
13718TIP3    H262646   2.604   2.111  14.176 -0.8438 -1.7039  1.2380
13719TIP3   OH262647   4.559   5.662  13.288  0.3845  0.1843 -0.1252
13719TIP3    H162648   4.597   5.574  13.293 -2.3839 -1.0755  1.2026
13719TIP3    H262649   4.585   5.704  13.370  1.5315  0.5456 -0.6645
13720TIP3   OH262650   4.567   6.314   0.684  0.3406 -0.0742  0.2637
13720TIP3    H162651   4.508   6.328   0.610  0.5662  1.2316  0.3052
13720TIP3    H262652   4.603   6.401   0.702  0.1858 -0.3513  2.0122
13721TIP3   OH262653   4.545   0.593  15.227  0.1023 -0.0028 -0.0062
13721TIP3    H162654   4.630   0.637  15.225  0.4124 -0.5369  0.7822
13721TIP3    H262655   4.561   0.509  15.184  0.2656 -0.5613  1.1025
13722TIP3   OH262656   4.185   2.617  16.271 -0.4911 -0.3150 -0.7507
13722TIP3    H162657   4.134   2.659  16.339 -3.1710 -2.9769 -0.9019
13722TIP3    H262658   4.251   2.566  16.318 -1.2115 -0.7636 -0.2037
13723TIP3   OH262659   3.626   6.500  13.517  0.4546 -0.1422 -0.0123
13723TIP3    H162660   3.717   6.525  13.534  1.0381 -1.1861 -1.4148
13723TIP3    H262661   3.601   6.448  13.593  0.6516  1.0392  0.8918
13724TIP3   OH262662   5.211   0.465   1.733  0.6595  0.0833 -0.4928
13724TIP3    H162663   5.263   0.538   1.765 -0.5425 -0.0819  2.0643
13724TIP3    H262664   5.241   0.389   1.783 -0.7620 -0.3637 -0.2528
13725TIP3   OH262665   5.718   3.661  15.128  0.2782 -0.2385 -0.1068
13725TIP3    H162666   5.748   3.664  15.038  1.8330  0.6753  0.4005
13725TIP3    H262667   5.760   3.584  15.166 -1.5202 -1.4736 -0.5004
13726TIP3   OH262668   3.949   1.441  14.207 -0.1455 -1.1086  0.5839
13726TIP3    H162669   3.878   1.437  14.271 -0.0290  0.0950  0.8147
13726TIP3    H262670   4.002   1.364  14.225 -1.1563 -1.8077  0.6740
13727TIP3   OH262671   1.019   1.061  14.114 -1.0173 -0.2813  0.5188
13727TIP3    H162672   1.089   0.998  14.131 -1.2195 -0.4713  0.6687
13727TIP3    H262673   1.063   1.145  14.104 -0.5675 -0.6772 -1.2552
13728TIP3   OH262674   4.353   0.770  15.539  0.3245 -0.0707  0.3571
13728TIP3    H162675   4.277   0.724  15.574 -1.2391  1.2090 -1.2076
13728TIP3    H262676   4.343   0.765  15.444  1.7075  0.9290  0.1286
13729TIP3   OH262677   5.753   5.354   3.864 -0.5306  0.0082 -0.0222
13729TIP3    H162678   5.835   5.379   3.822 -0.3250 -1.6569 -0.7063
13729TIP3    H262679   5.686   5.373   3.799 -0.5010 -0.1333 -0.0948
13730TIP3   OH262680   5.651   1.225  16.680 -0.3653 -0.1496 -0.2304
13730TIP3    H162681   5.581   1.283  16.653 -0.3093  0.1491  0.2471
13730TIP3    H262682   5.652   1.155  16.615 -1.3697 -0.3706 -0.0142
13731TIP3   OH262683   6.690   1.772   5.734  0.4926  0.0144 -0.2023
13731TIP3    H162684   6.780   1.745   5.715  0.7272 -0.5317  1.4851
13731TIP3    H262685   6.699   1.841   5.799 -0.3016 -0.3724  0.3366
13732TIP3   OH262686   2.718   5.730  12.701  0.5666 -0.1489  0.1507
13732TIP3    H162687   2.624   5.710  12.704  0.1165  1.8325  1.1034
13732TIP3    H262688   2.752   5.677  12.629 -1.2071 -1.1829  0.0201
13733TIP3   OH262689   2.693   4.326   4.003 -0.3836  0.1669  0.3757
13733TIP3    H162690   2.741   4.253   4.043  0.3065  0.6808  0.5018
13733TIP3    H262691   2.601   4.301   4.012 -0.1392 -1.2746 -0.7235
13734TIP3   OH262692   5.153   6.011   6.111 -0.4150 -0.2102  0.3201
13734TIP3    H162693   5.210   6.013   6.187 -1.0514  0.1594  0.7913
13734TIP3    H262694   5.094   5.937   6.126 -0.7441  0.0522  0.3397
13735TIP3   OH262695   1.259   2.935   2.669 -0.0127  0.1451 -0.2090
13735TIP3    H162696   1.209   2.859   2.638  0.6147  0.0176 -0.9426
13735TIP3    H262697   1.347   2.922   2.634  0.4681  0.5279  0.7981
13736TIP3   OH262698   0.952   3.357   2.947  0.4929  0.2023  0.6185
13736TIP3    H162699   0.906   3.395   3.022 -1.0111  0.3566 -0.3165
13736TIP3    H262700   1.041   3.390   2.954  0.2910  0.5077  2.1214
13737TIP3   OH262701   4.555   5.260  14.407 -0.7236 -0.1451  0.3599
13737TIP3    H162702   4.470   5.219  14.427 -1.2821  1.2035  0.8946
13737TIP3    H262703   4.572   5.318  14.482  0.2571  0.2378 -0.1403
13738TIP3   OH262704   1.479   2.849   2.528 -0.1185  0.5656 -0.3977
13738TIP3    H162705   1.569   2.881   2.530 -0.3976  1.3571 -0.1065
13738TIP3    H262706   1.467   2.817   2.439  0.3086  0.8935 -0.5795
13739TIP3   OH262707   6.179   4.136  14.230 -0.4483 -0.1171 -0.4223
13739TIP3    H162708   6.241   4.177  14.169  0.4501 -0.2366  0.3871
13739TIP3    H262709   6.233   4.110  14.305 -0.9818 -2.6993 -0.8396
13740TIP3   OH262710   0.619   3.222   2.995 -0.0011 -0.2769 -0.0883
13740TIP3    H162711   0.563   3.283   2.947  0.2392 -0.0576 -0.0948
13740TIP3    H262712   0.696   3.211   2.939  1.1397  1.4277  1.0438
13741TIP3   OH262713   1.458   1.260  13.872 -0.1336  0.0935  0.5060
13741TIP3    H162714   1.548   1.235  13.892 -0.6732 -2.7559 -0.1985
13741TIP3    H262715   1.462   1.298  13.785  0.3401 -0.3914  0.3130
13742TIP3   OH262716   4.444   3.823  16.113 -0.2818 -0.0854 -0.1622
13742TIP3    H162717   4.385   3.829  16.188 -0.4134  0.1808 -0.2832
13742TIP3    H262718   4.496   3.903  16.117 -1.0378  0.4675 -0.9688
13743TIP3   OH262719   6.447   0.982  14.816  0.9318 -0.0898 -0.4332
13743TIP3    H162720   6.456   0.980  14.721  0.9385 -1.7187 -0.4203
13743TIP3    H262721   6.356   1.010  14.831  0.4606 -1.2826 -0.9673
13744TIP3   OH262722   5.216   6.708   2.257  0.2193 -0.3181  0.2883
13744TIP3    H162723   5.306   6.732   2.235  0.8830 -2.1134  0.8149
13744TIP3    H262724   5.163   6.742   2.186  1.3062  0.8186 -0.0052
13745TIP3   OH262725   1.904   6.583   2.476  0.3743  0.1166 -0.3065
13745TIP3    H162726   1.867   6.564   2.389  1.4807 -1.8914 -0.3932
13745TIP3    H262727   1.834   6.631   2.521 -1.0681 -0.7059 -1.5592
13746TIP3   OH262728   1.843   2.233  13.101 -0.5574  0.1810  0.1708
13746TIP3    H162729   1.778   2.303  13.093  0.5992  1.3379  0.4275
13746TIP3    H262730   1.864   2.230  13.194  0.2936  0.3498 -0.0053
13747TIP3   OH262731   3.357   4.881  11.619 -0.1103 -0.4343 -0.0764
13747TIP3    H162732   3.363   4.910  11.710  0.8180  0.8819 -0.5246
13747TIP3    H262733   3.448   4.863  11.595 -0.2368  0.1334 -1.0160
13748TIP3   OH262734   5.515   3.130  12.592 -0.0098  0.0814 -0.2592
13748TIP3    H162735   5.472   3.208  12.555 -0.7813 -0.9019 -1.5344
13748TIP3    H262736   5.510   3.065  12.522 -0.1197 -1.3887  1.0664
13749TIP3   OH262737   6.404   5.804  16.174 -0.2462 -0.3957 -1.0897
13749TIP3    H162738   6.331   5.744  16.159 -0.3063 -0.6941  0.2813
13749TIP3    H262739   6.370   5.868  16.237  1.2207 -1.7079  1.1973
13750TIP3   OH262740   1.792   0.604   1.910  0.0242 -0.0131 -0.8237
13750TIP3    H162741   1.722   0.564   1.962 -1.3383  0.8043 -1.9509
13750TIP3    H262742   1.747   0.640   1.833  1.6249  0.9963 -1.3360
13751TIP3   OH262743   3.617   6.033  16.116 -0.3055  0.2675  0.0356
13751TIP3    H162744   3.623   6.109  16.058 -0.7855  0.0934 -0.2497
13751TIP3    H262745   3.523   6.020  16.128 -0.2769 -1.0253 -0.9166
13752TIP3   OH262746   4.209   0.259  14.963  0.4258  0.1126 -0.2193
13752TIP3    H162747   4.256   0.267  14.880 -0.7540  0.2874 -0.8927
13752TIP3    H262748   4.160   0.341  14.971  1.8266  0.8433  1.5095
13753TIP3   OH262749   1.233   3.678   1.398 -0.5773  0.0805 -0.4574
13753TIP3    H162750   1.262   3.676   1.307  0.9756 -1.1534  0.0134
13753TIP3    H262751   1.152   3.729   1.397 -0.4674  0.2784 -2.4800
13754TIP3   OH262752   5.697   5.659  12.647 -0.0726  0.4795 -0.7093
13754TIP3    H162753   5.781   5.690  12.681  0.1039 -1.4733  0.8417
13754TIP3    H262754   5.644   5.642  12.724 -1.5278  0.6422 -1.6278
13755TIP3   OH262755   5.626   2.856   6.790  0.2943  0.3437  0.9054
13755TIP3    H162756   5.620   2.886   6.699  3.0236  1.1337  0.8996
13755TIP3    H262757   5.536   2.861   6.823 -1.0042 -1.1885 -2.0822
13756TIP3   OH262758   1.423   5.717   2.528  0.3655  0.4326  0.4992
13756TIP3    H162759   1.376   5.642   2.492 -0.3986  0.8646  0.5683
13756TIP3    H262760   1.489   5.738   2.462  1.1474 -0.8061  0.8610
13757TIP3   OH262761   0.229   5.676  14.829  0.6878  0.4547 -0.1598
13757TIP3    H162762   0.207   5.707  14.741  0.0619  2.0473  0.5237
13757TIP3    H262763   0.149   5.692  14.880  0.4590 -1.9845  0.3472
13758TIP3   OH262764   1.089   5.320   0.806  0.2072 -0.4227  0.2895
13758TIP3    H162765   1.132   5.237   0.830 -0.7180 -0.9514  0.1914
13758TIP3    H262766   0.999   5.308   0.836 -0.9486 -0.9503 -3.0077
13759TIP3   OH262767   6.569   5.360   1.401 -0.2297 -0.3209 -0.6619
13759TIP3    H162768   6.610   5.316   1.475 -0.0991  0.5247 -0.2151
13759TIP3    H262769   6.641   5.378   1.340 -0.0123  0.6527 -0.1361
13760TIP3   OH262770   0.505   1.372   4.723  0.2340 -0.0367  0.2347
13760TIP3    H162771   0.495   1.457   4.679  2.2310 -0.0611 -0.3403
13760TIP3    H262772   0.528   1.311   4.653 -3.0186 -1.5614  0.3067
13761TIP3   OH262773   4.803   2.160  11.682 -0.3425  0.5970  0.4048
13761TIP3    H162774   4.850   2.226  11.631 -0.8667  0.2948 -0.4761
13761TIP3    H262775   4.791   2.201  11.768  2.4969  0.2624  1.0614
13762TIP3   OH262776   3.377   1.212   0.065  0.0874 -0.1347 -0.0968
13762TIP3    H162777   3.406   1.188  -0.023 -1.3829  0.2250 -0.7135
13762TIP3    H262778   3.282   1.219   0.058  0.0015  0.5827  1.3578
13763TIP3   OH262779   4.642   0.862   5.021  0.5926  0.1567 -0.1525
13763TIP3    H162780   4.622   0.826   4.935 -0.7905 -0.0392  0.2379
13763TIP3    H262781   4.595   0.946   5.024  0.6865  0.1949  0.3911
13764TIP3   OH262782   1.031   2.115  12.843  0.6448  0.0197 -0.0302
13764TIP3    H162783   0.999   2.136  12.930  2.0522  0.0435  0.4911
13764TIP3    H262784   1.108   2.061  12.857  0.4103 -0.6939 -1.2786
13765TIP3   OH262785   2.805   3.858   2.268  0.7514  0.5824 -0.5061
13765TIP3    H162786   2.710   3.842   2.266  0.5518  1.4239  0.6672
13765TIP3    H262787   2.814   3.949   2.239  1.3602  0.0245 -2.1125
13766TIP3   OH262788   2.695   1.458   5.300  0.3596 -0.2403  0.0120
13766TIP3    H162789   2.714   1.448   5.393  1.3259  0.6982 -0.0708
13766TIP3    H262790   2.699   1.552   5.284 -0.1811 -0.3546 -0.9075
13767TIP3   OH262791   5.265   4.082  16.983  0.4861 -0.2310 -0.3966
13767TIP3    H162792   5.202   4.058  16.915  0.1201 -0.8186  0.1392
13767TIP3    H262793   5.244   4.024  17.056  0.4323  0.8592  0.4608
13768TIP3   OH262794   1.781   2.402  14.798 -0.2407 -0.4706  0.2297
13768TIP3    H162795   1.707   2.412  14.858 -0.2591 -0.7057  0.2463
13768TIP3    H262796   1.742   2.368  14.718 -0.0950 -0.9875  0.3741
13769TIP3   OH262797   4.428   3.536  12.203  0.3688 -0.2797 -0.5090
13769TIP3    H162798   4.513   3.560  12.167  0.4430 -0.3004 -0.3461
13769TIP3    H262799   4.438   3.446  12.232  0.7814  0.2154  0.9913
13770TIP3   OH262800   5.270   5.323   0.274  0.0485  0.1565 -0.3296
13770TIP3    H162801   5.336   5.346   0.208 -2.0623  1.8862 -2.0130
13770TIP3    H262802   5.204   5.393   0.267 -2.0763 -1.5683  1.0741
13771TIP3   OH262803   0.473   3.927  13.736 -0.4129  0.6096 -0.6797
13771TIP3    H162804   0.499   3.865  13.804  1.3135  2.0683  0.0859
13771TIP3    H262805   0.435   3.873  13.667 -1.3186 -1.0128  1.0058
13772TIP3   OH262806   1.288   4.255   4.321  0.0003 -0.1189  0.1136
13772TIP3    H162807   1.314   4.169   4.354  0.3472  0.4191  1.3178
13772TIP3    H262808   1.267   4.305   4.400  0.6435  1.1715 -0.4990
13773TIP3   OH262809   1.760   2.483   6.460 -0.2208  0.4040 -0.4921
13773TIP3    H162810   1.701   2.530   6.518 -1.4024  0.4144 -1.6347
13773TIP3    H262811   1.847   2.496   6.497 -0.7464  1.8063  0.3172
13774TIP3   OH262812   5.500   4.118  16.122  0.3387  0.2426 -0.1789
13774TIP3    H162813   5.555   4.041  16.135  1.2704  1.2874  2.9191
13774TIP3    H262814   5.460   4.134  16.208 -1.1189  2.2908 -1.1438
13775TIP3   OH262815   4.696   6.664  16.215  0.3868  0.0703  0.4870
13775TIP3    H162816   4.719   6.601  16.147 -2.9439 -1.7200  0.7953
13775TIP3    H262817   4.779   6.684  16.258  2.0709 -1.4721 -1.8049
13776TIP3   OH262818   1.201   4.062  14.644  0.5581 -0.2857 -0.1964
13776TIP3    H162819   1.289   4.045  14.611  1.6290  3.5713  0.2693
13776TIP3    H262820   1.167   4.132  14.589 -1.2400  0.0268  1.2095
13777TIP3   OH262821   3.990   4.251   3.053 -0.5160  0.0802 -0.0903
13777TIP3    H162822   3.989   4.278   2.961  1.0027  0.8425  0.0845
13777TIP3    H262823   4.062   4.300   3.091 -0.2985 -1.2012  1.2193
13778TIP3   OH262824   3.198   6.146  11.544 -0.7659  0.0108 -0.4095
13778TIP3    H162825   3.268   6.208  11.566 -1.4705  0.7799 -0.3159
13778TIP3    H262826   3.121   6.200  11.531 -1.0592 -0.7103 -1.8191
13779TIP3   OH262827   5.681   2.929  16.930 -0.0466  0.2366  0.4929
13779TIP3    H162828   5.755   2.870  16.941 -1.0360 -1.1500 -0.0185
13779TIP3    H262829   5.686   2.958  16.839  0.0933  0.4643  0.5730
13780TIP3   OH262830   6.516   1.740  15.838  0.3285  0.0715 -0.0051
13780TIP3    H162831   6.515   1.651  15.872 -1.0050  0.2326  0.4743
13780TIP3    H262832   6.541   1.731  15.746 -2.6100 -1.1839 -0.7964
13781TIP3   OH262833   0.481   6.030   6.890  0.3739 -0.0259 -0.5356
13781TIP3    H162834   0.568   5.991   6.897  0.1233 -0.5997 -0.5741
13781TIP3    H262835   0.487   6.113   6.938  0.0774 -1.5286  2.2939
13782TIP3   OH262836   1.585   4.330   0.562  0.5062 -0.0271 -0.7995
13782TIP3    H162837   1.563   4.325   0.655  0.6189  2.0703 -0.6067
13782TIP3    H262838   1.678   4.310   0.558 -0.3437 -5.1781 -1.1700
13783TIP3   OH262839   4.110   5.451   6.609  0.0217  0.8958 -0.0818
13783TIP3    H162840   4.126   5.399   6.688  0.4726  1.1761  0.0148
13783TIP3    H262841   4.087   5.386   6.542  1.2497  0.5040 -0.1415
13784TIP3   OH262842   5.768   5.581  15.992 -0.1922  0.2034  0.1910
13784TIP3    H162843   5.733   5.603  15.905 -0.9468 -2.1012 -0.1625
13784TIP3    H262844   5.731   5.647  16.050 -0.1604  1.4350 -1.1348
13785TIP3   OH262845   4.515   1.925  12.231 -0.6116  0.3988  0.5496
13785TIP3    H162846   4.601   1.969  12.225 -0.5520  0.6842  2.5922
13785TIP3    H262847   4.459   1.990  12.274 -0.9582 -0.9234  2.1632
13786TIP3   OH262848   6.028   6.057  12.070 -0.0387 -0.1807 -0.3437
13786TIP3    H162849   6.043   5.979  12.124 -1.8570 -0.9504 -0.8646
13786TIP3    H262850   5.975   6.025  11.997  0.1765  1.3341 -1.1984
13787TIP3   OH262851   4.631   0.072   1.129  0.5040  0.2370  0.6539
13787TIP3    H162852   4.628   0.007   1.199 -0.8793 -2.3584 -1.6166
13787TIP3    H262853   4.721   0.067   1.096  0.1788 -1.4031 -0.1310
13788TIP3   OH262854   2.768   0.562   3.576 -0.7620  0.5523 -0.2302
13788TIP3    H162855   2.689   0.592   3.531 -1.0555  1.6187  0.9260
13788TIP3    H262856   2.755   0.587   3.668  0.6819  0.2817  0.0840
13789TIP3   OH262857   3.494   3.174  13.708 -0.1338  0.2114 -0.2143
13789TIP3    H162858   3.430   3.110  13.740 -0.2611  0.5916  0.2990
13789TIP3    H262859   3.441   3.241  13.665  0.0416 -0.3673 -1.3883
13790TIP3   OH262860   3.119   4.917  11.032 -0.0132  0.5232  0.1109
13790TIP3    H162861   3.195   4.963  11.068 -0.5133  0.6043  1.1156
13790TIP3    H262862   3.098   4.852  11.099  1.1733 -1.7913 -1.6136
13791TIP3   OH262863   5.424   2.847   2.161 -0.0355  0.6817 -0.1636
13791TIP3    H162864   5.377   2.910   2.107  1.6007  0.5076 -1.8890
13791TIP3    H262865   5.455   2.898   2.236  0.1535  1.6217 -0.8665
13792TIP3   OH262866   1.809   2.168   0.502  0.4116  0.0945  0.3241
13792TIP3    H162867   1.773   2.256   0.507  1.4253  0.5897 -0.6189
13792TIP3    H262868   1.903   2.179   0.515  0.6663 -0.7235 -0.6798
13793TIP3   OH262869   5.459   6.443  13.058 -0.2710  0.7052 -0.0769
13793TIP3    H162870   5.475   6.370  13.118 -2.1094 -1.4029 -1.9789
13793TIP3    H262871   5.543   6.457  13.014  0.0844 -0.3256  0.2629
13794TIP3   OH262872   3.702   1.552   5.070 -0.1430  0.3932  0.0251
13794TIP3    H162873   3.611   1.525   5.068 -0.7351  2.3135 -2.0732
13794TIP3    H262874   3.712   1.596   5.155 -0.5256 -1.6233  1.1878
13795TIP3   OH262875   5.370   6.707  13.180 -0.2359  0.1057  0.1649
13795TIP3    H162876   5.342   6.632  13.128 -0.3943  0.3178 -0.0563
13795TIP3    H262877   5.444   6.675  13.231  0.9527  0.3254 -1.3466
13796TIP3   OH262878   1.041   5.267  10.862  0.8302  0.2210 -0.2532
13796TIP3    H162879   0.969   5.225  10.814  1.6878  1.6578 -2.9752
13796TIP3    H262880   1.004   5.351  10.891  0.2971 -0.6588  1.8387
13797TIP3   OH262881   6.138   0.168  16.630 -0.3220 -0.0738  0.5820
13797TIP3    H162882   6.193   0.099  16.594 -1.2908  0.6710 -2.6534
13797TIP3    H262883   6.195   0.245  16.633 -0.0660 -0.2762  1.3884
13798TIP3   OH262884   4.534   4.937  16.785 -0.3047  0.6157  0.0986
13798TIP3    H162885   4.528   4.965  16.876  0.2397 -1.2493  0.7684
13798TIP3    H262886   4.508   5.013  16.734  0.0860  1.9257  1.7839
13799TIP3   OH262887   4.954   6.150   4.813  0.2377  0.5248  0.0483
13799TIP3    H162888   4.979   6.131   4.903  0.7227  0.7893 -0.0248
13799TIP3    H262889   5.034   6.136   4.762 -0.4833 -1.4323 -0.6249
13800TIP3   OH262890   0.956   0.350   0.244 -0.1215 -0.2531 -0.3584
13800TIP3    H162891   1.003   0.288   0.189 -1.7183 -0.0735 -2.0313
13800TIP3    H262892   0.990   0.335   0.332  3.8638  0.7154 -1.5489
13801TIP3   OH262893   0.817   0.575   0.487  0.1975  0.1947  0.8687
13801TIP3    H162894   0.869   0.655   0.482  1.0956 -0.3682  0.9168
13801TIP3    H262895   0.727   0.603   0.472  0.5563  1.1491  0.4435
13802TIP3   OH262896   4.886   3.687  15.022  0.1792 -0.0493 -0.7830
13802TIP3    H162897   4.843   3.631  14.957  0.3911  0.5716 -1.4821
13802TIP3    H262898   4.968   3.714  14.979  0.4695  0.1236 -0.1295
13803TIP3   OH262899   6.655   6.557  15.857 -0.6424  0.7458  0.1582
13803TIP3    H162900   6.632   6.540  15.948 -0.7434 -1.2939 -0.2075
13803TIP3    H262901   6.574   6.539  15.808 -0.0681 -0.0978 -0.5095
13804TIP3   OH262902   2.576   5.570   4.863  0.1459  0.4310  0.3657
13804TIP3    H162903   2.585   5.635   4.793  0.1583  2.4635  2.1579
13804TIP3    H262904   2.499   5.598   4.912  0.0517 -1.0384  1.1138
13805TIP3   OH262905   3.004   5.408   5.968 -0.4504 -0.5858 -0.1051
13805TIP3    H162906   2.908   5.404   5.966 -0.6539 -0.0224  3.1223
13805TIP3    H262907   3.023   5.493   6.008  1.3889 -0.8984 -0.2335
13806TIP3   OH262908   0.866   0.758   3.552  0.0973 -0.1713  0.0966
13806TIP3    H162909   0.901   0.829   3.604  0.5731  0.5864 -1.2214
13806TIP3    H262910   0.907   0.679   3.588  0.1738  0.2978  1.0522
13807TIP3   OH262911   1.974   0.904  12.256 -0.1262  0.3439 -0.6972
13807TIP3    H162912   1.894   0.945  12.223  0.9071  1.2569 -2.1965
13807TIP3    H262913   1.978   0.929  12.348 -1.1531  0.9632 -0.8065
13808TIP3   OH262914   2.981   5.019   0.181 -0.5183  0.0515  0.0328
13808TIP3    H162915   2.942   4.933   0.164  2.3315 -1.7219  1.5952
13808TIP3    H262916   2.967   5.034   0.274  4.4895 -2.1007  1.4889
13809TIP3   OH262917   1.459   2.768   5.353 -0.2793  0.2536 -0.1219
13809TIP3    H162918   1.391   2.833   5.370 -2.0958 -1.5772 -0.0090
13809TIP3    H262919   1.483   2.782   5.261 -2.1024 -0.1650 -0.7002
13810TIP3   OH262920   1.560   0.881  11.684  0.0086  0.1600  0.1720
13810TIP3    H162921   1.626   0.863  11.751  0.1473  0.6150  0.1651
13810TIP3    H262922   1.589   0.832  11.607  1.6559  2.1841 -0.5988
13811TIP3   OH262923   0.161   4.343   5.916 -0.5734  0.1156 -0.1330
13811TIP3    H162924   0.217   4.387   5.980 -0.6000 -1.1752  0.8174
13811TIP3    H262925   0.074   4.378   5.931 -0.6263 -0.3665  0.7345
13812TIP3   OH262926   4.562   6.046  15.425 -0.2382  0.0271  0.4660
13812TIP3    H162927   4.514   6.119  15.386 -0.3859 -1.3707 -2.1751
13812TIP3    H262928   4.507   6.017  15.498 -3.0372 -0.8446 -1.8054
13813TIP3   OH262929   4.555   2.589  12.548 -0.0239 -0.3038  0.1464
13813TIP3    H162930   4.460   2.588  12.544  0.0034  0.6018 -1.6105
13813TIP3    H262931   4.575   2.595  12.641 -1.6410 -1.6813  0.6379
13814TIP3   OH262932   3.331   1.982   0.337  0.0007 -0.2710  0.0455
13814TIP3    H162933   3.374   2.026   0.264 -1.3511 -0.5577 -0.9442
13814TIP3    H262934   3.309   2.053   0.398  0.6383  0.0323 -0.0696
13815TIP3   OH262935   0.457   0.307   5.426 -0.5033 -0.7254  0.1990
13815TIP3    H162936   0.371   0.266   5.435 -2.0293  2.4849  2.0987
13815TIP3    H262937   0.483   0.328   5.516  1.1879  0.4177 -0.5112
13816TIP3   OH262938   1.653   4.920  17.425  0.1972 -0.4709  0.1645
13816TIP3    H162939   1.635   4.864  17.349 -0.5584  0.1878 -0.1632
13816TIP3    H262940   1.607   5.002  17.405  2.0721  0.6563  0.1579
13817TIP3   OH262941   1.407   0.911  16.936 -0.6006  0.5458 -0.1671
13817TIP3    H162942   1.376   0.986  16.885  2.1215  2.0080  0.1475
13817TIP3    H262943   1.491   0.888  16.896 -0.4198 -1.0380  1.0369
13818TIP3   OH262944   1.966   1.741   0.091  0.4273 -0.8355  0.0027
13818TIP3    H162945   1.919   1.807   0.141  0.9956 -1.2408  1.0982
13818TIP3    H262946   1.932   1.750   0.002  0.3158  0.7400  0.1859
13819TIP3   OH262947   4.401   5.737   4.892  0.1718 -0.1507 -0.3782
13819TIP3    H162948   4.353   5.701   4.966  1.5365 -1.8872 -0.2811
13819TIP3    H262949   4.457   5.804   4.930  1.2278 -1.3701  0.2850
13820TIP3   OH262950   3.658   3.246  17.598 -0.3120  0.2093 -0.3254
13820TIP3    H162951   3.625   3.297  17.671 -0.8247  0.2815 -0.6026
13820TIP3    H262952   3.748   3.277  17.585  0.4208 -1.0376  1.3864
13821TIP3   OH262953   0.542   0.861   0.177 -0.5204  0.5198 -0.5418
13821TIP3    H162954   0.488   0.861   0.256 -0.5744  0.7386 -0.5773
13821TIP3    H262955   0.593   0.780   0.182 -0.3544  0.6476 -0.1667
13822TIP3   OH262956   3.412   4.209   1.136  0.2118  0.0527  0.1971
13822TIP3    H162957   3.398   4.294   1.179  0.1967  0.5126 -0.6892
13822TIP3    H262958   3.417   4.146   1.208  0.1712  0.7988  0.8670
13823TIP3   OH262959   4.083   3.100   1.510  0.0987  0.7349  0.2715
13823TIP3    H162960   3.994   3.071   1.490  0.4766 -0.1330 -0.1951
13823TIP3    H262961   4.076   3.141   1.597 -0.4795 -0.6471  0.8943
13824TIP3   OH262962   2.288   2.685   0.159 -0.4269 -0.1479  0.4756
13824TIP3    H162963   2.317   2.705   0.069 -0.0508  1.1572  0.8598
13824TIP3    H262964   2.330   2.753   0.212  0.2441 -1.5516  1.7959
13825TIP3   OH262965   4.278   1.163  15.480 -0.4581 -0.1953 -0.2325
13825TIP3    H162966   4.344   1.134  15.417  0.0558  3.9404 -1.9218
13825TIP3    H262967   4.199   1.115  15.457  0.7210 -1.6781 -1.3721
13826TIP3   OH262968   6.704   1.612   4.383 -0.1427  0.5921 -0.2048
13826TIP3    H162969   6.709   1.662   4.464 -0.1115  1.1856 -0.5622
13826TIP3    H262970   6.712   1.521   4.410 -0.0093  0.7904  0.4434
13827TIP3   OH262971   5.380   6.358  14.902  0.1102  0.1521  0.1015
13827TIP3    H162972   5.293   6.322  14.920  0.1317 -0.3434 -0.7010
13827TIP3    H262973   5.436   6.321  14.970 -0.2675  0.3070  0.4987
13828TIP3   OH262974   1.830   6.260   3.613 -0.2279 -0.3403 -0.2794
13828TIP3    H162975   1.748   6.248   3.661 -0.8030 -0.9718 -1.3564
13828TIP3    H262976   1.804   6.310   3.535  0.6965  0.7750  0.0989
13829TIP3   OH262977   4.255   3.314   1.015 -0.0538 -0.0893  0.4837
13829TIP3    H162978   4.307   3.245   1.056 -0.6395  0.5841  2.4487
13829TIP3    H262979   4.167   3.302   1.050 -0.2122  1.5163  0.7155
13830TIP3   OH262980   6.267   6.161   0.902 -0.1254 -0.1196 -0.6097
13830TIP3    H162981   6.240   6.247   0.932  0.8698  0.0813 -0.2347
13830TIP3    H262982   6.303   6.176   0.815  1.1044  0.0601 -0.0958
13831TIP3   OH262983   2.018   5.972   5.591 -0.6229  0.6345  0.1775
13831TIP3    H162984   1.985   6.015   5.670 -0.3813 -0.1371  0.7002
13831TIP3    H262985   1.942   5.969   5.533 -0.6017  1.9256  0.0535
13832TIP3   OH262986   6.045   0.295  15.568 -0.6114 -0.1206  0.7287
13832TIP3    H162987   6.072   0.206  15.589  0.3074 -0.0286  0.0010
13832TIP3    H262988   6.089   0.315  15.485 -0.8871  0.9727  0.8242
13833TIP3   OH262989   1.461   2.614  15.885 -0.2662  0.2760 -0.0013
13833TIP3    H162990   1.480   2.537  15.833  1.0507  0.6568 -0.1207
13833TIP3    H262991   1.515   2.604  15.963 -1.3170  0.2971  0.7558
13834TIP3   OH262992   0.652   2.087   3.811 -0.0816  0.5643  0.1982
13834TIP3    H162993   0.640   2.180   3.831  1.4104  0.4529  2.0155
13834TIP3    H262994   0.739   2.067   3.846  1.0237 -0.8087 -2.9830
13835TIP3   OH262995   1.218   3.801  14.199 -0.2949 -0.0122 -0.1227
13835TIP3    H162996   1.187   3.768  14.283  1.6435  0.3313  0.7670
13835TIP3    H262997   1.265   3.881  14.220 -2.0657  1.6214 -1.8788
13836TIP3   OH262998   4.784   2.750   2.878  0.3237  0.6803 -0.1943
13836TIP3    H162999   4.744   2.757   2.964  0.9521  1.7149  0.0213
13836TIP3    H263000   4.878   2.756   2.894  0.6869 -2.0904 -0.6469
13837TIP3   OH263001   0.674   0.609  12.326  0.3282 -0.2289 -0.0479
13837TIP3    H163002   0.641   0.670  12.261 -0.5350 -0.3431  0.2740
13837TIP3    H263003   0.739   0.659  12.376  1.2642 -0.2479 -1.2044
13838TIP3   OH263004   1.901   4.481   0.181  0.5526 -0.2393 -0.3386
13838TIP3    H163005   1.837   4.410   0.167 -0.0314  0.0224  0.8547
13838TIP3    H263006   1.871   4.551   0.123  1.0646 -0.8998 -1.4402
13839TIP3   OH263007   4.466   1.296   3.702 -0.0815 -0.2364 -0.1892
13839TIP3    H163008   4.435   1.340   3.622  0.1627 -0.1760 -0.2525
13839TIP3    H263009   4.387   1.279   3.752 -0.5596 -2.5674 -1.5813
13840TIP3   OH263010   5.862   4.111  15.489 -0.1964 -0.3252 -0.2350
13840TIP3    H163011   5.866   4.109  15.585  0.2335  0.9882 -0.2167
13840TIP3    H263012   5.931   4.050  15.462 -0.5897 -1.0208  0.2762
13841TIP3   OH263013   4.811   5.985   0.468  0.1888 -0.1228 -0.0375
13841TIP3    H163014   4.814   6.079   0.453  1.8850 -0.0324  0.6627
13841TIP3    H263015   4.794   5.947   0.382  0.1995  0.7960 -0.4510
13842TIP3   OH263016   0.286   5.849  14.598  0.1618 -0.3882  0.3493
13842TIP3    H163017   0.195   5.831  14.576 -0.4054 -0.3775  2.4558
13842TIP3    H263018   0.311   5.921  14.539 -1.0181 -0.6944 -0.5687
13843TIP3   OH263019   2.259   6.707  15.272 -0.2901  0.0598  0.4156
13843TIP3    H163020   2.297   6.621  15.256 -0.5512 -0.2183  1.2449
13843TIP3    H263021   2.235   6.706  15.365 -0.8081  0.8255  0.2992
13844TIP3   OH263022   5.318   0.360  11.978  0.1808 -0.3645  0.3871
13844TIP3    H163023   5.231   0.340  11.945  0.5215 -1.4778  0.0988
13844TIP3    H263024   5.332   0.298  12.050 -0.0472  1.1759  1.8022
13845TIP3   OH263025   2.141   6.396   1.785 -0.2719  0.2333  0.2079
13845TIP3    H163026   2.105   6.479   1.756 -1.4166 -1.1902 -2.8413
13845TIP3    H263027   2.236   6.408   1.780 -0.4193  0.7808 -2.1779
13846TIP3   OH263028   6.138   1.141  15.499  0.1620 -0.1606 -0.5100
13846TIP3    H163029   6.161   1.073  15.563 -0.4513  0.8059  0.7804
13846TIP3    H263030   6.214   1.146  15.440  1.5238  0.1340  1.1885
13847TIP3   OH263031   1.607   5.685  10.372 -0.3093  0.3678 -0.0442
13847TIP3    H163032   1.596   5.605  10.320  1.8010  1.3945 -2.2777
13847TIP3    H263033   1.691   5.673  10.416 -0.5128  0.9029  0.4949
13848TIP3   OH263034   2.619   6.172  17.269 -0.3189 -0.1349 -0.7041
13848TIP3    H163035   2.570   6.105  17.221 -0.4086  0.7055 -1.8163
13848TIP3    H263036   2.704   6.131  17.287 -0.9702 -1.1630  0.1690
13849TIP3   OH263037   0.590   3.169  10.957 -0.2921  0.2225  0.2288
13849TIP3    H163038   0.561   3.248  10.912 -2.1425  0.6738  2.0350
13849TIP3    H263039   0.541   3.098  10.914 -0.0099  0.2871 -0.2045
13850TIP3   OH263040   0.650   4.811  14.178 -0.0563 -0.0542 -0.7436
13850TIP3    H163041   0.644   4.885  14.240 -0.7622 -1.8392  1.4660
13850TIP3    H263042   0.591   4.835  14.107 -0.1237  1.6067 -0.1801
13851TIP3   OH263043   3.913   6.010   1.502  0.1439  1.0436  0.1543
13851TIP3    H163044   3.989   6.065   1.484 -0.1847  1.6902  0.7175
13851TIP3    H263045   3.884   5.980   1.416  0.8139  1.0819 -0.0934
13852TIP3   OH263046   1.185   3.036  12.102 -0.3807 -0.5015  0.2715
13852TIP3    H163047   1.187   3.004  12.012  1.1213  1.3579 -0.4020
13852TIP3    H263048   1.138   3.119  12.097  0.2121 -0.1061  1.1183
13853TIP3   OH263049   5.775   5.752   4.168  0.1808  0.1748  0.5718
13853TIP3    H163050   5.744   5.783   4.083  0.6420  1.8716  0.9764
13853TIP3    H263051   5.852   5.806   4.186 -0.6118  0.7110  2.6168
13854TIP3   OH263052   2.433   1.526   2.817  0.2277 -0.1995  0.2345
13854TIP3    H163053   2.479   1.442   2.809 -2.5337 -1.7598 -0.8853
13854TIP3    H263054   2.403   1.528   2.908 -2.2093 -2.0254 -0.4016
13855TIP3   OH263055   5.889   4.942   6.284  0.2504 -0.2330  0.0065
13855TIP3    H163056   5.950   4.971   6.352  0.9502  3.7812 -1.9711
13855TIP3    H263057   5.802   4.963   6.318  0.5744  1.4009 -0.0798
13856TIP3   OH263058   5.251   4.278   5.874  0.0642 -0.0671  0.2474
13856TIP3    H163059   5.202   4.341   5.927 -1.1026 -1.5070  0.9725
13856TIP3    H263060   5.312   4.237   5.935  0.9469  0.4613 -0.2595
13857TIP3   OH263061   4.522   3.063  16.502  0.5892  0.2592 -0.0008
13857TIP3    H163062   4.599   3.111  16.530  1.2250 -0.9755  0.4612
13857TIP3    H263063   4.456   3.083  16.569  1.5268 -1.1968  1.4376
13858TIP3   OH263064   6.460   2.971  16.787 -0.2246  0.3981 -0.5105
13858TIP3    H163065   6.464   2.875  16.783 -0.5927  0.3516  0.1054
13858TIP3    H263066   6.521   3.000  16.719  1.2157 -0.2787  0.4230
13859TIP3   OH263067   4.777   5.002  16.223  0.2491  0.2948  0.5056
13859TIP3    H163068   4.827   4.953  16.288  0.5566  0.7296  0.6000
13859TIP3    H263069   4.792   5.094  16.246 -1.9387  0.4557  1.5774
13860TIP3   OH263070   1.071   0.595  14.396 -0.0839 -0.2884  0.9826
13860TIP3    H163071   1.110   0.674  14.361 -1.3257 -0.1443 -0.1621
13860TIP3    H263072   1.103   0.524  14.340 -2.1206 -0.0496 -0.6223
13861TIP3   OH263073   1.065   4.949   0.568 -0.3543  0.4871 -0.0819
13861TIP3    H163074   1.111   5.018   0.521 -0.9304 -0.6604 -2.4751
13861TIP3    H263075   1.109   4.868   0.540  0.1820 -0.1964  2.4864
13862TIP3   OH263076   3.595   0.392  17.614 -0.5816 -0.1414 -0.4300
13862TIP3    H163077   3.621   0.418  17.702  0.8687 -1.5787 -0.3809
13862TIP3    H263078   3.653   0.439  17.556  0.2887 -1.2058 -0.4592
13863TIP3   OH263079   6.364   4.622   3.670  0.3809  0.0368 -0.0543
13863TIP3    H163080   6.433   4.662   3.723  0.3223  0.6061 -0.3963
13863TIP3    H263081   6.371   4.665   3.585  3.2334 -3.7427 -2.0342
13864TIP3   OH263082   0.696   3.795   5.909 -0.4877  0.9431  0.5221
13864TIP3    H163083   0.628   3.755   5.963 -0.7275  0.7931  0.1127
13864TIP3    H263084   0.653   3.870   5.868 -0.7426  0.2029 -0.6216
13865TIP3   OH263085   3.366   1.908   2.063 -0.0925  0.4175 -0.2374
13865TIP3    H163086   3.272   1.892   2.055 -0.1037  0.7145 -0.7416
13865TIP3    H263087   3.386   1.889   2.155 -0.1844 -2.0350 -0.6623
13866TIP3   OH263088   0.291   4.422   1.669  0.3426  0.9622 -0.0067
13866TIP3    H163089   0.251   4.410   1.583  2.1807 -1.4380 -0.6640
13866TIP3    H263090   0.371   4.470   1.652  0.8386  0.2632  0.2856
13867TIP3   OH263091   6.438   5.241  11.645 -0.5909 -0.1209 -0.2374
13867TIP3    H163092   6.463   5.288  11.565  1.1307 -1.2756 -0.4478
13867TIP3    H263093   6.343   5.235  11.641 -0.6343  0.9086 -1.5739
13868TIP3   OH263094   1.200   0.606  12.528  0.5488  0.4883  0.2837
13868TIP3    H163095   1.259   0.679  12.507  2.1508 -0.6261  0.6899
13868TIP3    H263096   1.250   0.552  12.590 -1.0493 -0.3450  0.9085
13869TIP3   OH263097   4.024   6.429  17.067  0.1401 -0.0090  0.2440
13869TIP3    H163098   4.048   6.430  17.159 -0.3776 -2.4142  0.4711
13869TIP3    H263099   4.008   6.337  17.047 -1.1430  0.5984 -1.9014
13870TIP3   OH263100   6.133   4.263   4.597 -0.3713 -0.0448  0.1009
13870TIP3    H163101   6.149   4.331   4.531 -0.5019 -0.0971  0.0148
13870TIP3    H263102   6.078   4.305   4.663  1.7790  0.7655  1.4616
13871TIP3   OH263103   3.886   4.730   0.355  0.3963 -0.3595  0.4999
13871TIP3    H163104   3.823   4.731   0.427  1.3890  2.6410  1.4410
13871TIP3    H263105   3.834   4.753   0.278 -0.0892 -0.3364  0.8242
13872TIP3   OH263106   4.967   6.318  11.394 -0.5122  0.0201 -0.3949
13872TIP3    H163107   5.014   6.353  11.470 -1.1358  1.6038 -0.6935
13872TIP3    H263108   5.008   6.234  11.376 -1.3094 -1.1371  2.6215
13873TIP3   OH263109   2.595   4.898   1.626 -0.6726  0.1077 -0.1931
13873TIP3    H163110   2.537   4.846   1.683  1.6132  0.3767  2.5764
13873TIP3    H263111   2.653   4.834   1.586  0.1546  0.2326  0.7884
13874TIP3   OH263112   2.781   0.083   6.393  0.8058  0.0045 -0.0791
13874TIP3    H163113   2.872   0.053   6.391  0.7857 -0.1089  0.6616
13874TIP3    H263114   2.761   0.095   6.486  0.8840  2.4744 -0.3032
13875TIP3   OH263115   1.096   2.849  14.422 -0.1240 -0.8000  0.1043
13875TIP3    H163116   1.039   2.922  14.399 -0.1357 -1.1681 -1.1001
13875TIP3    H263117   1.042   2.793  14.478 -1.4529 -1.8111 -2.0596
13876TIP3   OH263118   6.047   6.097   1.695  0.1911 -0.3512  0.2065
13876TIP3    H163119   6.027   6.059   1.609 -0.2850  2.2289 -0.9362
13876TIP3    H263120   5.962   6.113   1.735  0.2780  0.9163 -0.0590
13877TIP3   OH263121   1.325   4.146   2.515 -0.0965 -0.0856  0.0662
13877TIP3    H163122   1.272   4.226   2.509  0.2208  0.0952 -0.3202
13877TIP3    H263123   1.271   4.087   2.567 -1.7171 -0.7202 -2.1788
13878TIP3   OH263124   2.209   4.028   1.509  0.0161 -0.0619 -0.4182
13878TIP3    H163125   2.295   4.012   1.470 -0.3243 -0.3538 -1.0738
13878TIP3    H263126   2.159   4.071   1.439 -0.0562  1.0480  0.2925
13879TIP3   OH263127   1.915   5.561   2.852  0.0609  0.4873  0.3065
13879TIP3    H163128   1.942   5.653   2.848  3.1996 -0.3377 -0.4588
13879TIP3    H263129   1.931   5.535   2.943  1.5510  0.1228 -0.0363
13880TIP3   OH263130   1.778   3.507   2.233  0.4316  0.2516  0.4259
13880TIP3    H163131   1.763   3.597   2.201  0.4906  0.3654  0.7170
13880TIP3    H263132   1.732   3.504   2.317 -2.5565 -1.0539 -1.1170
13881TIP3   OH263133   0.793   6.064   4.517 -0.2363  0.5329 -0.0822
13881TIP3    H163134   0.865   6.126   4.504  0.8488 -0.0998  2.4295
13881TIP3    H263135   0.827   5.980   4.485 -0.1509  0.3828  0.4062
13882TIP3   OH263136   5.771   4.902  10.284 -0.6790 -0.3291  0.3933
13882TIP3    H163137   5.767   4.811  10.255 -0.0197 -0.3752  0.4197
13882TIP3    H263138   5.680   4.932  10.284 -1.0519 -1.3473  1.5264
13883TIP3   OH263139   3.840   1.778   4.050 -0.3193 -0.6579 -0.5044
13883TIP3    H163140   3.891   1.838   4.103 -0.6176 -0.0637 -0.8762
13883TIP3    H263141   3.847   1.693   4.095 -1.5935  0.0736  1.1862
13884TIP3   OH263142   4.597   0.603   6.305 -0.0762  0.1270 -0.6851
13884TIP3    H163143   4.588   0.592   6.211  2.5097 -0.4523 -0.9513
13884TIP3    H263144   4.601   0.698   6.318 -1.9845  0.2786 -0.9113
13885TIP3   OH263145   6.468   2.971   1.114 -0.2070  0.3782  0.4626
13885TIP3    H163146   6.460   3.016   1.030 -1.7944 -0.9550 -0.1471
13885TIP3    H263147   6.382   2.932   1.129  0.6963 -1.3103  1.5994
13886TIP3   OH263148   3.638   3.628  17.623 -0.5023  0.3775  1.3529
13886TIP3    H163149   3.574   3.632  17.552 -1.3117  0.6564  2.0792
13886TIP3    H263150   3.698   3.701  17.606  1.1086 -1.2836 -0.6721
13887TIP3   OH263151   2.281   5.692   2.690 -0.3124  0.3607  0.3628
13887TIP3    H163152   2.301   5.598   2.691 -0.4901  0.2818 -1.1636
13887TIP3    H263153   2.320   5.723   2.608 -1.9433  1.2311 -0.1057
13888TIP3   OH263154   3.868   0.951   5.611 -0.3718  0.5828 -0.1908
13888TIP3    H163155   3.911   0.935   5.694 -0.2534  0.5477 -0.2584
13888TIP3    H263156   3.862   0.864   5.570  1.4268  0.8543 -1.1260
13889TIP3   OH263157   3.266   6.460  13.791  0.5204  0.3071 -0.4034
13889TIP3    H163158   3.211   6.445  13.714  0.6504 -1.0066 -0.2533
13889TIP3    H263159   3.204   6.487  13.859  0.4835  2.1868 -1.1203
13890TIP3   OH263160   3.443   4.232   2.303  0.0592  0.1474 -0.0088
13890TIP3    H163161   3.362   4.277   2.279  0.6759  1.8410  0.9022
13890TIP3    H263162   3.513   4.294   2.278  0.9267 -0.1407  1.5700
13891TIP3   OH263163   2.024   1.580  14.958 -0.2645  0.3865 -0.3167
13891TIP3    H163164   1.969   1.604  15.032  1.6457  1.3918  0.8473
13891TIP3    H263165   2.077   1.658  14.941 -0.9773  0.3698 -3.0968
13892TIP3   OH263166   4.667   4.377   3.642  0.1358  0.2160 -0.2140
13892TIP3    H163167   4.572   4.378   3.644  0.1036 -1.0164  0.9391
13892TIP3    H263168   4.689   4.349   3.553 -0.5877  0.3018 -0.4272
13893TIP3   OH263169   0.100   5.293  12.662 -0.1717 -0.1997 -0.8159
13893TIP3    H163170   0.042   5.250  12.725 -0.2645  1.2241  0.1197
13893TIP3    H263171   0.188   5.263  12.685 -0.3359 -0.7620 -0.9132
13894TIP3   OH263172   6.530   1.327  14.374  0.3249 -0.2961  0.2853
13894TIP3    H163173   6.573   1.243  14.388  1.5702  0.3949  0.7576
13894TIP3    H263174   6.573   1.364  14.298  1.0357  0.6758  1.1337
13895TIP3   OH263175   3.192   2.260   4.269 -0.0103 -0.4549 -0.4066
13895TIP3    H163176   3.288   2.253   4.264  0.0689 -0.0896  0.4493
13895TIP3    H263177   3.162   2.230   4.183  0.9369  0.5998 -1.1356
13896TIP3   OH263178   0.603   1.501  12.912 -0.9931 -0.6941  0.3286
13896TIP3    H163179   0.639   1.457  12.835 -1.7181  1.1132 -1.1021
13896TIP3    H263180   0.638   1.590  12.907 -0.5609 -0.6875  2.4653
13897TIP3   OH263181   1.088   0.740  15.845  0.2127  0.0062  0.2304
13897TIP3    H163182   1.027   0.668  15.825  0.1365  0.2085 -0.2983
13897TIP3    H263183   1.148   0.741  15.770  0.1589  0.5490  0.1916
13898TIP3   OH263184   5.522   2.059  16.580 -0.3282  0.5859  0.0457
13898TIP3    H163185   5.476   2.139  16.555 -1.3768 -0.0910 -0.2409
13898TIP3    H263186   5.522   2.005  16.501  0.8781  0.5265  0.0740
13899TIP3   OH263187   6.572   5.612   1.278 -0.0827 -0.1140 -0.1885
13899TIP3    H163188   6.648   5.582   1.229  0.6229 -0.7854  1.2574
13899TIP3    H263189   6.565   5.551   1.352 -2.3327 -0.3736 -0.5451
13900TIP3   OH263190   6.693   6.535   6.127  0.5432  0.0441  0.0763
13900TIP3    H163191   6.666   6.481   6.201  0.4987 -0.2047 -0.1204
13900TIP3    H263192   6.773   6.493   6.095  0.7398  0.3343  0.1799
13901TIP3   OH263193   4.978   5.594  14.285 -0.6591  0.6658  0.0487
13901TIP3    H163194   4.936   5.601  14.199 -0.5790  0.7962  0.0200
13901TIP3    H263195   5.068   5.567  14.267 -1.2756 -1.7099  0.2159
13902TIP3   OH263196   4.887   3.387  15.527  0.4480 -0.4870 -0.2428
13902TIP3    H163197   4.982   3.376  15.523  0.2546 -2.1709 -2.1958
13902TIP3    H263198   4.862   3.360  15.615  1.7108 -0.7986  0.0325
13903TIP3   OH263199   6.431   2.939  10.871 -0.6571 -0.0717 -0.0410
13903TIP3    H163200   6.377   2.975  10.801 -0.0124 -2.1143 -1.7207
13903TIP3    H263201   6.521   2.961  10.846 -0.4404 -0.5892  0.2599
13904TIP3   OH263202   4.177   6.298  15.506 -0.8316  0.0519  0.3770
13904TIP3    H163203   4.221   6.272  15.587  1.2259  1.6873 -0.1065
13904TIP3    H263204   4.249   6.323  15.447 -2.2812 -0.7382 -1.8488
13905TIP3   OH263205   5.128   3.973  12.136 -0.0780 -0.6796  0.1101
13905TIP3    H163206   5.173   4.031  12.075  1.7401 -0.6692  1.3664
13905TIP3    H263207   5.150   3.884  12.105  1.5917 -0.6868  1.1724
13906TIP3   OH263208   4.142   2.466   2.175  0.1930 -0.5165 -0.5617
13906TIP3    H163209   4.075   2.483   2.109 -1.1009 -0.7722  0.6399
13906TIP3    H263210   4.166   2.552   2.208 -1.6271 -0.5436  0.9682
13907TIP3   OH263211   4.601   1.529  16.672  0.6213 -0.6250  0.1213
13907TIP3    H163212   4.581   1.576  16.753 -1.7386 -0.3218 -0.5503
13907TIP3    H263213   4.517   1.490  16.646  1.5612 -1.6022 -1.6185
13908TIP3   OH263214   6.398   4.556  12.569 -0.7093  0.4623 -0.4242
13908TIP3    H163215   6.309   4.535  12.540 -0.3712  1.5481 -2.4485
13908TIP3    H263216   6.436   4.605  12.496 -0.0607  4.3727  2.2640
13909TIP3   OH263217   4.039   0.695   2.352  0.5058  0.4268  0.8387
13909TIP3    H163218   3.966   0.726   2.298  0.1796 -1.1474  0.3220
13909TIP3    H263219   4.113   0.688   2.291 -0.1901 -2.6068  0.1802
13910TIP3   OH263220   3.788   4.300   5.976  0.7322 -0.5402  0.1582
13910TIP3    H163221   3.770   4.308   6.070 -2.0334  2.3744 -0.4455
13910TIP3    H263222   3.861   4.239   5.971  0.6212 -1.2858  4.1490
13911TIP3   OH263223   2.328   6.359   4.489 -0.0512 -0.7739 -0.1952
13911TIP3    H163224   2.295   6.282   4.442 -2.7737  0.2447 -0.1383
13911TIP3    H263225   2.275   6.364   4.568  0.5668  0.7669  0.1653
13912TIP3   OH263226   3.308   0.827   3.110 -0.3652 -0.3565 -0.0642
13912TIP3    H163227   3.259   0.757   3.067 -0.7772 -1.3004  1.8841
13912TIP3    H263228   3.254   0.853   3.184  0.6972  0.6783  0.3762
13913TIP3   OH263229   4.094   4.310  15.886  0.4666  0.1055  0.0218
13913TIP3    H163230   4.087   4.317  15.790  1.1312  0.1692 -0.0262
13913TIP3    H263231   4.145   4.386  15.912 -1.2091  1.0524  0.6359
13914TIP3   OH263232   2.603   2.348  13.190  0.5913 -0.3932 -0.0260
13914TIP3    H163233   2.628   2.407  13.120 -0.4796  0.9838  0.6992
13914TIP3    H263234   2.632   2.391  13.270  0.1036 -1.0128  0.5006
13915TIP3   OH263235   3.064   4.492   3.335  0.0197  0.2674  0.5868
13915TIP3    H163236   3.123   4.547   3.386  0.6564 -0.0828  0.2405
13915TIP3    H263237   3.115   4.414   3.315 -0.0282  0.6338 -1.0559
13916TIP3   OH263238   4.160   5.913  12.964 -0.1054  0.3036  0.8030
13916TIP3    H163239   4.249   5.948  12.958  0.6439 -1.6338 -0.7249
13916TIP3    H263240   4.163   5.832  12.913 -2.1199 -1.1489  2.7808
13917TIP3   OH263241   6.196   5.586   5.426  0.0419  0.3174 -0.0112
13917TIP3    H163242   6.270   5.620   5.476 -1.3237  1.2137  1.4919
13917TIP3    H263243   6.137   5.661   5.416 -1.3572 -0.7148  0.1553
13918TIP3   OH263244   0.057   3.712   5.691  0.0716  0.0984 -0.0144
13918TIP3    H163245   0.016   3.635   5.731  2.2105 -0.4972  1.2321
13918TIP3    H263246  -0.004   3.784   5.708 -0.7336 -0.8337  1.2022
13919TIP3   OH263247   1.842   3.229  15.388 -0.0436  0.2703  0.0531
13919TIP3    H163248   1.808   3.222  15.477  1.0400 -0.7129  0.4193
13919TIP3    H263249   1.935   3.248  15.400 -0.0634  1.0093 -0.8903
13920TIP3   OH263250   3.687   1.832  12.491  0.0385 -0.1387 -0.6437
13920TIP3    H163251   3.780   1.811  12.503  0.2598  1.3906  0.5755
13920TIP3    H263252   3.641   1.753  12.520  0.9392 -1.8734 -3.5502
13921TIP3   OH263253   1.395   1.796   5.263  0.1152 -0.2883  0.1841
13921TIP3    H163254   1.350   1.864   5.312 -0.7167 -1.4183  1.0389
13921TIP3    H263255   1.325   1.740   5.230  0.7334 -0.2330 -1.3015
13922TIP3   OH263256   5.712   3.963   1.420  0.8839 -0.3740 -0.1336
13922TIP3    H163257   5.787   3.906   1.437  0.7083 -0.4990  0.2127
13922TIP3    H263258   5.741   4.018   1.347  0.9984 -1.0061 -0.5714
13923TIP3   OH263259   1.266   0.645  14.616 -0.1601  0.2060  0.7494
13923TIP3    H163260   1.189   0.646  14.560 -0.6566 -0.0376  1.4088
13923TIP3    H263261   1.313   0.566  14.593  0.9701  1.3393 -1.0545
13924TIP3   OH263262   3.449   3.717   1.036  0.3721 -0.1289 -0.2103
13924TIP3    H163263   3.371   3.661   1.038 -0.1118  0.5183  1.4714
13924TIP3    H263264   3.519   3.661   1.004 -0.5012 -1.1220 -0.4281
13925TIP3   OH263265   2.987   5.543  13.779 -0.1465  0.4065  0.3283
13925TIP3    H163266   2.969   5.601  13.705 -0.0182  1.7037  1.2866
13925TIP3    H263267   3.040   5.473  13.741  1.7484  2.1344 -0.4672
13926TIP3   OH263268   5.327   1.551  15.970  0.1603  0.4903  0.1921
13926TIP3    H163269   5.333   1.457  15.983 -0.2410  0.4827  0.3400
13926TIP3    H263270   5.395   1.571  15.906  2.4959  0.5873  2.5344
13927TIP3   OH263271   3.655   1.965  11.915 -0.1010  0.7108  0.6105
13927TIP3    H163272   3.565   1.937  11.933  0.1793 -0.3078  0.5241
13927TIP3    H263273   3.662   2.051  11.957 -0.6834  0.1653  1.8959
13928TIP3   OH263274   2.374   0.074  13.395  0.0811  0.0963 -0.4430
13928TIP3    H163275   2.311   0.107  13.459  1.8159 -2.1531  2.6592
13928TIP3    H263276   2.333   0.091  13.310 -2.5923  2.7808  1.2044
13929TIP3   OH263277   3.638   5.649   4.016  0.2084 -0.5965 -1.0226
13929TIP3    H163278   3.720   5.609   3.985  0.2324 -0.1640 -1.5288
13929TIP3    H263279   3.665   5.710   4.084  0.3155 -0.4211 -1.2199
13930TIP3   OH263280   2.957   5.441  14.022  0.0731 -0.5686  0.0159
13930TIP3    H163281   3.046   5.457  14.054  0.6022 -0.3153 -1.4937
13930TIP3    H263282   2.959   5.469  13.930 -1.2853 -1.5404 -0.3420
13931TIP3   OH263283   2.545   1.015   2.888  0.2257  0.0739 -0.4672
13931TIP3    H163284   2.572   0.939   2.836  0.3651  0.4507 -0.9532
13931TIP3    H263285   2.485   0.978   2.954  2.2284 -0.8454  0.9224
13932TIP3   OH263286   3.117   6.279   3.639  0.1178 -0.4060 -0.1464
13932TIP3    H163287   3.126   6.281   3.734  0.1616  0.5166 -0.1591
13932TIP3    H263288   3.201   6.249   3.607  0.5086  0.4239  0.0682
13933TIP3   OH263289   6.065   3.253  15.493  0.3730  0.0265  0.1187
13933TIP3    H163290   6.122   3.303  15.435  0.2456 -0.6039 -0.5635
13933TIP3    H263291   6.125   3.194  15.539  0.5600  0.9670  1.1273
13934TIP3   OH263292   2.191   4.156  11.989  0.4395 -0.3052 -0.2995
13934TIP3    H163293   2.125   4.097  12.023  0.0666  0.2639 -0.0259
13934TIP3    H263294   2.195   4.136  11.895  0.6849 -1.1091 -0.1243
13935TIP3   OH263295   3.111   4.167  12.664 -0.0825  0.2019 -0.1542
13935TIP3    H163296   3.057   4.204  12.734 -0.3671  0.9718 -0.7602
13935TIP3    H263297   3.110   4.234  12.596  2.1315  0.4929  0.0409
13936TIP3   OH263298   2.226   5.566  14.718 -0.0714  0.2582 -0.1719
13936TIP3    H163299   2.216   5.651  14.674  1.4366 -0.1280 -1.3262
13936TIP3    H263300   2.136   5.536  14.731 -0.6412  1.9664  0.1657
13937TIP3   OH263301   4.059   3.323   2.127  0.0144 -0.5348 -0.3250
13937TIP3    H163302   4.046   3.312   2.221  0.0991 -2.0988 -0.4839
13937TIP3    H263303   4.003   3.398   2.105 -0.7478 -0.7341  0.7979
13938TIP3   OH263304   2.089   1.026  15.570 -0.2155  0.1273  0.1692
13938TIP3    H163305   2.095   1.028  15.474 -1.3933 -2.1103  0.0009
13938TIP3    H263306   2.138   0.949  15.596 -1.0720 -0.0745  1.2545
13939TIP3   OH263307   2.416   6.160   3.699 -0.0106 -0.0115 -0.2548
13939TIP3    H163308   2.360   6.117   3.763  2.0321 -0.9985  0.9748
13939TIP3    H263309   2.400   6.112   3.617  0.5296 -1.6726  0.5616
13940TIP3   OH263310   4.737   4.279  16.996  0.2711  0.0425  0.3942
13940TIP3    H163311   4.688   4.203  16.965 -2.2942  2.0059 -0.6768
13940TIP3    H263312   4.738   4.339  16.921  0.4552  1.8879  1.8099
13941TIP3   OH263313   0.962   4.466   5.058  0.2330 -0.1216 -0.3046
13941TIP3    H163314   1.041   4.414   5.043  0.8207  0.5837  0.2932
13941TIP3    H263315   0.933   4.442   5.146 -1.1505 -1.5511 -1.0844
13942TIP3   OH263316   2.869   5.097  13.646 -0.0421 -0.3786  0.5094
13942TIP3    H163317   2.800   5.146  13.601  0.0539 -0.7529 -0.0616
13942TIP3    H263318   2.881   5.019  13.592  0.6470 -0.4419  0.7490
13943TIP3   OH263319   6.428   4.536  14.046  0.7476  0.1542  0.3952
13943TIP3    H163320   6.424   4.631  14.031  0.4542  0.0312 -0.4090
13943TIP3    H263321   6.386   4.523  14.131  0.4130  0.7153  0.3248
13944TIP3   OH263322   5.499   5.027   5.825 -0.1423  0.1862  0.1204
13944TIP3    H163323   5.532   5.033   5.915  0.8096  0.8124 -0.2511
13944TIP3    H263324   5.530   4.942   5.794 -0.6824 -0.1388  0.4560
13945TIP3   OH263325   3.888   4.565  16.093 -0.1026  0.1172  0.3192
13945TIP3    H163326   3.876   4.470  16.089  0.5995  0.0247  0.3345
13945TIP3    H263327   3.977   4.579  16.061 -0.2286  0.7783  0.2555
13946TIP3   OH263328   4.641   0.895  12.233 -0.7139 -0.5765 -0.4241
13946TIP3    H163329   4.583   0.825  12.203  0.2962 -1.3128 -0.7171
13946TIP3    H263330   4.632   0.894  12.328  0.1132 -1.8657 -0.3384
13947TIP3   OH263331   0.747   6.558  16.404  0.8970  0.1407  0.1739
13947TIP3    H163332   0.680   6.489  16.406  1.1041 -0.1469  3.8495
13947TIP3    H263333   0.824   6.516  16.365  0.3977 -1.0803  0.4503
13948TIP3   OH263334   4.441   4.597   5.786  0.0923  0.1887 -0.3196
13948TIP3    H163335   4.394   4.634   5.861 -1.3547 -0.2139 -0.9822
13948TIP3    H263336   4.457   4.673   5.729 -0.8468  0.1829 -0.6251
13949TIP3   OH263337   3.904   6.560  13.567 -0.1676 -0.7786 -0.2091
13949TIP3    H163338   3.962   6.484  13.556 -0.2637 -1.0768  1.1882
13949TIP3    H263339   3.961   6.629  13.599  0.4000  0.5244 -3.6244
13950TIP3   OH263340   1.499   0.443  13.980 -0.7965 -0.7534  0.9467
13950TIP3    H163341   1.528   0.378  13.916  1.7276  1.1042  0.0375
13950TIP3    H263342   1.418   0.478  13.943 -0.0579 -0.6109 -0.6519
13951TIP3   OH263343   4.830   5.065  14.988 -0.7207  0.6672  0.5087
13951TIP3    H163344   4.876   5.127  15.045 -1.1413 -0.1557  1.7653
13951TIP3    H263345   4.774   5.015  15.047  0.9817 -2.2251 -0.1777
13952TIP3   OH263346   6.579   3.544  12.459 -0.1634  0.0031 -0.3747
13952TIP3    H163347   6.588   3.467  12.403 -0.4212  0.0236 -0.4461
13952TIP3    H263348   6.528   3.514  12.534  1.2890 -0.3641  0.5148
13953TIP3   OH263349   6.704   5.407   4.602  0.6061 -0.4406  0.2955
13953TIP3    H163350   6.644   5.480   4.620  3.0647  1.4202  1.6686
13953TIP3    H263351   6.680   5.376   4.515 -0.9199  1.6333 -0.0909
13954TIP3   OH263352   5.938   2.709   1.643  0.4210  0.1902 -0.0033
13954TIP3    H163353   6.005   2.776   1.625  0.9366 -0.2571  0.2225
13954TIP3    H263354   5.864   2.735   1.589  1.1020  0.2033 -0.9721
13955TIP3   OH263355   2.903   3.085   1.480  0.1029  0.0278 -0.3132
13955TIP3    H163356   2.903   2.998   1.520 -1.4226 -1.1157 -2.5723
13955TIP3    H263357   2.817   3.092   1.439 -0.4376  3.3075  1.0992
13956TIP3   OH263358   5.295   4.278  15.427 -0.2758 -0.1472  0.3676
13956TIP3    H163359   5.379   4.267  15.472 -0.4189  2.7518  1.5154
13956TIP3    H263360   5.318   4.275  15.334  0.9851 -0.1469  0.6509
13957TIP3   OH263361   4.474   0.281  15.855  0.5359  0.5971 -0.6196
13957TIP3    H163362   4.443   0.302  15.943 -0.5245  0.2790 -0.8930
13957TIP3    H263363   4.466   0.363  15.806  0.0055  0.5003 -0.7081
13958TIP3   OH263364   5.508   4.662   1.603  0.2126 -0.3014  0.0456
13958TIP3    H163365   5.567   4.671   1.528  0.6156  0.5491  0.4508
13958TIP3    H263366   5.534   4.579   1.643  1.0961  0.0170  0.1691
13959TIP3   OH263367   5.063   2.640  16.136  0.4744  1.2275 -0.2012
13959TIP3    H163368   5.116   2.717  16.157  0.7776  1.0345 -0.2579
13959TIP3    H263369   4.989   2.675  16.086  0.4447  1.5210  0.0442
13960TIP3   OH263370   4.392   3.978   3.824  0.3544 -0.1135 -0.1202
13960TIP3    H163371   4.341   4.059   3.821 -0.9119 -0.8173  1.0269
13960TIP3    H263372   4.414   3.959   3.733 -1.2178  0.3784 -0.6311
13961TIP3   OH263373   3.675   5.787  14.713 -0.1833  0.7086 -0.8977
13961TIP3    H163374   3.622   5.861  14.684 -0.7267  1.2711  1.3321
13961TIP3    H263375   3.724   5.820  14.788 -0.2088 -1.0838 -0.0272
13962TIP3   OH263376   3.664   6.309  16.219 -0.3178 -1.2518 -0.4926
13962TIP3    H163377   3.587   6.310  16.276 -1.1822 -0.6148 -1.6364
13962TIP3    H263378   3.737   6.285  16.277 -0.6741  1.8954  1.5199
13963TIP3   OH263379   2.285   5.609  14.266  0.4921 -0.3205  0.0532
13963TIP3    H163380   2.271   5.580  14.176 -1.3956  1.5586 -0.3450
13963TIP3    H263381   2.209   5.577  14.314  0.7181 -0.0239  0.6269
13964TIP3   OH263382   4.167   2.361   0.657  0.1087  0.0985  0.0827
13964TIP3    H163383   4.195   2.310   0.581 -1.3069 -0.0353 -0.3827
13964TIP3    H263384   4.155   2.450   0.624 -1.8455 -0.2285 -0.2464
13965TIP3   OH263385   0.802   4.696   2.029  0.7578  1.1728 -0.0164
13965TIP3    H163386   0.729   4.639   2.006  0.9693  0.1138  1.7457
13965TIP3    H263387   0.762   4.782   2.042  0.0690  0.9323 -0.5088
13966TIP3   OH263388   0.031   2.513  16.582  0.6736  0.0217 -0.0928
13966TIP3    H163389   0.073   2.429  16.564 -2.1039 -1.2922 -0.9292
13966TIP3    H263390   0.004   2.545  16.496 -0.0082  0.8033  0.3963
13967TIP3   OH263391   2.019   6.200   3.817 -0.6307  0.2457 -0.0670
13967TIP3    H163392   2.000   6.201   3.723 -1.3035  0.3224  0.0635
13967TIP3    H263393   2.100   6.250   3.825  1.0239 -2.1452 -0.9243
13968TIP3   OH263394   3.402   1.144   5.131 -0.3499  0.1758 -0.0133
13968TIP3    H163395   3.463   1.197   5.182 -1.8288  0.5994  1.3836
13968TIP3    H263396   3.317   1.188   5.140 -1.2401 -1.3755 -0.3780
13969TIP3   OH263397   2.975   3.597   1.127 -0.2172 -0.5215  0.1560
13969TIP3    H163398   3.024   3.523   1.092  2.2144  0.6506  0.8176
13969TIP3    H263399   2.922   3.628   1.054  0.3897 -1.5789 -0.7652
13970TIP3   OH263400   3.069   3.259   1.353  0.2755 -0.1341 -0.7819
13970TIP3    H163401   3.085   3.334   1.410  0.8147 -0.6581 -0.2304
13970TIP3    H263402   3.018   3.198   1.406 -0.6969  0.0905 -1.4333
13971TIP3   OH263403   5.930   2.752   0.032 -0.3747 -0.4007  0.4515
13971TIP3    H163404   5.967   2.835   0.060  1.5352 -0.3964 -1.8213
13971TIP3    H263405   5.859   2.736   0.094 -0.5732  2.7006  1.1928
13972TIP3   OH263406   6.134   1.548  10.720 -0.3615  0.0635  0.8948
13972TIP3    H163407   6.101   1.537  10.630 -0.0035  1.7109  0.5383
13972TIP3    H263408   6.190   1.625  10.716  1.4529 -1.1148  2.0872
13973TIP3   OH263409   4.765   6.665  12.858  0.4328  0.7482  0.0022
13973TIP3    H163410   4.679   6.627  12.879  0.6983  0.7912  1.2736
13973TIP3    H263411   4.749   6.719  12.781 -0.4954  0.0862 -0.2932
13974TIP3   OH263412   0.931   0.219   4.450 -0.0261 -0.2841  0.4259
13974TIP3    H163413   0.999   0.286   4.443  0.1480 -0.1365  2.7357
13974TIP3    H263414   0.905   0.221   4.542 -0.6592 -2.7872  0.3724
13975TIP3   OH263415   0.269   5.235  17.178  0.1861 -0.5131  0.0373
13975TIP3    H163416   0.280   5.227  17.083 -1.6660 -0.5776 -0.2073
13975TIP3    H263417   0.192   5.181  17.198 -1.5449  2.1330  1.0590
13976TIP3   OH263418   6.540   6.456   4.854  0.1905 -0.1392 -0.2227
13976TIP3    H163419   6.510   6.470   4.764 -0.4639  1.9683  0.2676
13976TIP3    H263420   6.611   6.519   4.866  0.2915 -0.4199  0.7259
13977TIP3   OH263421   5.840   0.688   3.455  0.4529 -0.6543 -0.4525
13977TIP3    H163422   5.795   0.675   3.372 -1.0471  0.0195  0.2058
13977TIP3    H263423   5.769   0.706   3.518  1.6649  1.0246  0.5339
13978TIP3   OH263424   6.036   2.503  17.662  0.0497 -0.3442  0.3244
13978TIP3    H163425   6.014   2.594  17.682  0.5521  0.0700 -0.9207
13978TIP3    H263426   6.128   2.494  17.686 -0.2024 -0.7544  1.1676
13979TIP3   OH263427   5.482   0.784  11.976  0.7546 -0.5871  0.0547
13979TIP3    H163428   5.504   0.693  11.956  0.0775 -0.3669 -1.9516
13979TIP3    H263429   5.543   0.836  11.923  0.4367  0.1282  0.3732
13980TIP3   OH263430   3.522   3.034  14.439 -0.2747  0.1571 -0.1282
13980TIP3    H163431   3.483   2.948  14.423 -1.0321  0.2900  0.9717
13980TIP3    H263432   3.614   3.015  14.459 -0.7341 -0.5345  1.4360
13981TIP3   OH263433   0.977   5.463   1.839 -0.4224  0.0896  0.2990
13981TIP3    H163434   0.917   5.523   1.883  1.0726  1.1141  1.0326
13981TIP3    H263435   1.014   5.410   1.910 -0.1039 -0.1914 -0.0759
13982TIP3   OH263436   2.134   2.800  17.022 -0.0616 -0.1691  0.3245
13982TIP3    H163437   2.160   2.729  16.963 -0.7016  0.4574 -0.7431
13982TIP3    H263438   2.072   2.852  16.971 -0.4677  0.5206  1.4864
13983TIP3   OH263439   1.852   1.290  15.222  0.0445 -0.2023 -0.1518
13983TIP3    H163440   1.861   1.268  15.129  0.6966 -0.7365  0.0289
13983TIP3    H263441   1.935   1.330  15.246  0.3030 -1.0736  0.4597
13984TIP3   OH263442   4.984   0.301  10.453  0.2648  0.3115 -0.1794
13984TIP3    H163443   4.892   0.328  10.459 -0.3960 -1.7003 -0.5416
13984TIP3    H263444   5.017   0.309  10.542 -0.1660  1.3325 -0.0977
13985TIP3   OH263445   3.311   6.683  13.146  0.4377  0.3037 -0.3393
13985TIP3    H163446   3.283   6.624  13.216 -0.3289  1.2078  0.1406
13985TIP3    H263447   3.373   6.632  13.094  0.7144 -0.5109  0.7737
13986TIP3   OH263448   5.109   3.114   6.014 -0.2558  0.3689 -0.1010
13986TIP3    H163449   5.133   3.193   6.063 -1.9683  1.5754 -1.0926
13986TIP3    H263450   5.015   3.122   5.999 -0.1581 -0.9766 -1.7792
13987TIP3   OH263451   3.324   2.278   1.405 -0.0242  0.0240 -0.1873
13987TIP3    H163452   3.417   2.257   1.406 -0.2327 -0.9413 -0.1618
13987TIP3    H263453   3.306   2.313   1.492  0.2511 -0.1130 -0.0754
13988TIP3   OH263454   4.550   1.487  17.402  0.5334  0.3063  0.0240
13988TIP3    H163455   4.638   1.471  17.437  0.0177 -1.3470  0.6870
13988TIP3    H263456   4.523   1.402  17.368 -1.1797  0.5345  0.7262
13989TIP3   OH263457   4.484   5.141  16.097 -0.2848  0.0036 -0.7462
13989TIP3    H163458   4.498   5.233  16.122 -1.2342 -0.0741  0.1300
13989TIP3    H263459   4.521   5.091  16.169 -0.7313 -0.2810 -0.7121
13990TIP3   OH263460   4.564   0.388  16.785  0.6438 -0.6950  0.2358
13990TIP3    H163461   4.583   0.398  16.692  0.8746 -0.3912  0.3085
13990TIP3    H263462   4.515   0.467  16.808  1.8271 -0.0572  0.6701
13991TIP3   OH263463   3.095   5.050  12.460  0.1644  0.0900  0.2120
13991TIP3    H163464   3.132   5.009  12.538  0.0030  0.3943  0.4509
13991TIP3    H263465   3.167   5.050  12.397  0.3150 -0.0989  0.3822
13992TIP3   OH263466   5.107   4.411   0.574  0.0836 -0.5167 -0.0305
13992TIP3    H163467   5.113   4.392   0.668 -0.7058 -0.3164  0.0636
13992TIP3    H263468   5.151   4.495   0.564 -1.5936  0.4816  0.5056
13993TIP3   OH263469   5.694   1.860   0.382 -0.6812  0.0698 -0.2604
13993TIP3    H163470   5.729   1.913   0.454  0.9798 -0.6707 -0.4719
13993TIP3    H263471   5.740   1.776   0.390  0.8473  0.4970 -3.1527
13994TIP3   OH263472   0.907   6.194  13.182  0.4313 -0.1761 -0.1052
13994TIP3    H163473   0.831   6.245  13.153 -0.1444 -0.0453  1.5307
13994TIP3    H263474   0.973   6.260  13.203 -0.3372 -0.0138  2.0777
13995TIP3   OH263475   3.848   5.692   1.129  0.1930  0.5174  0.0042
13995TIP3    H163476   3.823   5.753   1.198  0.6354  0.4895  0.1915
13995TIP3    H263477   3.907   5.743   1.073 -0.4475  0.6528 -0.5621
13996TIP3   OH263478   0.727   1.748   0.424  0.4987 -0.2660  0.2206
13996TIP3    H163479   0.802   1.779   0.475 -0.2114  0.4197  0.8679
13996TIP3    H263480   0.652   1.758   0.483  0.0189 -1.8000 -0.0833
13997TIP3   OH263481   0.713   0.806   1.171  0.2345  0.4837  0.2481
13997TIP3    H163482   0.656   0.729   1.160  0.7599 -0.0767  1.3046
13997TIP3    H263483   0.795   0.771   1.205  1.6309  1.1595 -2.1818
13998TIP3   OH263484   4.033   1.440   2.102  0.3828  0.0100 -0.2704
13998TIP3    H163485   4.051   1.489   2.021  1.2410  1.0231  0.5106
13998TIP3    H263486   3.962   1.488   2.144  0.8657  0.2848  0.2389
13999TIP3   OH263487   1.741   2.443   1.985  0.2843 -0.1938 -0.0967
13999TIP3    H163488   1.665   2.413   1.936  0.1840 -0.5845  0.2944
13999TIP3    H263489   1.807   2.461   1.918 -0.5871  1.4941 -0.5651
14000TIP3   OH263490   3.579   0.068  11.365  0.2426  0.2140 -0.3988
14000TIP3    H163491   3.594   0.083  11.271 -0.2155 -0.4398 -0.5788
14000TIP3    H263492   3.623  -0.015  11.383 -0.5860 -0.1993 -0.2714
14001TIP3   OH263493   0.917   4.361   1.922  0.1359 -0.8899 -0.0982
14001TIP3    H163494   0.822   4.359   1.930  0.1656 -1.1686  0.1838
14001TIP3    H263495   0.945   4.274   1.949  0.3939 -1.1551 -1.1678
14002TIP3   OH263496   5.845   5.811   1.161 -0.5776  0.1756  0.0207
14002TIP3    H163497   5.809   5.795   1.074 -2.9309 -1.9735  1.2500
14002TIP3    H263498   5.861   5.905   1.164  0.0946  0.2502 -2.8673
14003TIP3   OH263499   6.095   0.470  11.684  0.4906  0.4009  1.1084
14003TIP3    H163500   6.035   0.395  11.698  0.8506 -0.3866 -1.1505
14003TIP3    H263501   6.168   0.453  11.743  1.2785 -1.9295 -0.3697
14004TIP3   OH263502   5.890   0.771  10.954 -0.1198 -0.8671  0.2527
14004TIP3    H163503   5.887   0.676  10.941 -0.2861 -0.9338  0.7726
14004TIP3    H263504   5.891   0.807  10.865 -0.9406 -1.3307  0.0395
14005TIP3   OH263505   5.465   0.135  16.108 -0.0009 -0.0674  0.6161
14005TIP3    H163506   5.443   0.206  16.169  0.2926  0.5666  0.0040
14005TIP3    H263507   5.555   0.112  16.129  0.0797  0.1090  0.4720
14006TIP3   OH263508   1.728   2.965  15.213 -0.0706 -0.1049 -0.7820
14006TIP3    H163509   1.787   2.890  15.220  0.2967  0.0948 -1.5888
14006TIP3    H263510   1.756   3.024  15.283  1.2424  0.3518 -1.6590
14007TIP3   OH263511   1.831   6.373  16.335  0.0058 -0.0091  0.2010
14007TIP3    H163512   1.784   6.437  16.282  1.1101  2.0374  1.5303
14007TIP3    H263513   1.870   6.425  16.406  0.6521 -2.2404  1.5879
14008TIP3   OH263514   5.657   2.310   1.599 -0.4898 -0.1569  0.2729
14008TIP3    H163515   5.596   2.384   1.597 -0.1894  0.0801 -1.4598
14008TIP3    H263516   5.625   2.255   1.670 -1.6702  0.8387  0.5508
14009TIP3   OH263517   5.718   5.239  17.085 -0.6327 -0.1270 -0.0947
14009TIP3    H163518   5.787   5.305  17.091 -0.6402  0.9538 -5.8505
14009TIP3    H263519   5.643   5.279  17.128  0.4952  1.7801  0.2283
14010TIP3   OH263520   1.409   4.859  16.368 -0.0500 -0.1778  0.2378
14010TIP3    H163521   1.386   4.874  16.276  0.7120 -0.7351 -0.0441
14010TIP3    H263522   1.410   4.764  16.377  0.0984 -0.1254  0.7750
14011TIP3   OH263523   4.784   1.812  12.489 -0.4729 -0.3913  0.1272
14011TIP3    H163524   4.700   1.834  12.530 -0.2528 -0.1260  0.4454
14011TIP3    H263525   4.762   1.746  12.423 -0.9685 -0.1242  0.0175
14012TIP3   OH263526   3.366   4.706  16.475  0.2973 -0.4165 -0.4621
14012TIP3    H163527   3.281   4.736  16.444 -0.0352  0.2573  1.0237
14012TIP3    H263528   3.363   4.718  16.570  2.3170  0.3883 -0.4425
14013TIP3   OH263529   0.072   2.384  13.186 -0.4992 -0.2555  0.0682
14013TIP3    H163530   0.021   2.319  13.235 -0.9781 -0.0114 -0.1061
14013TIP3    H263531   0.024   2.466  13.196  0.0292  0.0509  0.1703
14014TIP3   OH263532   5.410   4.452  13.502  0.4455 -0.5236  0.6585
14014TIP3    H163533   5.352   4.408  13.564 -2.6193  0.2986 -1.3976
14014TIP3    H263534   5.404   4.545  13.525  1.0281 -0.4333  0.4661
14015TIP3   OH263535   0.496   4.173   1.847 -0.4542 -0.1843 -0.0697
14015TIP3    H163536   0.432   4.238   1.876  0.4169 -0.3128  2.3532
14015TIP3    H263537   0.491   4.176   1.751 -0.1214  3.7892 -0.1390
14016TIP3   OH263538   6.153   2.711  14.127 -0.2700 -0.0992  0.4047
14016TIP3    H163539   6.208   2.637  14.152 -0.6195 -0.6239 -0.3695
14016TIP3    H263540   6.102   2.731  14.206  0.6307  0.0535  0.9651
14017TIP3   OH263541   1.698   0.705  16.554  0.2034  0.1371  0.0914
14017TIP3    H163542   1.665   0.674  16.470  0.7533  1.6794 -0.7306
14017TIP3    H263543   1.776   0.755  16.532 -0.0416  1.1707  1.4527
14018TIP3   OH263544   3.565   3.112  13.446  0.2111  0.1484 -0.3205
14018TIP3    H163545   3.570   3.018  13.433  1.5063  0.2186 -0.3802
14018TIP3    H263546   3.564   3.124  13.541  3.0950  0.1737 -0.2159
14019TIP3   OH263547   5.117   4.596  14.661 -0.4167  0.1855  0.1990
14019TIP3    H163548   5.075   4.520  14.701  0.6768  0.2178  1.4865
14019TIP3    H263549   5.114   4.663  14.729 -0.2234  0.8836 -0.4686
14020TIP3   OH263550   0.630   3.084   3.222  0.2861  0.1994  0.3400
14020TIP3    H163551   0.649   3.154   3.285  0.0519 -0.1321  0.7850
14020TIP3    H263552   0.624   3.129   3.138  2.0126  0.4631  0.3154
14021TIP3   OH263553   1.535   2.536   4.385  0.6112 -0.1338  0.6357
14021TIP3    H163554   1.474   2.602   4.353  0.3522 -0.7828 -0.2347
14021TIP3    H263555   1.621   2.577   4.379  0.7404 -0.6589 -2.1606
14022TIP3   OH263556   2.974   5.744  13.591  0.5184  0.8142 -0.5989
14022TIP3    H163557   3.036   5.817  13.583  0.5816  0.8122 -0.1773
14022TIP3    H263558   2.937   5.733  13.503  2.0087  0.0312 -1.1788
14023TIP3   OH263559   4.767   3.303  11.956 -0.2531  0.4629 -0.2128
14023TIP3    H163560   4.842   3.280  12.011 -0.0060  1.6410 -0.0242
14023TIP3    H263561   4.763   3.234  11.891 -0.7602 -1.1766  1.4661
14024TIP3   OH263562   6.500   1.987   4.073  0.3646  0.0413  0.2981
14024TIP3    H163563   6.590   2.013   4.059  1.2231 -1.1131  2.9850
14024TIP3    H263564   6.472   2.037   4.150 -1.0778 -0.0804 -0.1150
14025TIP3   OH263565   4.849   1.489  12.361 -0.6242  0.0308  0.4877
14025TIP3    H163566   4.869   1.491  12.455 -1.9527  0.1778  0.7852
14025TIP3    H263567   4.935   1.482  12.319  0.2804  2.7996  1.5837
14026TIP3   OH263568   4.584   3.834   4.822 -0.5849  0.1154  0.1518
14026TIP3    H163569   4.636   3.886   4.883  2.0114 -1.9806 -0.1019
14026TIP3    H263570   4.526   3.783   4.878  0.9725 -0.9426  0.8690
14027TIP3   OH263571   4.623   4.542   4.123  0.2601 -0.3724 -0.2396
14027TIP3    H163572   4.628   4.455   4.162 -1.2058 -1.1038 -1.5618
14027TIP3    H263573   4.675   4.535   4.043 -0.6897 -0.3885 -0.8800
14028TIP3   OH263574   5.159   3.702  14.898 -0.0793  0.7721 -0.0063
14028TIP3    H163575   5.219   3.671  14.965  0.0170  0.2190 -0.3367
14028TIP3    H263576   5.216   3.737  14.829 -0.1333  0.3452 -0.2730
14029TIP3   OH263577   6.450   2.692   2.508 -0.0625 -0.0588  0.2774
14029TIP3    H163578   6.508   2.666   2.436  1.7660  0.8835  1.3309
14029TIP3    H263579   6.392   2.617   2.520  0.9629 -1.0797 -0.8068
14030TIP3   OH263580   4.495   0.239   2.935  0.1309 -0.2559  0.5176
14030TIP3    H163581   4.487   0.212   3.026 -0.7147  1.2866  0.9332
14030TIP3    H263582   4.409   0.275   2.913  0.3545 -0.5084 -0.8598
14031TIP3   OH263583   2.345   3.637  12.704  0.3420  0.0935  0.1399
14031TIP3    H163584   2.406   3.704  12.734  1.4595 -0.1984 -1.3764
14031TIP3    H263585   2.270   3.686  12.672  0.2406  0.5050  0.9762
14032TIP3   OH263586   1.452   3.963  16.189  0.3407 -0.4849  0.2563
14032TIP3    H163587   1.497   4.024  16.131 -0.9227 -0.5111 -0.8160
14032TIP3    H263588   1.443   4.010  16.271  0.3572  0.3589 -0.2129
14033TIP3   OH263589   0.544   2.253  13.672  0.3937 -0.4866  0.0420
14033TIP3    H163590   0.460   2.269  13.627 -0.0480 -0.6995  0.7695
14033TIP3    H263591   0.573   2.341  13.699  0.9134 -0.3011 -1.0786
14034TIP3   OH263592   4.032   6.519  15.622 -0.2537  0.0402  0.1592
14034TIP3    H163593   4.084   6.579  15.675  0.6131 -0.3695 -0.2104
14034TIP3    H263594   4.090   6.445  15.606 -0.7250 -0.1307 -0.8154
14035TIP3   OH263595   2.832   2.871   0.989 -0.0585  0.2515  0.2097
14035TIP3    H163596   2.819   2.960   1.024  1.0475  0.4360  0.1976
14035TIP3    H263597   2.769   2.817   1.037  0.7779  0.6677  1.8440
14036TIP3   OH263598   4.346   2.460  15.858  0.2235  0.1880 -0.2965
14036TIP3    H163599   4.269   2.447  15.803  1.6151 -1.0757 -2.0747
14036TIP3    H263600   4.411   2.499  15.800  1.0427  0.9751  1.0862
14037TIP3   OH263601   4.175   2.813  15.594  0.0407 -0.2661  0.3453
14037TIP3    H163602   4.259   2.801  15.549 -2.0558 -0.5346 -3.9001
14037TIP3    H263603   4.154   2.727  15.629  0.8548 -0.5473  0.1675
14038TIP3   OH263604   1.471   3.323   4.526  0.9129  0.6137 -0.0519
14038TIP3    H163605   1.531   3.375   4.472  0.3155 -0.9363 -2.3606
14038TIP3    H263606   1.528   3.267   4.578  1.4891  1.3349  0.1207
14039TIP3   OH263607   3.875   6.689  14.731  0.0722 -0.0963 -0.0957
14039TIP3    H163608   3.938   6.694  14.803  0.0561 -0.1291 -0.0794
14039TIP3    H263609   3.916   6.737  14.660 -0.5138  1.1518  0.3778
14040TIP3   OH263610   6.172   4.654  11.622  0.1158 -0.7174 -0.2186
14040TIP3    H163611   6.156   4.561  11.633 -0.0631 -0.6299  0.3080
14040TIP3    H263612   6.114   4.681  11.551 -1.4386 -0.5857  1.0651
14041TIP3   OH263613   6.380   3.669  12.244 -0.2819  0.3066 -0.2463
14041TIP3    H163614   6.466   3.702  12.271  0.2607 -1.0886 -0.1878
14041TIP3    H263615   6.339   3.639  12.325  0.1104 -1.0888 -0.5424
14042TIP3   OH263616   2.296   1.302   2.549 -0.7028 -0.1493  0.2827
14042TIP3    H163617   2.237   1.236   2.584 -0.5049 -0.5446 -0.1138
14042TIP3    H263618   2.382   1.277   2.582 -0.8201  0.7633  1.3519
14043TIP3   OH263619   1.007   3.167  11.805 -0.1227 -0.0820  0.2053
14043TIP3    H163620   0.997   3.222  11.883  1.6745 -0.0742  0.4745
14043TIP3    H263621   0.936   3.103  11.811 -0.5442  0.4706  1.3763
14044TIP3   OH263622   1.931   5.599   4.211 -0.7424  0.1379  1.1669
14044TIP3    H163623   1.913   5.550   4.131  0.0140 -0.1376  1.1529
14044TIP3    H263624   1.988   5.671   4.183 -0.5498  0.0935  1.4349
14045TIP3   OH263625   5.944   2.432  14.200  0.0781  0.4264  0.1950
14045TIP3    H163626   5.948   2.362  14.135  0.4740  0.1122  0.5484
14045TIP3    H263627   5.863   2.479  14.180 -0.0030  0.0942 -0.2750
14046TIP3   OH263628   6.363   1.022   1.769  0.1450  0.4182 -0.8486
14046TIP3    H163629   6.349   1.054   1.680 -0.6444  0.1402 -0.8338
14046TIP3    H263630   6.450   1.054   1.792  2.0775 -2.6280 -3.0916
14047TIP3   OH263631   5.720   5.560   0.681 -0.1301  0.3936  0.9483
14047TIP3    H163632   5.792   5.521   0.731 -0.5889  0.9688  2.0992
14047TIP3    H263633   5.762   5.629   0.630  0.2943  0.0481  0.8235
14048TIP3   OH263634   1.271   2.656  16.805  0.0220 -0.0225  0.5925
14048TIP3    H163635   1.278   2.732  16.747 -0.6980 -0.5961 -0.2714
14048TIP3    H263636   1.207   2.683  16.871  0.5655  0.4992  0.9147
14049TIP3   OH263637   2.208   1.588  14.388 -0.0644 -0.2165  0.4002
14049TIP3    H163638   2.157   1.608  14.467  1.1292  0.1956  1.0959
14049TIP3    H263639   2.155   1.623  14.316 -0.1477  1.4562  1.2204
14050TIP3   OH263640   3.135   4.193   1.016  0.4785  0.1349  0.0155
14050TIP3    H163641   3.226   4.220   1.028  0.4966 -0.5467  1.7183
14050TIP3    H263642   3.085   4.252   1.072 -0.0355 -0.0106 -0.2884
14051TIP3   OH263643   5.349   6.032   0.794  0.4668 -0.7995  0.8559
14051TIP3    H163644   5.335   5.938   0.804  2.9814 -1.5212 -1.3601
14051TIP3    H263645   5.281   6.060   0.733 -0.1748 -1.2026  1.3734
14052TIP3   OH263646   3.295   3.298  15.443  0.2926  0.1903  0.1669
14052TIP3    H163647   3.254   3.335  15.364 -0.6295  0.0655  0.5738
14052TIP3    H263648   3.238   3.225  15.467  0.2342  0.6012  1.2969
14053TIP3   OH263649   2.550   5.964  15.053 -0.5048 -0.6116 -0.0499
14053TIP3    H163650   2.561   5.893  15.116  0.2738 -2.3175 -2.0260
14053TIP3    H263651   2.456   5.980  15.051 -0.7984 -2.2332 -0.2335
14054TIP3   OH263652   5.276   5.525  16.277  0.1166 -0.0525  0.0057
14054TIP3    H163653   5.370   5.514  16.259  0.5863  0.8517  1.6697
14054TIP3    H263654   5.272   5.541  16.371 -1.7274 -0.0634 -0.0457
14055TIP3   OH263655   0.679   0.097   5.470  0.3914 -0.2274 -0.8864
14055TIP3    H163656   0.607   0.160   5.472  0.1953 -0.4466  1.3384
14055TIP3    H263657   0.742   0.136   5.409  1.2720  3.3635  1.9352
14056TIP3   OH263658   5.572   5.585  11.991 -0.5183  0.3324  0.3134
14056TIP3    H163659   5.490   5.535  11.992 -1.1620  1.3542  0.3305
14056TIP3    H263660   5.558   5.652  11.924  0.9643 -0.5147 -0.9057
14057TIP3   OH263661   0.449   3.477  13.521  0.0167  0.2185  0.0936
14057TIP3    H163662   0.522   3.421  13.547 -1.7499 -2.0270  0.5888
14057TIP3    H263663   0.427   3.448  13.432 -0.8110  0.1993  0.2902
14058TIP3   OH263664   5.858   2.827   0.903 -0.7701 -0.2502 -0.1453
14058TIP3    H163665   5.886   2.858   0.990 -1.7242 -0.2837  0.1792
14058TIP3    H263666   5.782   2.881   0.881 -0.6496 -0.3703 -0.8842
14059TIP3   OH263667   2.847   5.495   0.089  0.0720  0.1823  0.4031
14059TIP3    H163668   2.888   5.412   0.064  0.4328  0.5071 -0.1118
14059TIP3    H263669   2.874   5.509   0.180  0.0735 -0.2295  0.4645
14060TIP3   OH263670   4.673   3.516   6.782  0.4915 -0.4143  0.1618
14060TIP3    H163671   4.589   3.471   6.793 -0.7825  1.7399 -0.2287
14060TIP3    H263672   4.711   3.477   6.703 -1.0181 -0.1861 -0.7080
14061TIP3   OH263673   0.236   1.306  12.433 -0.2588 -0.0207 -0.1349
14061TIP3    H163674   0.216   1.399  12.425 -1.6982 -0.2027  1.0273
14061TIP3    H263675   0.216   1.269  12.347 -3.0712  0.1820  0.3586
14062TIP3   OH263676   4.225   2.170  14.269 -0.3665 -0.5439 -0.1970
14062TIP3    H163677   4.315   2.184  14.239  0.0292  0.7638  1.4421
14062TIP3    H263678   4.233   2.118  14.348 -0.9652  0.3509  0.4737
14063TIP3   OH263679   4.450   2.925  13.231 -0.5659 -0.5866  0.7278
14063TIP3    H163680   4.512   2.853  13.218  0.2063 -0.1049  1.6217
14063TIP3    H263681   4.389   2.893  13.297 -2.0050 -1.4897 -0.9582
14064TIP3   OH263682   3.370   3.021   2.861  0.4516 -1.3034  0.2133
14064TIP3    H163683   3.326   3.021   2.946  1.6571 -3.2588  0.9028
14064TIP3    H263684   3.392   2.929   2.846  0.8269 -0.9064 -1.9425
14065TIP3   OH263685   0.001   1.138   1.313 -0.1552  0.0524  0.3375
14065TIP3    H163686  -0.008   1.229   1.285 -0.2799  0.0682  0.4275
14065TIP3    H263687   0.046   1.143   1.397  1.7130 -0.0840 -0.6051
14066TIP3   OH263688   1.699   3.219   5.212 -0.9056 -0.1623  0.2424
14066TIP3    H163689   1.645   3.293   5.238  0.7245  1.0415  0.3412
14066TIP3    H263690   1.760   3.207   5.284  0.8573  0.4273 -1.0803
14067TIP3   OH263691   6.149   6.392   0.999  0.1526  0.3148 -0.1672
14067TIP3    H163692   6.099   6.442   0.935  2.1012  2.1872 -0.3345
14067TIP3    H263693   6.148   6.445   1.078  2.1962  0.6942 -0.3272
14068TIP3   OH263694   2.129   5.459   3.975 -0.1866  0.7338  0.0755
14068TIP3    H163695   2.090   5.381   3.935  0.4261  0.0585  0.7790
14068TIP3    H263696   2.057   5.523   3.977 -0.5014  0.4623 -1.1860
14069TIP3   OH263697   4.250   1.245   4.542  0.0976  0.6223 -0.3545
14069TIP3    H163698   4.190   1.262   4.615 -0.3139  0.7102 -0.7072
14069TIP3    H263699   4.299   1.327   4.532 -0.1130  0.7403 -0.4213
14070TIP3   OH263700   6.524   2.997  12.062  0.3341  0.3492 -0.4401
14070TIP3    H163701   6.552   3.065  12.001  1.9294 -0.5777 -0.7843
14070TIP3    H263702   6.594   2.931  12.060 -0.5776 -0.7257  0.7984
14071TIP3   OH263703   2.668   3.038   1.310  0.0055  0.1999  0.3381
14071TIP3    H163704   2.609   3.112   1.321  1.5342  1.2813  1.6687
14071TIP3    H263705   2.612   2.961   1.316 -1.2456  1.1806  1.7860
14072TIP3   OH263706   3.439   3.154  16.437 -0.5251  0.1474  0.0407
14072TIP3    H163707   3.497   3.145  16.513 -1.7778  1.0575  1.1432
14072TIP3    H263708   3.365   3.097  16.457  0.1759 -1.4767 -1.6343
14073TIP3   OH263709   2.728   5.238  11.269  0.6289  0.0458  0.2471
14073TIP3    H163710   2.758   5.175  11.203 -1.2117 -0.1551 -0.4705
14073TIP3    H263711   2.738   5.323  11.226  0.6708  0.0186  0.2028
14074TIP3   OH263712   4.994   4.296  12.895 -0.2903 -0.3909  0.3908
14074TIP3    H163713   4.982   4.268  12.804  1.8796  0.9489 -0.3750
14074TIP3    H263714   5.005   4.214  12.943 -0.5032 -1.0886 -0.6964
14075TIP3   OH263715   6.249   4.643   5.495 -0.0038  0.1865 -0.5441
14075TIP3    H163716   6.164   4.668   5.460  1.0605  0.1114 -3.4838
14075TIP3    H263717   6.264   4.704   5.567 -2.8013 -0.2952  0.5828
14076TIP3   OH263718   0.665   5.710  14.571 -0.5468 -0.3759  0.0731
14076TIP3    H163719   0.611   5.757  14.635 -0.5849  1.5468 -1.3130
14076TIP3    H263720   0.731   5.665  14.624  0.2411  2.2081  1.4215
14077TIP3   OH263721   3.244   5.669  13.639 -0.4915  0.5831 -0.5051
14077TIP3    H163722   3.153   5.689  13.620 -0.6348 -0.5599 -1.1624
14077TIP3    H263723   3.272   5.614  13.565  0.4078  0.0491  0.2111
14078TIP3   OH263724   3.215   4.928   0.316  0.9032  0.6660 -0.5396
14078TIP3    H163725   3.244   4.972   0.395 -1.3572  0.1928  0.6406
14078TIP3    H263726   3.175   4.997   0.263 -0.0842  0.5475  0.0259
14079TIP3   OH263727   0.887   1.274  16.322 -0.7053 -0.0915  0.1859
14079TIP3    H163728   0.883   1.350  16.264  0.3419 -0.9652 -1.1012
14079TIP3    H263729   0.820   1.215  16.287 -0.3644 -0.4467  0.1241
14080TIP3   OH263730   2.042   4.107   0.606  0.1319 -0.9853 -0.0197
14080TIP3    H163731   2.105   4.178   0.621 -0.6128 -0.3013 -0.0452
14080TIP3    H263732   2.092   4.027   0.622  0.5928 -0.4244  1.5780
14081TIP3   OH263733   0.917   2.170   0.820 -0.8027 -0.2395  0.1461
14081TIP3    H163734   0.829   2.190   0.789 -0.8301  1.4015  1.1463
14081TIP3    H263735   0.958   2.122   0.749 -3.0462 -2.6110  0.3011
14082TIP3   OH263736   6.467   4.577   3.982 -0.4061 -0.5046 -0.7252
14082TIP3    H163737   6.481   4.535   4.067 -1.5542  0.4663 -0.0261
14082TIP3    H263738   6.526   4.531   3.922  0.0553 -1.5389  0.4895
14083TIP3   OH263739   5.063   6.082   4.129 -0.1145 -0.2953  0.1156
14083TIP3    H163740   5.144   6.031   4.128  1.0036  1.4023  0.2455
14083TIP3    H263741   4.997   6.021   4.160  1.6466 -1.0061  2.7858
14084TIP3   OH263742   4.845   6.065   1.574 -0.3091 -0.2933  0.1682
14084TIP3    H163743   4.765   6.083   1.624 -0.9281  2.2435 -1.5079
14084TIP3    H263744   4.906   6.133   1.602 -0.3188  0.5280 -1.6108
14085TIP3   OH263745   6.449   6.311   5.444 -0.2191  0.0291  0.3421
14085TIP3    H163746   6.500   6.391   5.456 -1.6486  1.2726 -1.2536
14085TIP3    H263747   6.361   6.343   5.423 -0.8514 -1.9730 -0.2370
14086TIP3   OH263748   1.817   5.004  14.287  0.2383 -0.4631  0.7422
14086TIP3    H163749   1.779   4.933  14.338 -0.8480  0.2239  0.9452
14086TIP3    H263750   1.905   4.974  14.264  1.1188 -0.4755  3.7047
14087TIP3   OH263751   4.348   4.712  12.857 -0.7232  0.2452  0.0330
14087TIP3    H163752   4.343   4.764  12.938  0.6663 -1.2182  1.1271
14087TIP3    H263753   4.260   4.718  12.820 -1.2838  1.3410  1.4209
14088TIP3   OH263754   2.084   3.101   3.459  0.0287  0.0867  0.6726
14088TIP3    H163755   2.087   3.052   3.541 -1.7822  0.7108  1.1548
14088TIP3    H263756   2.001   3.076   3.418  0.1650  0.9838 -0.1919
14089TIP3   OH263757   1.547   4.815   5.701 -0.6431  0.3163 -0.1687
14089TIP3    H163758   1.623   4.828   5.645 -0.4604 -1.8079 -0.5111
14089TIP3    H263759   1.559   4.876   5.773  1.9362 -0.6409  0.3239
14090TIP3   OH263760   2.289   6.031   5.567 -0.2368  0.1094 -0.3040
14090TIP3    H163761   2.197   6.017   5.545  0.0018 -0.2018 -1.1361
14090TIP3    H263762   2.331   5.947   5.551 -0.0003 -0.0858  1.1974
14091TIP3   OH263763   2.097   2.569   2.811  0.0038 -0.0835 -0.1122
14091TIP3    H163764   2.039   2.619   2.868  0.6259  2.4243 -1.5117
14091TIP3    H263765   2.039   2.506   2.767 -1.4217  1.3976 -0.4450
14092TIP3   OH263766   2.466   2.211   5.803 -0.4109 -0.7054  0.3755
14092TIP3    H163767   2.537   2.268   5.833 -0.9438  0.7844 -1.0744
14092TIP3    H263768   2.508   2.153   5.740 -0.4628  0.1791 -0.4865
14093TIP3   OH263769   2.426   0.991  12.278 -0.5541  0.0232 -0.4119
14093TIP3    H163770   2.423   1.083  12.251 -2.3642 -0.1747 -1.0616
14093TIP3    H263771   2.516   0.964  12.261  0.2130  1.8506  0.4879
14094TIP3   OH263772   0.443   4.386   3.363 -0.0473 -0.1326  0.2572
14094TIP3    H163773   0.502   4.382   3.438  0.7652  1.6704 -0.2410
14094TIP3    H263774   0.359   4.413   3.399  0.4522  1.1589  0.4914
14095TIP3   OH263775   3.626   3.328  13.894  0.3497 -0.1318 -0.3876
14095TIP3    H163776   3.594   3.316  13.984  2.6103 -0.9221  0.3661
14095TIP3    H263777   3.578   3.264  13.843  0.2602 -0.8570  0.5781
14096TIP3   OH263778   5.149   1.100  14.387 -0.4848 -0.3841 -0.8039
14096TIP3    H163779   5.120   1.191  14.390 -2.4157 -0.8793 -2.1360
14096TIP3    H263780   5.178   1.080  14.476 -0.4741  1.3795 -0.3788
14097TIP3   OH263781   1.877   1.850  14.367 -0.0362  0.1603 -0.3037
14097TIP3    H163782   1.862   1.756  14.370  2.8964 -0.7926 -4.7646
14097TIP3    H263783   1.794   1.887  14.338 -1.3564 -0.8329  1.8952
14098TIP3   OH263784   5.075   3.561  12.406 -0.1136 -0.0415 -0.0274
14098TIP3    H163785   5.048   3.603  12.488 -1.4064  1.1615 -1.0088
14098TIP3    H263786   5.039   3.473  12.411 -0.8856  0.2871  0.3580
14099TIP3   OH263787   4.498   1.958   5.912 -0.2409  0.1259  0.5396
14099TIP3    H163788   4.555   2.023   5.871 -0.3684 -0.8195 -1.2507
14099TIP3    H263789   4.414   2.003   5.921  0.1220  0.7418  0.9100
14100TIP3   OH263790   6.176   0.791   0.717  0.0795 -0.2019  0.1013
14100TIP3    H163791   6.105   0.793   0.781 -1.5427 -0.1276 -1.6105
14100TIP3    H263792   6.180   0.699   0.689  0.3155 -0.1134 -0.1622
14101TIP3   OH263793   2.558   3.810   0.217  0.3343  0.2409 -0.8298
14101TIP3    H163794   2.584   3.812   0.309 -1.0382  2.9827 -0.4099
14101TIP3    H263795   2.487   3.745   0.214  0.5628 -0.0574 -0.0147
14102TIP3   OH263796   5.467   4.698  12.844  0.0003  0.3102  0.0206
14102TIP3    H163797   5.423   4.701  12.929  0.2016  2.3788  0.1061
14102TIP3    H263798   5.463   4.606  12.818 -2.6616  0.0845  0.9047
14103TIP3   OH263799   0.066   1.644  11.236 -0.2842  0.1313  0.1362
14103TIP3    H163800   0.107   1.705  11.175 -0.1056 -1.1526 -1.0805
14103TIP3    H263801   0.139   1.591  11.269 -0.4944  0.2493  0.7969
14104TIP3   OH263802   3.825   1.714  11.282  0.3674 -0.0901  0.5131
14104TIP3    H163803   3.860   1.636  11.324 -0.4724  0.1201  1.6537
14104TIP3    H263804   3.857   1.710  11.192 -1.5428 -3.0074 -0.1758
14105TIP3   OH263805   2.887   6.220  14.857 -0.3827 -0.2699  0.0759
14105TIP3    H163806   2.831   6.284  14.901 -1.1097 -0.4636 -0.5368
14105TIP3    H263807   2.864   6.228  14.764  0.7078 -0.2656 -0.2122
14106TIP3   OH263808   5.099   4.171   6.730  0.1605 -0.9677  0.7899
14106TIP3    H163809   5.187   4.181   6.692 -0.1516  0.4496  0.3864
14106TIP3    H263810   5.051   4.248   6.700 -1.8084 -2.6183 -0.5658
14107TIP3   OH263811   0.348   2.740  17.187 -0.1717 -0.1793 -0.3227
14107TIP3    H163812   0.366   2.667  17.129  0.0848  0.2851 -0.8412
14107TIP3    H263813   0.377   2.817  17.138 -5.3289  0.9868 -2.1639
14108TIP3   OH263814   2.481   5.185  11.316 -0.4008 -0.3295 -0.2239
14108TIP3    H163815   2.576   5.184  11.321 -0.4556 -1.3935  1.9717
14108TIP3    H263816   2.461   5.224  11.231  1.9795 -0.3677 -0.8567
14109TIP3   OH263817   3.314   4.849   0.042  0.2721  0.0154 -0.5640
14109TIP3    H163818   3.288   4.757   0.049 -2.0705  0.6807  0.6116
14109TIP3    H263819   3.338   4.874   0.131  0.7717  0.6058 -0.8518
14110TIP3   OH263820   1.166   1.346   5.056 -1.0004 -0.1371 -0.2910
14110TIP3    H163821   1.161   1.316   5.147  0.0340 -1.1926 -0.5696
14110TIP3    H263822   1.258   1.339   5.032 -1.1253  0.9045 -1.1832
14111TIP3   OH263823   1.371   2.358  13.768  0.1965  0.0034  0.0396
14111TIP3    H163824   1.319   2.401  13.836  0.7353 -1.5548  1.5190
14111TIP3    H263825   1.461   2.362  13.801  0.2908 -1.9665  0.1132
14112TIP3   OH263826   5.218   5.191   5.508  0.0403 -0.5160 -0.3257
14112TIP3    H163827   5.291   5.130   5.515 -0.0502 -0.4345  2.3581
14112TIP3    H263828   5.257   5.277   5.527 -0.8359 -0.5916  2.1030
14113TIP3   OH263829   4.426   6.076  17.500 -0.0258  0.1733 -0.6410
14113TIP3    H163830   4.349   6.051  17.552  0.8108  1.7208  1.4619
14113TIP3    H263831   4.391   6.134  17.432 -1.0078 -1.0563 -1.2288
14114TIP3   OH263832   2.997   0.801  11.006  0.4052  0.0410 -0.0881
14114TIP3    H163833   2.976   0.728  10.948 -1.1128  1.6299 -1.6764
14114TIP3    H263834   3.093   0.808  11.002  0.4142 -0.6264 -1.4985
14115TIP3   OH263835   2.195   4.236   4.233  0.1867  0.2097 -0.0427
14115TIP3    H163836   2.143   4.260   4.156  1.0456 -0.6019 -0.9133
14115TIP3    H263837   2.209   4.318   4.280 -1.4661  0.5163 -0.0254
14116TIP3   OH263838   2.226   4.988   0.139  0.0501  0.1080 -0.3984
14116TIP3    H163839   2.180   4.904   0.139  0.1426  0.0559  0.3346
14116TIP3    H263840   2.292   4.980   0.070  1.5953 -1.2743  1.1599
14117TIP3   OH263841   1.861   5.919  14.429  0.0125  0.1618  0.5109
14117TIP3    H163842   1.911   5.958  14.357  0.0181 -2.1319 -0.8409
14117TIP3    H263843   1.891   5.828  14.432 -2.4462 -0.7122  1.1323
14118TIP3   OH263844   1.609   0.271  12.891 -0.1878  0.0155  0.4412
14118TIP3    H163845   1.658   0.254  12.972 -2.2695 -1.9188  1.4330
14118TIP3    H263846   1.675   0.297  12.828  2.0538 -1.7808  1.8638
14119TIP3   OH263847   0.215   4.498   3.465  0.3224 -0.0200  0.2961
14119TIP3    H163848   0.226   4.593   3.456  0.8611 -0.2548 -1.9913
14119TIP3    H263849   0.144   4.476   3.405  0.0954 -1.0662  0.9227
14120TIP3   OH263850   6.503   3.912  13.075 -0.0349  0.1842  0.2597
14120TIP3    H163851   6.592   3.937  13.052 -0.6415  1.2244 -1.1321
14120TIP3    H263852   6.483   3.967  13.152 -0.0725  1.3156 -0.5259
14121TIP3   OH263853   5.970   6.183   0.928  0.0354  0.3731 -0.5680
14121TIP3    H163854   5.998   6.170   0.838  1.0821  3.7168 -0.8717
14121TIP3    H263855   6.014   6.264   0.955 -0.5278 -0.3111  2.8445
14122TIP3   OH263856   3.426   4.593  13.926 -0.1905 -0.1154  0.1208
14122TIP3    H163857   3.344   4.557  13.893 -0.2878 -0.1890  0.4411
14122TIP3    H263858   3.410   4.611  14.018  0.0387  0.2190  0.0985
14123TIP3   OH263859   4.876   3.073  14.074 -0.6111  0.2297  0.2171
14123TIP3    H163860   4.829   3.027  14.004  0.6495  0.0296 -0.5319
14123TIP3    H263861   4.946   3.119  14.030  0.1386  0.2084  1.3379
14124TIP3   OH263862   4.964   3.440  13.049  0.3093  0.4711  0.8016
14124TIP3    H163863   5.020   3.420  12.974  1.9400  3.3273  1.1035
14124TIP3    H263864   5.010   3.402  13.124  0.7059  0.9104  0.7854
14125TIP3   OH263865   5.799   6.023  12.596  0.1254  0.1911  0.1654
14125TIP3    H163866   5.829   5.978  12.517  1.1662 -0.0636  0.6826
14125TIP3    H263867   5.819   5.962  12.667  0.9957  1.1956  0.8114
14126TIP3   OH263868   0.169   4.617  10.926 -0.3122 -0.8058 -0.1809
14126TIP3    H163869   0.151   4.526  10.905 -1.5486 -0.4778 -0.6154
14126TIP3    H263870   0.254   4.634  10.886 -0.1752 -1.6963 -0.2904
14127TIP3   OH263871   1.063   0.898  13.004  0.1798 -0.1420  0.1739
14127TIP3    H163872   1.042   0.805  13.012  0.1805 -0.0495  1.5480
14127TIP3    H263873   1.042   0.935  13.090 -0.4142  1.2535 -0.5300
14128TIP3   OH263874   0.348   3.031  12.285  0.4484  0.0668  0.1278
14128TIP3    H163875   0.409   3.090  12.330  1.2336 -0.5016 -0.1864
14128TIP3    H263876   0.402   2.959  12.254 -0.3987 -0.4849 -0.0946
14129TIP3   OH263877   6.032   1.734   5.682 -0.0089 -0.6372  0.5128
14129TIP3    H163878   6.107   1.793   5.674 -0.3536 -0.3692 -1.0280
14129TIP3    H263879   6.054   1.659   5.627 -0.6183 -0.8146  0.4997
14130TIP3   OH263880   2.615   4.955   2.251 -0.2204  0.3165 -0.1959
14130TIP3    H163881   2.529   4.983   2.218  0.2870  0.2333 -1.6417
14130TIP3    H263882   2.607   4.860   2.259 -0.5366  0.3958  0.5378
14131TIP3   OH263883   1.554   3.387  11.832  0.3194 -0.0075  0.2956
14131TIP3    H163884   1.472   3.405  11.785 -0.9666  2.0790  3.0327
14131TIP3    H263885   1.609   3.463  11.812  1.6005 -1.2845 -1.3269
14132TIP3   OH263886   4.092   3.508   5.393 -0.5668 -0.3269  0.0429
14132TIP3    H163887   4.016   3.553   5.358 -0.3697 -0.0295 -0.0077
14132TIP3    H263888   4.167   3.553   5.354 -0.3804 -1.4342 -0.9144
14133TIP3   OH263889   2.430   5.372   2.274  0.3963  0.0789 -0.3058
14133TIP3    H163890   2.495   5.323   2.225  1.4870  0.7200  0.4593
14133TIP3    H263891   2.362   5.308   2.295 -0.0016 -0.2673 -2.4178
14134TIP3   OH263892   4.575   5.685  15.648  0.2842 -0.1572 -0.0808
14134TIP3    H163893   4.566   5.706  15.555  2.7454  0.1958 -0.3204
14134TIP3    H263894   4.574   5.589  15.651 -2.6900 -0.2183 -0.0255
14135TIP3   OH263895   4.824   6.704  13.182 -0.7872  0.2432 -0.3661
14135TIP3    H163896   4.748   6.760  13.196 -1.1156 -0.1564 -0.5134
14135TIP3    H263897   4.841   6.711  13.088  0.6953  2.0163 -0.0262
14136TIP3   OH263898   6.015   5.321   0.316 -0.4252  0.0718  0.0454
14136TIP3    H163899   6.064   5.402   0.332  1.0118 -0.4282 -1.5704
14136TIP3    H263900   6.082   5.253   0.306 -1.4185 -0.7084 -1.9300
14137TIP3   OH263901   2.173   0.172   1.742  0.5076 -0.4692  0.3297
14137TIP3    H163902   2.261   0.199   1.769  0.0364  1.3436  0.2168
14137TIP3    H263903   2.160   0.217   1.658 -0.4181 -0.9331  0.2214
14138TIP3   OH263904   5.556   4.400   3.224 -0.1489  0.3843 -0.4834
14138TIP3    H163905   5.544   4.309   3.252 -1.0572  0.2816 -1.1545
14138TIP3    H263906   5.640   4.399   3.177  0.7039  0.2798  0.9895
14139TIP3   OH263907   0.235   0.510  15.676 -0.1743 -0.1113  0.3380
14139TIP3    H163908   0.184   0.578  15.633  0.2969 -0.7624 -1.2967
14139TIP3    H263909   0.217   0.431  15.627 -0.3243 -1.0979  1.9157
14140TIP3   OH263910   3.051   0.891  12.857  0.1355  0.0146  0.1795
14140TIP3    H163911   3.117   0.853  12.916 -0.0995 -0.8511 -0.0993
14140TIP3    H263912   3.042   0.982  12.886  2.4792  0.5848 -0.6553
14141TIP3   OH263913   3.015   5.130   2.542 -0.3992  0.3259 -0.3035
14141TIP3    H163914   2.961   5.208   2.532 -3.2179 -1.5683 -0.8551
14141TIP3    H263915   3.045   5.110   2.454  0.7366  0.9825 -0.0944
14142TIP3   OH263916   5.732   4.030   1.039  0.6950 -0.2697  0.1657
14142TIP3    H163917   5.773   4.057   1.121  1.0032  0.1496 -0.1248
14142TIP3    H263918   5.805   4.011   0.981  0.4821  0.1801 -0.2587
14143TIP3   OH263919   2.134   5.534  12.750  0.2567  0.1850 -0.2810
14143TIP3    H163920   2.210   5.476  12.747 -0.8190 -1.3006  0.0280
14143TIP3    H263921   2.077   5.496  12.816 -0.4608  1.6730  0.0100
14144TIP3   OH263922   6.078   4.416  13.108 -0.3094  0.5130 -0.0554
14144TIP3    H163923   6.053   4.409  13.200 -1.9204  2.0400 -0.3181
14144TIP3    H263924   6.006   4.465  13.068 -0.0193 -0.7907 -2.2939
14145TIP3   OH263925   2.412   4.078  17.235  0.2604  0.2820 -0.2287
14145TIP3    H163926   2.419   4.016  17.163 -1.1628  0.9934 -1.0226
14145TIP3    H263927   2.427   4.164  17.196 -0.1957  0.6510  0.3711
14146TIP3   OH263928   0.809   0.468  13.273  0.0438 -0.3740 -0.0726
14146TIP3    H163929   0.872   0.472  13.201  1.1122  0.1015  0.8639
14146TIP3    H263930   0.765   0.384  13.261 -0.2764 -0.0082 -1.6623
14147TIP3   OH263931   4.134   2.799   4.077  0.1770 -0.3780 -0.0405
14147TIP3    H163932   4.051   2.760   4.104  0.7558 -0.5488  1.6253
14147TIP3    H263933   4.110   2.862   4.009 -1.0235 -2.1056 -1.3224
14148TIP3   OH263934   3.818   6.037  13.017  0.0871 -0.1789  0.1373
14148TIP3    H163935   3.740   6.040  13.072 -0.0050 -0.6872  0.0435
14148TIP3    H263936   3.848   5.946  13.023  0.3590 -0.1189 -0.2547
14149TIP3   OH263937   0.203   2.192  12.649 -0.0359  0.6283 -0.1889
14149TIP3    H163938   0.228   2.274  12.607 -0.7965  0.6567 -0.6147
14149TIP3    H263939   0.182   2.216  12.739 -2.4701  1.3675 -0.8528
14150TIP3   OH263940   0.535   2.808  14.425 -0.4792  0.0799 -0.3192
14150TIP3    H163941   0.598   2.784  14.356  0.0336 -0.7338  0.4117
14150TIP3    H263942   0.585   2.803  14.506 -1.3247  0.0869  0.2154
14151TIP3   OH263943   5.883   6.616  16.253  0.5813 -0.0595  0.0387
14151TIP3    H163944   5.930   6.577  16.327  0.2320 -2.4151 -0.8868
14151TIP3    H263945   5.949   6.623  16.184  0.8005  1.7380  0.3663
14152TIP3   OH263946   3.202   2.118  17.344 -0.0551 -0.0556  0.7583
14152TIP3    H163947   3.168   2.199  17.306  0.0811  0.4824  1.7661
14152TIP3    H263948   3.167   2.049  17.288 -4.6476  0.2478  2.7913
14153TIP3   OH263949   0.882   5.185   0.349  0.6293 -0.0405 -0.4022
14153TIP3    H163950   0.819   5.132   0.398 -0.8465  0.1121 -2.0671
14153TIP3    H263951   0.947   5.211   0.415 -0.1702 -1.5125  1.0365
14154TIP3   OH263952   2.947   3.353  14.344  0.5496  0.2593 -0.5655
14154TIP3    H163953   3.013   3.370  14.411 -1.1507  2.5008  0.6966
14154TIP3    H263954   2.935   3.258  14.346  2.0536  0.0491  0.7890
14155TIP3   OH263955   1.939   2.216   2.078  0.2944 -0.0788  0.0220
14155TIP3    H163956   1.874   2.153   2.110 -1.0031  1.9743  1.7567
14155TIP3    H263957   1.926   2.218   1.983 -0.6244 -1.3468  0.0955
14156TIP3   OH263958   0.628   6.229  14.574  0.9206 -0.5023  0.3669
14156TIP3    H163959   0.602   6.277  14.495 -0.7076 -0.1243  1.0928
14156TIP3    H263960   0.688   6.161  14.542  0.1335 -0.5019 -1.2326
14157TIP3   OH263961   4.441   1.075   6.423  0.0484 -0.1788 -0.2082
14157TIP3    H163962   4.484   1.140   6.479  2.7417 -1.1425 -0.9908
14157TIP3    H263963   4.460   1.105   6.333  1.7760 -2.1608 -0.5908
14158TIP3   OH263964   6.405   5.073  10.990  0.3203 -0.5996  0.1162
14158TIP3    H163965   6.378   5.034  11.073 -1.1994 -2.2035 -1.0476
14158TIP3    H263966   6.395   5.167  11.003  2.1438 -0.6112  2.3819
14159TIP3   OH263967   0.046   1.871  12.788 -0.7443 -0.2732 -0.0395
14159TIP3    H163968   0.131   1.875  12.744 -0.3859 -0.1252  0.6480
14159TIP3    H263969   0.066   1.836  12.875 -1.6041 -1.7264 -0.3954
14160TIP3   OH263970   5.836   0.742   4.968  0.4073  0.4401 -0.5197
14160TIP3    H163971   5.763   0.708   5.020  1.7091 -1.2409  0.3181
14160TIP3    H263972   5.859   0.825   5.010 -0.9631  0.9840 -0.7819
14161TIP3   OH263973   4.790   0.709  15.181 -0.1746  0.5056 -0.0627
14161TIP3    H163974   4.828   0.680  15.098 -2.3160 -0.1042 -0.8779
14161TIP3    H263975   4.856   0.685  15.246  0.9702 -0.2252 -1.4240
14162TIP3   OH263976   3.207   5.267   5.197  0.0056  0.2914  0.2761
14162TIP3    H163977   3.228   5.222   5.278 -1.4029 -0.4676  0.2434
14162TIP3    H263978   3.226   5.204   5.128  0.4774  0.6683  0.0524
14163TIP3   OH263979   4.147   3.156   4.678 -0.3185  0.5554  0.5370
14163TIP3    H163980   4.113   3.076   4.718 -0.4425 -0.1475 -0.9126
14163TIP3    H263981   4.169   3.213   4.752 -0.6058 -0.6602  1.5805
14164TIP3   OH263982   2.072   2.130   2.608  0.0761 -0.2190  0.1808
14164TIP3    H163983   2.108   2.111   2.694  0.3174 -3.5674 -0.4870
14164TIP3    H263984   2.149   2.143   2.552  0.0723 -1.2287 -0.0823
14165TIP3   OH263985   1.596   6.115   3.146 -0.5096  0.2731  0.0552
14165TIP3    H163986   1.566   6.103   3.236 -0.6193 -0.2972 -0.0530
14165TIP3    H263987   1.662   6.048   3.134 -1.5755 -0.6655 -0.7702
14166TIP3   OH263988   2.844   0.909  11.237  0.0786 -0.1038 -0.0272
14166TIP3    H163989   2.759   0.949  11.223  0.6452  0.8561 -0.8692
14166TIP3    H263990   2.857   0.852  11.161 -0.0464 -0.6755  0.3763
14167TIP3   OH263991   0.638   6.213  14.092  0.2658 -0.0942 -0.4744
14167TIP3    H163992   0.549   6.186  14.070 -0.1833  1.3893 -0.6266
14167TIP3    H263993   0.669   6.257  14.012  1.1651 -0.6623 -0.4441
14168TIP3   OH263994   3.378   2.001  12.256 -0.0883 -0.2215 -0.1812
14168TIP3    H163995   3.337   2.028  12.174 -0.6244 -0.1240  0.1200
14168TIP3    H263996   3.455   1.950  12.228 -0.8347 -1.0677 -0.7492
14169TIP3   OH263997   6.455   3.709   5.441 -0.3720 -0.4576  0.2580
14169TIP3    H163998   6.449   3.771   5.369 -0.4593 -0.1297  0.5489
14169TIP3    H263999   6.510   3.639   5.407  1.8330  0.9482  0.7668
14170TIP3   OH264000   0.727   6.133   6.657  0.3385  0.1288  0.2213
14170TIP3    H164001   0.742   6.038   6.654  0.3974  0.1006  1.1409
14170TIP3    H264002   0.726   6.160   6.565 -2.4955 -1.2083 -0.2506
14171TIP3   OH264003   1.887   6.065   1.318  0.3390  0.4034 -0.0046
14171TIP3    H164004   1.850   6.120   1.249  0.8904  1.9574  0.9126
14171TIP3    H264005   1.867   6.111   1.399  2.2387  0.0981  0.6724
14172TIP3   OH264006   2.346   1.901  16.337 -0.4246 -0.2845  0.2529
14172TIP3    H164007   2.432   1.874  16.304  0.1076 -0.4109  1.6522
14172TIP3    H264008   2.344   1.996  16.322  0.4999 -0.0737  1.3192
14173TIP3   OH264009   5.939   2.820   3.968  0.7105  0.4573 -0.1939
14173TIP3    H164010   5.876   2.839   3.899  0.5753 -1.6525 -0.7427
14173TIP3    H264011   5.899   2.748   4.017  1.8400  0.3602  0.6268
14174TIP3   OH264012   6.525   2.660  15.477 -0.1081  0.1169 -0.3635
14174TIP3    H164013   6.620   2.670  15.491 -0.1815 -1.0973  1.4349
14174TIP3    H264014   6.518   2.618  15.391  0.9893  0.2447 -0.5378
14175TIP3   OH264015   5.616   4.594  13.203  0.2868 -0.1468 -0.5207
14175TIP3    H164016   5.633   4.585  13.297  1.4199 -0.8658 -0.7810
14175TIP3    H264017   5.652   4.515  13.164 -1.7636 -0.7203 -1.3953
14176TIP3   OH264018   5.290   4.187   6.197 -0.2526 -0.1806 -0.4317
14176TIP3    H164019   5.337   4.149   6.272  1.5278  0.1200 -1.3448
14176TIP3    H264020   5.308   4.281   6.203 -0.9151 -0.0325 -0.7020
14177TIP3   OH264021   2.357   4.836   5.355  0.5667 -0.2013  0.1642
14177TIP3    H164022   2.300   4.760   5.364  0.1025 -0.3779 -2.9466
14177TIP3    H264023   2.445   4.799   5.349  0.3689 -0.5305 -1.0551
14178TIP3   OH264024   2.402   5.331  11.094 -0.4835 -0.0567 -0.2708
14178TIP3    H164025   2.314   5.294  11.095 -0.7969  0.6594 -0.7913
14178TIP3    H264026   2.416   5.358  11.004 -0.3279  1.2581  0.1347
14179TIP3   OH264027   6.231   2.712  16.493 -0.5733 -0.3106  0.2640
14179TIP3    H164028   6.173   2.785  16.471 -0.4970  0.3092  2.0251
14179TIP3    H264029   6.318   2.752  16.499 -0.4219 -0.6785  0.5503
14180TIP3   OH264030   6.640   4.091  11.042  0.2205  0.3716 -0.3884
14180TIP3    H164031   6.640   4.063  10.950  0.4763  1.0004 -0.5823
14180TIP3    H264032   6.730   4.079  11.071  0.4641  1.5292 -0.6418
14181TIP3   OH264033   6.166   6.048  13.318  0.3132  0.0288 -0.2476
14181TIP3    H164034   6.194   5.977  13.376  1.0483  0.6435  0.1749
14181TIP3    H264035   6.245   6.099  13.303  0.2230 -0.3166 -2.1261
14182TIP3   OH264036   5.724   2.014  14.921 -0.6742  0.7311 -0.1905
14182TIP3    H164037   5.708   2.102  14.888  2.0916  1.0339 -0.9383
14182TIP3    H264038   5.747   1.963  14.843 -1.2566 -0.4167  0.3660
14183TIP3   OH264039   0.904   3.089  13.798 -0.3169  0.1858 -0.3730
14183TIP3    H164040   0.974   3.154  13.789  0.6712 -0.7096  0.5856
14183TIP3    H264041   0.908   3.038  13.717  1.2463 -0.8776  0.3260
14184TIP3   OH264042   1.498   2.069  15.322 -0.0753  0.2209  0.6757
14184TIP3    H164043   1.565   2.058  15.255 -1.4272  0.1863 -0.7517
14184TIP3    H264044   1.506   1.992  15.378  1.5981  0.6462  1.0498
14185TIP3   OH264045   1.685   5.341   4.613  0.2028 -0.4895  0.1333
14185TIP3    H164046   1.752   5.290   4.658  0.6109 -0.2026 -0.1383
14185TIP3    H264047   1.728   5.424   4.593 -0.2331 -0.3088 -0.0517
14186TIP3   OH264048   5.294   6.663   4.591 -0.2031 -0.2349  0.1142
14186TIP3    H164049   5.274   6.691   4.681 -0.2946 -1.9506  0.6584
14186TIP3    H264050   5.342   6.581   4.601  2.3424  0.9599 -1.3473
14187TIP3   OH264051   6.330   2.617   3.717 -0.9064 -0.4729 -0.3102
14187TIP3    H164052   6.282   2.681   3.771 -2.1732 -1.1382 -0.5999
14187TIP3    H264053   6.303   2.532   3.752  0.3651 -0.8781 -0.2636
14188TIP3   OH264054   3.403   0.350  12.650 -0.7136 -0.3908 -0.5182
14188TIP3    H164055   3.340   0.304  12.706 -0.2575 -0.6302 -0.1932
14188TIP3    H264056   3.363   0.347  12.563 -0.6881 -1.4446 -0.5118
14189TIP3   OH264057   6.331   4.517   1.596 -0.8007 -0.1783  0.5629
14189TIP3    H164058   6.259   4.537   1.536  0.4247 -0.3177 -1.0146
14189TIP3    H264059   6.341   4.422   1.592  1.9423  0.0880 -2.3399
14190TIP3   OH264060   0.467   3.245  12.433  0.0857 -0.2432  0.4911
14190TIP3    H164061   0.454   3.214  12.523  0.0487  3.0428  1.7617
14190TIP3    H264062   0.401   3.314  12.423  1.6370  1.0594 -1.2026
14191TIP3   OH264063   0.854   4.751  13.368 -0.2933  0.5114  0.9216
14191TIP3    H164064   0.876   4.772  13.278 -0.5890 -1.3756  0.3683
14191TIP3    H264065   0.922   4.795  13.420  2.4253 -1.6653 -0.4707
14192TIP3   OH264066   2.654   3.131  15.632 -0.1259 -0.2810  0.1304
14192TIP3    H164067   2.707   3.202  15.594 -1.6668 -0.1660 -2.0410
14192TIP3    H264068   2.650   3.152  15.725  1.1401  1.3596 -0.1219
14193TIP3   OH264069   0.433   0.710   6.906  0.7948  0.3115  0.1614
14193TIP3    H164070   0.458   0.629   6.951  0.4372 -0.1708 -0.5017
14193TIP3    H264071   0.465   0.698   6.817 -0.1031  0.4975 -0.1903
14194TIP3   OH264072   3.788   5.143  14.212 -0.4717 -0.4943 -0.5000
14194TIP3    H164073   3.846   5.206  14.169 -0.3204 -0.5929 -0.4382
14194TIP3    H264074   3.714   5.196  14.243 -0.0865 -0.2617  0.0321
14195TIP3   OH264075   2.979   6.216   1.783 -0.2436 -0.0152 -0.3812
14195TIP3    H164076   2.896   6.173   1.765  0.2696 -0.5375 -1.6314
14195TIP3    H264077   2.982   6.290   1.721  0.2705 -0.0763 -0.4347
14196TIP3   OH264078   6.046   5.178   1.460 -0.4161 -0.5139 -0.3993
14196TIP3    H164079   6.109   5.107   1.448 -0.8372 -1.0958  0.6137
14196TIP3    H264080   6.098   5.250   1.497 -0.0723 -0.4507 -0.9944
14197TIP3   OH264081   2.114   2.142  17.506  0.4033  0.3494 -0.3656
14197TIP3    H164082   2.160   2.064  17.473 -0.7463  0.2421 -1.8340
14197TIP3    H264083   2.183   2.198  17.540  1.3885 -0.7580 -0.4715
14198TIP3   OH264084   0.572   3.873  16.541  0.3902 -0.2062  0.4889
14198TIP3    H164085   0.518   3.940  16.582  0.4760  0.2553 -0.1262
14198TIP3    H264086   0.515   3.796  16.535 -1.1562  1.0133 -2.5021
14199TIP3   OH264087   3.200   5.043  15.470  0.3045 -0.0121  0.3534
14199TIP3    H164088   3.234   5.106  15.534  0.0885 -1.8533  2.4095
14199TIP3    H264089   3.272   4.983  15.454 -0.2846 -0.7800  0.5089
14200TIP3   OH264090   6.415   1.651  11.027 -0.6610 -0.7982 -0.2148
14200TIP3    H164091   6.355   1.675  10.956  0.1326 -0.3757 -0.7531
14200TIP3    H264092   6.463   1.576  10.993  0.2180 -0.1613 -0.4241
14201TIP3   OH264093   1.799   3.004  12.676  0.4825  0.1861 -0.7362
14201TIP3    H164094   1.849   3.071  12.723 -1.0456  0.9644 -0.1612
14201TIP3    H264095   1.862   2.934  12.661  1.2644  0.2689  1.7182
14202TIP3   OH264096   5.156   5.524  11.134 -0.7452  0.1369 -0.2976
14202TIP3    H164097   5.078   5.530  11.190 -0.8548  1.2792 -0.5550
14202TIP3    H264098   5.226   5.562  11.187 -0.9066  1.4826 -1.0111
14203TIP3   OH264099   0.607   1.577   2.656 -0.1995  1.2085  0.2465
14203TIP3    H164100   0.514   1.599   2.651 -0.4262  0.3226  0.3139
14203TIP3    H264101   0.610   1.505   2.720  0.1109 -0.9169 -2.0244
14204TIP3   OH264102   3.930   5.731  13.925 -0.1540 -0.1520 -0.0335
14204TIP3    H164103   3.983   5.785  13.982  0.4949 -1.6931  0.8991
14204TIP3    H264104   3.841   5.766  13.933  0.4564  1.6233 -0.5814
14205TIP3   OH264105   5.143   3.714  16.739  0.3670  0.3929  0.0018
14205TIP3    H164106   5.071   3.700  16.678  0.3558  0.9988 -0.1271
14205TIP3    H264107   5.219   3.729  16.684 -0.2996  4.8529 -0.0571
14206TIP3   OH264108   4.355   6.681   5.208 -0.1198  0.0395  0.1129
14206TIP3    H164109   4.357   6.705   5.301 -0.6493 -0.8009  0.3567
14206TIP3    H264110   4.382   6.589   5.207 -1.2662 -0.3100 -0.4257
14207TIP3   OH264111   0.325   3.598   0.165  0.0411  0.1676 -0.2538
14207TIP3    H164112   0.351   3.525   0.108 -0.4247  0.0085 -0.2678
14207TIP3    H264113   0.353   3.676   0.118 -0.0216  0.0217 -0.5372
14208TIP3   OH264114   2.902   6.641  14.185 -0.5288 -0.3714 -0.3429
14208TIP3    H164115   2.951   6.575  14.235 -1.8961 -1.5748 -0.4983
14208TIP3    H264116   2.822   6.595  14.159 -1.7522  1.5331 -0.0506
14209TIP3   OH264117   0.469   1.655  14.234  0.1984  0.1134  0.8623
14209TIP3    H164118   0.526   1.628  14.307  1.4343  1.0009  0.2638
14209TIP3    H264119   0.445   1.573  14.191  0.9932 -0.2868  1.1610
14210TIP3   OH264120   3.144   4.302   5.846 -0.0240  0.0979  0.3524
14210TIP3    H164121   3.077   4.286   5.779  0.1088 -0.6731  0.3948
14210TIP3    H264122   3.169   4.215   5.876  1.5819  0.3368 -0.2153
14211TIP3   OH264123   5.961   3.651   0.600  0.0061  0.1931 -0.0964
14211TIP3    H164124   5.932   3.706   0.527 -3.7752  0.0221  1.0558
14211TIP3    H264125   5.959   3.709   0.676 -0.8073 -0.7224  0.6042
14212TIP3   OH264126   5.144   1.204   3.941 -0.4614  0.2933  0.5925
14212TIP3    H164127   5.083   1.158   3.999 -1.1164 -0.0926 -0.3754
14212TIP3    H264128   5.113   1.294   3.940 -0.6421  0.2310  0.5883
14213TIP3   OH264129   6.574   0.597   0.998 -0.3653  0.4977  0.8142
14213TIP3    H164130   6.531   0.613   0.914  0.4447  0.0528  0.3071
14213TIP3    H264131   6.550   0.673   1.052 -0.9473  0.7478  0.2116
14214TIP3   OH264132   0.399   2.477  16.003  0.4658  0.3786 -0.2338
14214TIP3    H164133   0.403   2.412  16.074  0.3433  0.7855  0.1465
14214TIP3    H264134   0.320   2.528  16.021  1.0638  1.2380 -0.0006
14215TIP3   OH264135   4.317   1.284  11.583 -0.6028  0.2686 -0.6274
14215TIP3    H164136   4.363   1.359  11.546 -1.2751  0.7144 -0.5814
14215TIP3    H264137   4.244   1.269  11.523  0.3674 -1.3121 -1.4853
14216TIP3   OH264138   5.062   5.171  10.905 -0.3548 -0.5028 -0.4432
14216TIP3    H164139   5.135   5.231  10.926 -0.6269 -0.2662 -0.1672
14216TIP3    H264140   4.989   5.203  10.958 -1.3388  0.6900 -2.4207
14217TIP3   OH264141   2.116   3.654   0.925 -0.4112  0.5031  0.3323
14217TIP3    H164142   2.186   3.687   0.982 -0.6568 -0.0308  0.9493
14217TIP3    H264143   2.130   3.700   0.842 -1.9914  3.8938  1.7192
14218TIP3   OH264144   5.605   2.933   1.838 -0.0759 -0.2104  0.1815
14218TIP3    H164145   5.541   2.968   1.900  2.7965  2.0424  2.1905
14218TIP3    H264146   5.621   2.843   1.868  0.8752  0.6574  2.5875
14219TIP3   OH264147   5.683   3.106   3.538 -0.5320 -0.4700 -0.0031
14219TIP3    H164148   5.601   3.142   3.503 -0.7114  0.7063  1.5111
14219TIP3    H264149   5.703   3.032   3.480 -2.2485 -0.3227 -0.8687
14220TIP3   OH264150   3.725   4.857   5.363  0.3252 -0.2645 -0.8202
14220TIP3    H164151   3.789   4.842   5.432  0.9067 -1.2152 -1.5460
14220TIP3    H264152   3.643   4.821   5.398  0.5297 -0.4011 -0.4795
14221TIP3   OH264153   1.112   1.348   6.686  0.2029 -0.3551 -0.0770
14221TIP3    H164154   1.060   1.363   6.607 -0.0553 -0.4767  0.0643
14221TIP3    H264155   1.076   1.409   6.751  0.8236  0.1810 -0.2257
14222TIP3   OH264156   6.126   4.897  14.481 -0.5273 -0.2869 -0.1187
14222TIP3    H164157   6.170   4.900  14.397 -0.5126 -0.3368 -0.1127
14222TIP3    H264158   6.038   4.865  14.461  0.1625 -2.5519  0.1574
14223TIP3   OH264159   2.599   3.707  15.764 -0.2546  0.1282 -0.4100
14223TIP3    H164160   2.644   3.703  15.848 -2.1483  1.8925  0.7765
14223TIP3    H264161   2.517   3.660  15.778 -0.3740 -0.0026 -1.4442
14224TIP3   OH264162   5.946   3.242   6.041 -0.5492  0.1976 -0.0963
14224TIP3    H164163   5.913   3.280   6.123 -0.9771  0.3915 -0.3557
14224TIP3    H264164   5.952   3.316   5.981  1.6145  0.4374  0.3040
14225TIP3   OH264165   3.248   4.311  13.113 -0.3051  0.3399 -0.4464
14225TIP3    H164166   3.197   4.391  13.117 -0.4108  0.3366 -1.6363
14225TIP3    H264167   3.185   4.243  13.087 -0.3458 -0.2625  1.1053
14226TIP3   OH264168   4.339   5.326   1.853  0.7398  0.0501  0.1791
14226TIP3    H164169   4.302   5.243   1.822 -1.1913  0.3512  1.5344
14226TIP3    H264170   4.384   5.362   1.776  0.7140 -1.7380 -0.7224
14227TIP3   OH264171   2.243   1.475  17.039 -0.1567  0.1692 -0.0815
14227TIP3    H164172   2.317   1.438  16.991  0.8269  1.1272  0.6439
14227TIP3    H264173   2.214   1.403  17.096  0.7883  0.0389  0.2596
14228TIP3   OH264174   1.897   2.268  16.283  0.4909 -0.2830 -0.1738
14228TIP3    H164175   1.914   2.245  16.192 -1.2061 -0.4876 -0.4747
14228TIP3    H264176   1.865   2.188  16.323  1.1723 -0.1791  0.6033
14229TIP3   OH264177   1.904   0.661   1.364 -0.3983 -0.2004  0.0418
14229TIP3    H164178   1.937   0.677   1.452  0.0016 -1.0121  0.0412
14229TIP3    H264179   1.839   0.592   1.374 -2.3460  1.5513  0.0810
14230TIP3   OH264180   1.728   0.231   3.060  0.2653 -0.0987 -0.3290
14230TIP3    H164181   1.800   0.294   3.062  0.2889 -0.1261 -0.3166
14230TIP3    H264182   1.673   0.260   2.986  0.6695 -0.4966 -0.7883
14231TIP3   OH264183   3.280   3.965  12.639 -0.1455  0.0019  0.5514
14231TIP3    H164184   3.275   3.938  12.730 -1.1218 -0.4359  0.3720
14231TIP3    H264185   3.205   4.024  12.626  0.1859  0.3449  0.1207
14232TIP3   OH264186   3.288   2.784  15.481 -0.1617 -0.4076 -0.4744
14232TIP3    H164187   3.282   2.731  15.561 -1.0974 -1.0551 -0.9534
14232TIP3    H264188   3.199   2.816  15.466  0.5930  2.5318  0.5601
14233TIP3   OH264189   5.953   3.913  12.784  0.1199  0.3065  0.4180
14233TIP3    H164190   6.028   3.911  12.724  1.6624  0.6991  2.2269
14233TIP3    H264191   5.957   3.828  12.829 -1.3356 -0.2029 -0.3413
14234TIP3   OH264192   0.846   1.377   4.604  0.9718 -0.2559 -0.5658
14234TIP3    H164193   0.835   1.342   4.516  1.2517  1.4993 -1.3435
14234TIP3    H264194   0.852   1.300   4.660 -1.1979 -1.4060 -1.7974
14235TIP3   OH264195   1.873   6.290  10.806  0.1431 -0.2324 -1.0457
14235TIP3    H164196   1.915   6.209  10.834  0.5080  0.6214  1.0735
14235TIP3    H264197   1.780   6.277  10.827  0.3887  0.3366  0.6088
14236TIP3   OH264198   2.074   5.877  13.890 -0.4742  0.2739  0.4460
14236TIP3    H164199   2.080   5.782  13.891  1.7374  0.2561 -2.0760
14236TIP3    H264200   1.994   5.895  13.842 -0.2893 -0.3582 -0.1176
14237TIP3   OH264201   4.950   0.485   2.185 -0.0753  0.7600  0.2307
14237TIP3    H164202   4.919   0.406   2.228 -0.7425  1.1573  0.4902
14237TIP3    H264203   4.933   0.470   2.092  0.2234  0.4126  0.2305
14238TIP3   OH264204   4.599   0.615  15.999 -0.0131 -0.4438  0.6234
14238TIP3    H164205   4.617   0.702  15.962  0.0424 -0.8819 -0.4041
14238TIP3    H264206   4.546   0.571  15.933  0.2641 -1.3274  0.9762
14239TIP3   OH264207   6.511   6.217  14.550  0.7894  0.0383 -0.8601
14239TIP3    H164208   6.466   6.133  14.553  1.6367 -0.3977  0.5713
14239TIP3    H264209   6.441   6.283  14.551  0.1530 -0.6313 -0.6451
14240TIP3   OH264210   0.553   2.918  16.449  0.0221 -0.4884 -0.1634
14240TIP3    H164211   0.507   2.943  16.369 -0.2328 -0.6473 -0.0670
14240TIP3    H264212   0.599   2.837  16.425 -1.6487 -1.6483  0.4122
14241TIP3   OH264213   0.997   3.728   2.657  0.0611 -0.2707  0.0057
14241TIP3    H164214   1.004   3.799   2.721 -1.4638  0.5594 -0.6937
14241TIP3    H264215   1.087   3.705   2.636  0.6125  1.8562 -0.1527
14242TIP3   OH264216   4.247   0.294   3.551  0.5261  0.8570 -0.2337
14242TIP3    H164217   4.160   0.333   3.543 -0.9949 -2.4447 -1.3306
14242TIP3    H264218   4.293   0.322   3.471 -0.2581  0.9737 -0.6545
14243TIP3   OH264219   2.892   0.676   2.034 -0.5171  0.0877 -0.1101
14243TIP3    H164220   2.868   0.731   2.109  2.8408  0.3463  0.9266
14243TIP3    H264221   2.885   0.735   1.959  1.2232  1.5214  0.7590
14244TIP3   OH264222   2.100   1.715   1.725 -0.4309  0.6381 -0.3601
14244TIP3    H164223   2.142   1.632   1.701 -0.3432  1.2256 -2.4080
14244TIP3    H264224   2.149   1.744   1.802  0.7188 -0.3363 -0.6825
14245TIP3   OH264225   2.274   1.656   2.190 -0.2148  0.1183 -0.1296
14245TIP3    H164226   2.223   1.577   2.207 -0.1996  0.1080 -0.1319
14245TIP3    H264227   2.215   1.728   2.213 -0.1344  0.1027  0.1264
14246TIP3   OH264228   2.874   2.842  13.491 -0.0520 -0.3129  0.1190
14246TIP3    H164229   2.845   2.886  13.571 -0.7888 -0.9270  0.2015
14246TIP3    H264230   2.944   2.784  13.520  1.0467  0.9152 -0.0185
14247TIP3   OH264231   5.877   0.936  11.155 -0.5213 -0.2352  0.5902
14247TIP3    H164232   5.905   0.876  11.085  1.8498  1.0857  0.3087
14247TIP3    H264233   5.874   1.022  11.113 -2.7728  0.0813  1.2607
14248TIP3   OH264234   4.003   2.328  13.423 -0.4251 -0.1622  0.1564
14248TIP3    H164235   4.053   2.250  13.399  0.7461  0.3756  0.7694
14248TIP3    H264236   3.945   2.298  13.494 -1.6926 -1.0078 -1.1801
14249TIP3   OH264237   1.097   4.039   1.326 -0.0863  0.3460 -0.7881
14249TIP3    H164238   1.193   4.036   1.333 -0.0210  1.1049 -1.3660
14249TIP3    H264239   1.068   3.961   1.375  0.6948  1.4706  1.6166
14250TIP3   OH264240   1.001   5.379  17.111  0.1364 -0.0992 -0.0243
14250TIP3    H164241   1.090   5.354  17.086  0.4204  0.1179  0.7181
14250TIP3    H264242   0.944   5.324  17.058  0.7231 -2.2743  1.4728
14251TIP3   OH264243   4.842   2.117   0.365  0.1557 -0.5173 -0.3594
14251TIP3    H164244   4.849   2.164   0.282  1.2438 -0.7036 -0.3869
14251TIP3    H264245   4.785   2.042   0.346  0.2698 -0.4698 -0.8903
14252TIP3   OH264246   1.346   6.008  11.859 -0.0656 -0.0719 -0.4650
14252TIP3    H164247   1.382   5.975  11.778  0.5422  1.9043 -1.0535
14252TIP3    H264248   1.416   5.999  11.923 -0.4997 -1.5023 -0.1590
14253TIP3   OH264249   3.135   6.522  12.348 -0.3268  0.3375  0.2066
14253TIP3    H164250   3.162   6.608  12.316 -1.8038  0.7524 -0.0098
14253TIP3    H264251   3.136   6.530  12.443  0.6036  0.2376  0.2102
14254TIP3   OH264252   2.338   5.234  15.894 -0.1691  0.0538  0.9224
14254TIP3    H164253   2.401   5.265  15.829 -1.0164 -0.2196 -0.0589
14254TIP3    H264254   2.353   5.140  15.898  0.2701  0.1454  1.5645
14255TIP3   OH264255   5.636   2.216   6.772 -0.4501 -0.1797 -0.4040
14255TIP3    H164256   5.649   2.309   6.789 -2.1065  0.6378 -2.9388
14255TIP3    H264257   5.563   2.191   6.829 -0.1870  0.1224  0.0758
14256TIP3   OH264258   3.271   1.145  12.423  0.2462 -0.1893  0.4884
14256TIP3    H164259   3.287   1.204  12.350 -2.8068 -0.4458 -0.5222
14256TIP3    H264260   3.304   1.191  12.500  0.2833  1.6724 -0.6006
14257TIP3   OH264261   4.086   1.433   3.740  0.1647  0.0343  0.1822
14257TIP3    H164262   4.018   1.366   3.743 -0.5521  0.6816 -1.0634
14257TIP3    H264263   4.159   1.391   3.695 -0.2302  0.0389 -0.4686
14258TIP3   OH264264   4.800   3.076   4.200  0.0403  0.0424  0.3882
14258TIP3    H164265   4.788   3.150   4.141  1.0845 -0.4329 -0.4656
14258TIP3    H264266   4.763   3.001   4.153  0.3438 -0.2349  0.5821
14259TIP3   OH264267   1.391   1.731  14.727  0.5898  0.0329 -0.2383
14259TIP3    H164268   1.402   1.664  14.659 -0.6893  0.9234 -1.3904
14259TIP3    H264269   1.455   1.799  14.704 -0.8573  1.0302 -1.5146
14260TIP3   OH264270   2.353   3.634  14.075 -0.0972 -0.3877  0.0318
14260TIP3    H164271   2.262   3.642  14.103 -0.2338  0.7851 -0.6598
14260TIP3    H264272   2.401   3.696  14.130 -0.0262  0.3360 -0.8230
14261TIP3   OH264273   1.112   0.591   0.628 -0.2189 -0.3909 -0.1863
14261TIP3    H164274   1.056   0.667   0.645 -0.5315 -0.8401  0.8760
14261TIP3    H264275   1.116   0.546   0.712  0.8390 -0.9737 -0.5415
14262TIP3   OH264276   1.142   3.926  15.843  0.4459 -0.2330 -0.6783
14262TIP3    H164277   1.116   4.017  15.830 -0.2251 -0.6518 -2.6043
14262TIP3    H264278   1.060   3.877  15.847  0.8180 -1.0193 -2.0902
14263TIP3   OH264279   1.138   2.141   6.423 -0.8461  0.2616  0.2595
14263TIP3    H164280   1.219   2.106   6.461 -0.4476  0.2753 -0.5666
14263TIP3    H264281   1.091   2.065   6.391 -0.3777  0.3880 -0.7626
14264TIP3   OH264282   0.289   2.132  17.513  0.4336 -0.2294 -0.7439
14264TIP3    H164283   0.322   2.221  17.517 -0.4375  0.0595  1.7099
14264TIP3    H264284   0.284   2.112  17.420  0.8839  2.1773 -1.3397
14265TIP3   OH264285   3.903   4.947   0.695 -0.4583 -0.0801  0.2079
14265TIP3    H164286   3.949   5.029   0.679 -1.1410  0.1722 -0.5501
14265TIP3    H264287   3.954   4.880   0.649 -1.8200  0.4782 -2.2670
14266TIP3   OH264288   2.651   0.207  13.921 -0.2619  0.1705  0.0233
14266TIP3    H164289   2.581   0.258  13.963  0.9447  0.6123  1.6049
14266TIP3    H264290   2.712   0.273  13.888 -0.6473 -0.2063 -1.5007
14267TIP3   OH264291   2.532   3.354   7.058  0.4772 -0.2821  0.0339
14267TIP3    H164292   2.535   3.261   7.079 -0.9774 -0.1622  0.8915
14267TIP3    H264293   2.452   3.386   7.099 -1.0249  0.6131 -3.2621
14268TIP3   OH264294   0.898   5.540   0.503  0.1530  0.0215 -0.6013
14268TIP3    H164295   0.831   5.557   0.437 -0.7662 -0.9064  0.0464
14268TIP3    H264296   0.862   5.578   0.583 -0.3008 -1.7372  0.0699
14269TIP3   OH264297   3.800   0.071   4.752  0.1846  0.4066 -0.4183
14269TIP3    H164298   3.797   0.122   4.833 -1.8763 -0.4255  0.0797
14269TIP3    H264299   3.764   0.129   4.685  1.1646  0.8202 -0.6043
14270TIP3   OH264300   1.270   4.347  12.397 -0.2061 -0.5574  0.2526
14270TIP3    H164301   1.340   4.375  12.338  0.3046  0.5274  1.3097
14270TIP3    H264302   1.191   4.390  12.363  0.0684 -0.0024  0.3126
14271TIP3   OH264303   1.840   5.213  11.803 -0.0632  0.1061  0.0868
14271TIP3    H164304   1.931   5.208  11.834  0.4040  0.4968 -1.1683
14271TIP3    H264305   1.841   5.281  11.735 -1.1404 -0.4094 -0.4706
14272TIP3   OH264306   4.709   6.036   6.682  0.3474 -0.2416 -0.0908
14272TIP3    H164307   4.635   6.072   6.730 -0.5429 -2.6885  0.5140
14272TIP3    H264308   4.682   6.038   6.590  0.9267  1.8631 -0.2771
14273TIP3   OH264309   2.874   0.608  15.335 -0.4216 -0.6733  0.0488
14273TIP3    H164310   2.844   0.614  15.425 -2.9739 -1.5740 -0.6541
14273TIP3    H264311   2.929   0.530  15.333  0.8921  0.1765  1.0734
14274TIP3   OH264312   3.061   5.758   0.230  0.2871 -0.6038  0.3685
14274TIP3    H164313   3.006   5.794   0.160 -2.2509  1.1840  3.0759
14274TIP3    H264314   3.151   5.779   0.202 -0.7603  5.7786  0.3222
14275TIP3   OH264315   5.268   4.008  12.654  0.5677 -0.0583 -0.2334
14275TIP3    H164316   5.226   3.999  12.569 -1.5262 -0.2357  0.7391
14275TIP3    H264317   5.289   3.918  12.680  0.8690 -0.0349 -0.3864
14276TIP3   OH264318   3.089   4.624  16.339 -0.0656 -0.2302 -0.4310
14276TIP3    H164319   3.108   4.664  16.254  1.1713 -0.0716 -0.0936
14276TIP3    H264320   3.057   4.696  16.393  0.0530 -0.1397 -0.4812
14277TIP3   OH264321   1.243   2.676   3.647 -0.2376 -0.2964 -0.2836
14277TIP3    H164322   1.297   2.644   3.575  0.5542  0.7076 -0.1483
14277TIP3    H264323   1.245   2.605   3.711  0.9313 -0.2935 -0.2866
14278TIP3   OH264324   4.060   6.069  15.972  0.0953  0.1810  0.1993
14278TIP3    H164325   4.013   6.107  16.045 -0.2596 -0.6494  0.4146
14278TIP3    H264326   4.097   5.988  16.006 -1.8311 -1.3130 -1.0582
14279TIP3   OH264327   3.973   2.951  11.387 -0.0129  0.5451 -0.9008
14279TIP3    H164328   3.934   2.920  11.469  0.1045  0.1425 -0.9916
14279TIP3    H264329   3.920   3.027  11.362  0.3609  1.0687 -0.1142
14280TIP3   OH264330   3.859   2.007  13.363  0.1412  1.0470  0.0837
14280TIP3    H164331   3.839   1.961  13.445  1.0977 -0.3336 -0.4057
14280TIP3    H264332   3.777   2.008  13.315 -0.0490  0.3999  0.3834
14281TIP3   OH264333   4.400   2.871  14.864 -0.1143 -0.1979  0.3484
14281TIP3    H164334   4.445   2.814  14.926 -0.2754 -0.3017  0.3694
14281TIP3    H264335   4.359   2.812  14.801 -0.3584 -0.1082  0.4241
14282TIP3   OH264336   1.579   0.127   4.239 -0.2074  0.3551  0.3512
14282TIP3    H164337   1.572   0.041   4.197 -0.2050  0.4174  0.2213
14282TIP3    H264338   1.673   0.144   4.243 -0.0124 -0.8474  2.8466
14283TIP3   OH264339   5.632   4.083   1.647 -0.1110  0.1636 -0.4258
14283TIP3    H164340   5.673   4.059   1.564 -0.0554 -0.5784 -0.1878
14283TIP3    H264341   5.673   4.026   1.712 -1.3782 -0.4862 -0.1527
14284TIP3   OH264342   0.883   4.810  12.620 -0.1240  0.2017  0.2123
14284TIP3    H164343   0.973   4.817  12.588 -0.1723  0.4225  0.1257
14284TIP3    H264344   0.868   4.716  12.630 -0.5136  0.0486 -1.5222
14285TIP3   OH264345   1.633   5.442  11.111 -0.8141  0.3569  0.6949
14285TIP3    H164346   1.618   5.359  11.156 -1.9993 -0.4784 -1.1013
14285TIP3    H264347   1.668   5.417  11.026 -1.9977  1.6252 -0.2136
14286TIP3   OH264348   6.345   6.668   4.390  0.3852 -0.0562 -0.7877
14286TIP3    H164349   6.322   6.654   4.298 -1.2569 -1.7596 -0.1814
14286TIP3    H264350   6.261   6.672   4.435  1.0795 -3.2955  1.1338
14287TIP3   OH264351   4.335   3.720   1.832  0.1938  0.5742 -0.3740
14287TIP3    H164352   4.277   3.676   1.894  1.4909 -1.5696 -0.5828
14287TIP3    H264353   4.326   3.670   1.751  0.1158  2.0515 -1.3160
14288TIP3   OH264354   4.209   5.513  17.120 -0.1517  0.6778 -0.1556
14288TIP3    H164355   4.153   5.580  17.080 -0.6974 -0.5644 -1.5869
14288TIP3    H264356   4.166   5.492  17.203 -2.3465 -0.8013 -1.5564
14289TIP3   OH264357   6.640   5.346  14.751  0.0861 -0.4906 -0.5518
14289TIP3    H164358   6.654   5.291  14.827 -0.2678 -1.6775 -1.3171
14289TIP3    H264359   6.716   5.329  14.695  0.5602  0.6932 -0.3006
14290TIP3   OH264360   2.874   0.888  10.741 -0.0260 -0.4692 -0.2245
14290TIP3    H164361   2.911   0.970  10.707  1.7933 -1.4609 -0.7975
14290TIP3    H264362   2.780   0.894  10.723  0.0617  1.4843 -0.2188
14291TIP3   OH264363   6.459   3.354  15.768 -0.5609 -0.2599 -0.0683
14291TIP3    H164364   6.483   3.393  15.684 -1.3729  2.0108  0.6861
14291TIP3    H264365   6.375   3.395  15.791 -0.3120 -0.7215  1.8849
14292TIP3   OH264366   0.771   4.231  12.235  0.4253 -0.2603  0.1688
14292TIP3    H164367   0.690   4.189  12.264  0.1894  0.5905  0.7521
14292TIP3    H264368   0.839   4.194  12.291  0.3360 -0.4393  0.1601
14293TIP3   OH264369   4.777   6.178  17.347 -0.1818  0.3730  0.0767
14293TIP3    H164370   4.759   6.106  17.407 -1.8001  1.3283  0.8310
14293TIP3    H264371   4.695   6.190  17.299  0.5595  0.7193 -1.1331
14294TIP3   OH264372   1.112   0.192  16.003  0.0509 -0.3248  0.1846
14294TIP3    H164373   1.135   0.279  15.969  0.4247 -0.0630  1.0797
14294TIP3    H264374   1.171   0.179  16.076 -1.0445 -0.6743  1.0351
14295TIP3   OH264375   2.160   3.831  12.682  0.4794 -0.3762  0.0449
14295TIP3    H164376   2.182   3.918  12.714  1.1283 -0.6594  0.3674
14295TIP3    H264377   2.208   3.822  12.600  0.8221 -0.6326  0.2738
14296TIP3   OH264378   1.089   2.596   4.790  0.0414  0.5099 -0.2802
14296TIP3    H164379   1.047   2.642   4.863 -1.5858  1.6031 -1.8423
14296TIP3    H264380   1.074   2.503   4.810  2.1976  0.5952  2.2200
14297TIP3   OH264381   5.235   5.010   1.267 -0.2616  0.4229  0.0446
14297TIP3    H164382   5.306   4.963   1.312  0.3989  0.4762 -0.9239
14297TIP3    H264383   5.219   4.959   1.188 -1.7246  0.0872  0.5213
14298TIP3   OH264384   4.497   0.338  16.132  0.4042 -0.1420 -0.3195
14298TIP3    H164385   4.569   0.389  16.168  0.6364 -0.4244 -0.3760
14298TIP3    H264386   4.446   0.401  16.080  1.1929 -0.1496 -1.1271
14299TIP3   OH264387   5.447   5.672   3.848 -0.5765 -0.6337 -0.6104
14299TIP3    H164388   5.363   5.711   3.871 -1.3002 -2.1807 -0.5145
14299TIP3    H264389   5.441   5.582   3.879  2.3105  0.0055  2.2594
14300TIP3   OH264390   3.545   6.631  14.061 -0.0341  0.8627  0.4201
14300TIP3    H164391   3.478   6.673  14.008  1.7398  0.5320 -2.2538
14300TIP3    H264392   3.509   6.545  14.081 -0.4015  0.6413 -1.0948
14301TIP3   OH264393   2.790   6.175  14.135 -0.7971  0.3117  0.1757
14301TIP3    H164394   2.767   6.114  14.065 -2.1049  0.0111  0.8267
14301TIP3    H264395   2.867   6.137  14.177  0.2810  0.7280 -1.3440
14302TIP3   OH264396   4.063   1.516  17.529  0.3736  0.2994 -0.0024
14302TIP3    H164397   3.989   1.500  17.471  1.7513 -0.2322 -1.7007
14302TIP3    H264398   4.079   1.431  17.570  0.1950  0.3567  0.1881
14303TIP3   OH264399   2.856   1.916   5.960  0.2234 -0.0494  0.3079
14303TIP3    H164400   2.941   1.941   5.996  0.6718 -1.0857  0.0077
14303TIP3    H264401   2.877   1.858   5.887 -0.6428  2.5965 -2.1965
14304TIP3   OH264402   5.730   1.766  13.533 -0.0076 -0.4781  0.5893
14304TIP3    H164403   5.784   1.834  13.494  0.3169 -0.7163  0.6228
14304TIP3    H264404   5.756   1.764  13.625  0.9858 -1.5973  0.3040
14305TIP3   OH264405   4.415   5.217  11.959  0.2982  0.0260  0.2199
14305TIP3    H164406   4.361   5.252  12.031  0.0636 -0.8473  0.4834
14305TIP3    H264407   4.494   5.184  12.003 -0.4496 -1.8028  0.3050
14306TIP3   OH264408   4.994   2.264   4.405 -0.2794  0.1172 -0.1448
14306TIP3    H164409   4.902   2.253   4.430 -0.4036  1.3507  0.0534
14306TIP3    H264410   4.994   2.254   4.309 -0.3167 -1.5985  0.0174
14307TIP3   OH264411   2.062   2.348   7.201 -0.0746 -0.2801 -0.2048
14307TIP3    H164412   2.044   2.359   7.294 -1.2911 -0.6917 -0.3796
14307TIP3    H264413   2.122   2.273   7.197 -2.0209 -1.9357  0.1139
14308TIP3   OH264414   1.094   6.229   6.182 -0.0562 -0.6354  0.2941
14308TIP3    H164415   1.040   6.201   6.108 -1.3665 -2.0029  1.6816
14308TIP3    H264416   1.152   6.155   6.199  2.5427  0.8960 -1.3022
14309TIP3   OH264417   6.536   4.644   6.094  0.0496 -0.3039  0.2907
14309TIP3    H164418   6.548   4.716   6.032  0.4774 -1.8487 -1.5107
14309TIP3    H264419   6.441   4.642   6.111 -0.1277 -0.0511 -0.6043
14310TIP3   OH264420   0.133   1.164  11.739  0.3598 -0.4384  0.8165
14310TIP3    H164421   0.226   1.155  11.762  0.6135  0.1770  0.1053
14310TIP3    H264422   0.121   1.258  11.729  0.3285 -0.6388 -1.6309
14311TIP3   OH264423   5.296   1.321  15.666  0.0790 -0.1316 -0.1151
14311TIP3    H164424   5.261   1.410  15.676 -2.2641 -1.0531  0.6174
14311TIP3    H264425   5.300   1.308  15.571  0.4373  0.7306 -0.2345
14312TIP3   OH264426   1.984   6.471   5.334  0.4376  0.3941 -0.0267
14312TIP3    H164427   2.025   6.473   5.247 -0.1324  1.7156 -0.2818
14312TIP3    H264428   1.891   6.487   5.317 -0.2171 -2.3083  0.5643
14313TIP3   OH264429   5.129   4.863  10.644 -0.4763 -0.1884  0.1113
14313TIP3    H164430   5.083   4.785  10.676 -1.6275  1.3465  2.3720
14313TIP3    H264431   5.065   4.933  10.649  0.8842  1.1853 -0.7977
14314TIP3   OH264432   5.082   0.714   3.508 -0.1200  0.5584  0.5427
14314TIP3    H164433   5.163   0.667   3.528 -0.9870  0.3471  4.2135
14314TIP3    H264434   5.012   0.652   3.529 -1.2453  1.7076  0.3182
14315TIP3   OH264435   4.176   3.167  13.147 -0.5348  0.2912 -0.0183
14315TIP3    H164436   4.102   3.119  13.108 -0.6130 -0.8217  1.3994
14315TIP3    H264437   4.155   3.171  13.240  0.8105  0.7014  0.2853
14316TIP3   OH264438   5.785   0.315  14.335  0.0968  0.0900 -0.2592
14316TIP3    H164439   5.849   0.280  14.398 -1.1872 -0.0461  1.0320
14316TIP3    H264440   5.836   0.335  14.257  2.0913  1.8399  1.3623
14317TIP3   OH264441   3.832   5.320  15.234 -0.5548 -0.0341 -0.4229
14317TIP3    H164442   3.770   5.316  15.307  0.5385 -2.5518  0.4978
14317TIP3    H264443   3.787   5.369  15.166 -2.0713  1.4424  1.5000
14318TIP3   OH264444   0.120   1.581   0.951  0.2481 -0.1906 -0.0408
14318TIP3    H164445   0.048   1.519   0.937  1.2337 -1.5704  0.6700
14318TIP3    H264446   0.113   1.604   1.044 -0.0769  0.7496 -0.2900
14319TIP3   OH264447   1.302   0.567   0.410  0.0391  0.2982  0.3887
14319TIP3    H164448   1.225   0.600   0.456  0.3264  1.0852  0.3118
14319TIP3    H264449   1.311   0.624   0.334  0.3919 -0.1146  0.1193
14320TIP3   OH264450   2.284   5.602  16.115 -0.0208  0.6239 -0.1075
14320TIP3    H164451   2.331   5.526  16.150  0.4069  0.9365  0.0219
14320TIP3    H264452   2.262   5.654  16.193 -1.1074  0.1990 -0.1143
14321TIP3   OH264453   0.110   4.387  13.652 -0.2985 -0.8095  0.0536
14321TIP3    H164454   0.040   4.337  13.610 -0.2176 -0.4254 -0.5573
14321TIP3    H264455   0.070   4.422  13.731 -0.7931 -0.6107 -0.2801
14322TIP3   OH264456   6.448   6.667  14.683 -0.7700 -0.1248  0.0525
14322TIP3    H164457   6.503   6.746  14.686  0.6925 -1.1150  0.2975
14322TIP3    H264458   6.403   6.666  14.768  1.3854 -1.0224  1.2497
14323TIP3   OH264459   1.890   3.565   5.845  0.2305 -0.0158  0.1893
14323TIP3    H164460   1.978   3.603   5.850 -0.5566  1.9473  0.1033
14323TIP3    H264461   1.849   3.587   5.929 -0.2077 -0.8833  0.2188
14324TIP3   OH264462   0.978   0.941  13.609 -0.3860  0.0486  0.4983
14324TIP3    H164463   0.929   0.890  13.544 -1.0436  0.4244  0.6883
14324TIP3    H264464   0.986   0.882  13.684  1.0567 -0.6721 -0.1802
14325TIP3   OH264465   0.337   2.939   5.656 -0.2253 -0.4658 -0.2566
14325TIP3    H164466   0.257   2.991   5.658 -0.9484 -1.5191  1.9779
14325TIP3    H264467   0.378   2.960   5.572 -1.1684  2.5826 -0.0848
14326TIP3   OH264468   5.523   4.489  15.333 -0.3772  0.0597  0.8901
14326TIP3    H164469   5.493   4.537  15.410  2.6508  0.9944  1.6433
14326TIP3    H264470   5.589   4.428  15.368  2.4781  1.8004 -1.0145
14327TIP3   OH264471   5.167   1.270  17.267 -0.0023  0.4860 -0.0174
14327TIP3    H164472   5.161   1.358  17.232  0.5326  0.6799  0.3590
14327TIP3    H264473   5.143   1.213  17.194 -1.7148  0.9837  0.1272
14328TIP3   OH264474   3.903   4.395   0.141 -0.1004 -0.2100  0.2327
14328TIP3    H164475   3.981   4.421   0.091  0.4515 -0.7222  0.8179
14328TIP3    H264476   3.935   4.384   0.230 -0.6305 -1.4530  0.2781
14329TIP3   OH264477   2.729   1.810  15.240  0.2834  0.3868 -0.1642
14329TIP3    H164478   2.744   1.831  15.333  2.1810 -0.5633 -0.2041
14329TIP3    H264479   2.790   1.867  15.193  0.7453 -0.5061 -0.6793
14330TIP3   OH264480   5.034   3.577   4.737  0.0460  0.6565 -0.5577
14330TIP3    H164481   5.028   3.598   4.644  1.7181  1.8880 -0.4263
14330TIP3    H264482   5.118   3.613   4.765  0.2141 -0.8886  1.1307
14331TIP3   OH264483   1.319   0.440   5.906 -0.0075  0.0051  0.2610
14331TIP3    H164484   1.335   0.413   5.815  1.1691  1.0148  0.1459
14331TIP3    H264485   1.310   0.357   5.953  1.6692 -0.6113 -0.3990
14332TIP3   OH264486   6.467   0.089   5.230  0.0236  0.1150  0.1628
14332TIP3    H164487   6.384   0.130   5.255  0.0615 -0.1238  0.7034
14332TIP3    H264488   6.443   0.018   5.172 -0.1890 -0.2284  0.6674
14333TIP3   OH264489   4.235   6.186  12.252  0.7877 -0.8374 -0.1412
14333TIP3    H164490   4.208   6.183  12.160  1.0869  1.2637 -0.3664
14333TIP3    H264491   4.297   6.259  12.256 -1.2902  1.0179  2.1800
14334TIP3   OH264492   6.096   0.166  11.614  0.5382 -0.2654 -0.3201
14334TIP3    H164493   6.167   0.148  11.676 -0.8479  0.5728  1.6347
14334TIP3    H264494   6.022   0.192  11.669 -0.7370  0.7357 -2.3611
14335TIP3   OH264495   2.863   0.990   4.296  0.1466  0.3319  0.6047
14335TIP3    H164496   2.787   1.018   4.246  0.4371 -0.8189 -0.5306
14335TIP3    H264497   2.906   1.071   4.323  0.3863  1.0187 -1.6654
14336TIP3   OH264498   0.413   5.586   3.461 -0.3273 -0.0928  0.3602
14336TIP3    H164499   0.411   5.563   3.554 -1.5222 -0.4405  0.2660
14336TIP3    H264500   0.381   5.676   3.458  2.4855  1.0373  0.5292
14337TIP3   OH264501   2.279   5.722  16.356 -0.2217  0.6646 -0.2397
14337TIP3    H164502   2.329   5.790  16.400  0.2320  0.6397 -0.7167
14337TIP3    H264503   2.306   5.641  16.399  0.4541  0.6055 -0.7767
14338TIP3   OH264504   2.170   2.966   0.689 -0.1503  0.0972  0.4757
14338TIP3    H164505   2.157   3.030   0.759 -0.7762  1.0256 -0.4626
14338TIP3    H264506   2.164   3.017   0.608 -0.4075 -1.1048 -0.2888
14339TIP3   OH264507   4.826   4.873  17.421  0.0200 -0.4100  0.0871
14339TIP3    H164508   4.869   4.796  17.457 -0.9355  0.1569  2.6407
14339TIP3    H264509   4.873   4.948  17.458 -1.8809  0.2066  1.4165
14340TIP3   OH264510   6.350   1.394   0.041  0.0324 -0.3144 -0.3414
14340TIP3    H164511   6.336   1.356  -0.046 -1.9432 -1.2576  0.3328
14340TIP3    H264512   6.369   1.487   0.023  1.4223 -0.8221 -1.8227
14341TIP3   OH264513   2.469   0.028   4.218  0.2646  0.0135  0.4082
14341TIP3    H164514   2.418  -0.026   4.158 -0.8263  0.3267  1.0290
14341TIP3    H264515   2.442   0.118   4.197 -0.8765  0.0803  1.9917
14342TIP3   OH264516   2.111   3.253   5.679 -0.3268  0.6341  0.4428
14342TIP3    H164517   2.172   3.324   5.702  1.6171 -0.9270  0.3716
14342TIP3    H264518   2.152   3.210   5.604 -1.5477 -0.4702  0.3780
14343TIP3   OH264519   5.797   2.184   1.961 -0.0712 -0.9760 -0.0705
14343TIP3    H164520   5.755   2.138   2.034  0.7152 -1.3493  0.1564
14343TIP3    H264521   5.724   2.222   1.912 -0.5207  1.7438  2.4490
14344TIP3   OH264522   6.693   1.115  10.808  0.2609  0.3907 -0.2865
14344TIP3    H164523   6.615   1.168  10.819 -0.3646 -0.8550  1.7954
14344TIP3    H264524   6.761   1.161  10.858  0.0105 -0.1244  0.5560
14345TIP3   OH264525   1.987   0.054   1.246 -0.7562  0.7705  0.1991
14345TIP3    H164526   1.922   0.060   1.177 -0.6790 -0.5413 -0.0043
14345TIP3    H264527   2.001  -0.040   1.259  1.7502  0.9901 -0.3946
14346TIP3   OH264528   0.066   0.661   4.611  0.2538 -0.3084  0.0114
14346TIP3    H164529   0.125   0.736   4.603  0.8753 -0.8989 -1.0129
14346TIP3    H264530   0.064   0.643   4.705 -0.6054  1.5282  0.3929
14347TIP3   OH264531   5.423   6.486  12.027  0.4333 -0.1951  0.1058
14347TIP3    H164532   5.461   6.402  12.048 -1.2424 -0.6916  1.3571
14347TIP3    H264533   5.401   6.525  12.111 -2.5612 -0.3641 -0.4670
14348TIP3   OH264534   0.447   5.198  12.183  0.4222  0.0849  0.7711
14348TIP3    H164535   0.394   5.169  12.109  0.6323  3.6215 -0.9666
14348TIP3    H264536   0.386   5.199  12.257 -0.3064 -1.6499  0.2366
14349TIP3   OH264537   5.399   5.448  15.125  0.0652  0.3479  0.3445
14349TIP3    H164538   5.467   5.457  15.059  0.3290 -0.7375  0.4352
14349TIP3    H264539   5.328   5.401  15.080 -0.6713  1.5496  0.2219
14350TIP3   OH264540   0.761   3.277   2.762 -0.0747 -0.2165  0.1211
14350TIP3    H164541   0.827   3.294   2.830 -1.2409 -0.2259  1.2960
14350TIP3    H264542   0.769   3.351   2.702  1.9064 -0.8875 -0.5350
14351TIP3   OH264543   0.768   0.375   0.667  0.2065 -0.0682 -0.4082
14351TIP3    H164544   0.798   0.419   0.588  0.9000 -3.1827 -2.0587
14351TIP3    H264545   0.674   0.391   0.670 -0.1314 -1.1880 -2.8593
14352TIP3   OH264546   5.194   2.760  12.657  0.1762 -0.3191 -0.2334
14352TIP3    H164547   5.168   2.835  12.711  1.3761 -0.7473  0.9935
14352TIP3    H264548   5.158   2.684  12.703  1.8296 -0.7479  0.4155
14353TIP3   OH264549   1.730   3.465   1.092  0.5725  0.6377  0.5834
14353TIP3    H164550   1.648   3.417   1.083  1.5552 -0.9822 -0.3571
14353TIP3    H264551   1.713   3.551   1.054 -0.3346 -0.1270 -0.8150
14354TIP3   OH264552   3.415   0.594   5.574  0.2192 -0.1104 -0.1213
14354TIP3    H164553   3.495   0.563   5.615 -0.7389 -1.6152  0.7331
14354TIP3    H264554   3.412   0.550   5.489  0.3578  0.0377 -0.2024
14355TIP3   OH264555   4.928   2.405   3.354 -0.2695 -0.0758 -0.4380
14355TIP3    H164556   4.946   2.493   3.322 -1.6604  0.2885 -0.2488
14355TIP3    H264557   4.879   2.418   3.435  2.3108 -0.9904  1.4227
14356TIP3   OH264558   1.952   6.172  17.397  0.1922 -0.0339 -0.2490
14356TIP3    H164559   2.044   6.197  17.406  0.4682 -0.9467 -0.3577
14356TIP3    H264560   1.947   6.134  17.309 -0.1989 -0.3466 -0.0919
14357TIP3   OH264561   4.731   1.547   0.874 -0.2312 -0.2510 -0.2894
14357TIP3    H164562   4.711   1.594   0.955  1.1841 -0.3674  0.1484
14357TIP3    H264563   4.684   1.596   0.806  0.3741  1.2052  0.2915
14358TIP3   OH264564   1.474   2.246   1.377  0.3812  0.1920 -0.1375
14358TIP3    H164565   1.436   2.162   1.404  0.7475  0.3715  0.9796
14358TIP3    H264566   1.414   2.312   1.413 -0.6481  0.4348 -2.1288
14359TIP3   OH264567   2.870   5.349  13.333  0.1331 -0.7519  0.4775
14359TIP3    H164568   2.822   5.296  13.396  0.5695  0.4226  1.8527
14359TIP3    H264569   2.845   5.439  13.354  3.2093 -0.0446  1.5291
14360TIP3   OH264570   2.975   5.283  14.258 -0.1058 -0.0715  0.4421
14360TIP3    H164571   2.959   5.336  14.180 -0.4347 -0.7986  0.0091
14360TIP3    H264572   3.018   5.343  14.319  1.8002  0.0423 -0.9231
14361TIP3   OH264573   0.194   5.166   1.199 -0.0806 -0.6594  0.2432
14361TIP3    H164574   0.141   5.096   1.236 -0.2352 -0.6144  0.1104
14361TIP3    H264575   0.263   5.121   1.150 -0.7398 -0.7330 -0.6474
14362TIP3   OH264576   3.823   0.416  14.343 -0.5148 -0.4452  0.6873
14362TIP3    H164577   3.847   0.507  14.322 -1.7904  0.1737  1.7758
14362TIP3    H264578   3.766   0.390  14.271  1.3685 -1.0978 -0.6469
14363TIP3   OH264579   5.576   4.821  13.800 -0.2752  0.2828  0.0316
14363TIP3    H164580   5.640   4.751  13.812 -0.0185  0.5106 -0.0187
14363TIP3    H264581   5.597   4.859  13.715 -1.2825 -0.4840 -0.5986
14364TIP3   OH264582   0.942   0.248  12.604  0.1049  0.0255 -0.2224
14364TIP3    H164583   1.035   0.234  12.585  0.0019 -0.2433 -0.5370
14364TIP3    H264584   0.926   0.338  12.577  0.2416  0.0271 -0.3014
14365TIP3   OH264585   4.617   0.545   6.036  0.6886  0.2938 -0.0660
14365TIP3    H164586   4.567   0.625   6.026 -1.4944 -1.1618 -1.9556
14365TIP3    H264587   4.676   0.544   5.961 -0.0901 -0.3714 -0.6801
14366TIP3   OH264588   3.323   0.716  12.875  0.4583 -0.0270 -0.7581
14366TIP3    H164589   3.288   0.635  12.912 -0.7389  0.4441 -0.8105
14366TIP3    H264590   3.364   0.761  12.949 -1.4433  0.6541 -0.0648
14367TIP3   OH264591   4.823   6.131  10.936  0.1226  0.1431  0.6301
14367TIP3    H164592   4.916   6.148  10.948  0.5571 -2.1946  0.9172
14367TIP3    H264593   4.798   6.075  11.009 -1.0959 -0.6855 -0.3659
14368TIP3   OH264594   1.765   1.210  16.040  0.2224 -0.3588  0.3242
14368TIP3    H164595   1.822   1.191  16.114  0.4533  1.2523  0.5971
14368TIP3    H264596   1.735   1.124  16.010  0.9395 -1.0961  1.6277
14369TIP3   OH264597   5.255   6.239  11.537  0.1706  0.0179 -0.1399
14369TIP3    H164598   5.194   6.196  11.478 -0.5802  1.0795 -0.1631
14369TIP3    H264599   5.231   6.208  11.624  2.0879 -2.5512 -0.3944
14370TIP3   OH264600   3.164   1.482   6.797  0.0090 -0.0152  0.0912
14370TIP3    H164601   3.210   1.537   6.733 -0.9739 -0.5403 -1.1124
14370TIP3    H264602   3.165   1.534   6.878  2.9804 -0.1572  0.2704
14371TIP3   OH264603   0.491   6.555   0.244  0.2034 -0.1248  0.4938
14371TIP3    H164604   0.536   6.474   0.219  2.1114  0.4173  1.9511
14371TIP3    H264605   0.415   6.525   0.293  1.2580 -1.0901  1.6198
14372TIP3   OH264606   6.261   6.193   2.536 -0.3036 -0.2929  0.2463
14372TIP3    H164607   6.211   6.171   2.614 -0.3777 -1.2114 -0.0453
14372TIP3    H264608   6.199   6.184   2.464 -0.0453 -0.1906  0.0081
14373TIP3   OH264609   4.852   5.833  15.999  0.0210  0.2530 -0.5597
14373TIP3    H164610   4.774   5.854  15.947 -0.0042 -1.7892 -1.4385
14373TIP3    H264611   4.924   5.834  15.937  0.2408 -0.6555 -0.3318
14374TIP3   OH264612   4.550   1.660  15.627  0.4309 -0.0381  0.3299
14374TIP3    H164613   4.555   1.633  15.536 -0.8505 -1.5080  0.6516
14374TIP3    H264614   4.462   1.635  15.655  1.0419 -0.3082  2.1740
14375TIP3   OH264615   1.923   2.714   4.926 -0.7459 -0.0974 -0.2631
14375TIP3    H164616   1.852   2.766   4.964 -0.0950  1.3581 -0.9740
14375TIP3    H264617   1.988   2.778   4.899  1.0621 -1.4124  0.7291
14376TIP3   OH264618   5.986   5.000   3.932  0.2579 -0.2159  0.1346
14376TIP3    H164619   6.055   5.043   3.883  0.0402  0.6350  0.5470
14376TIP3    H264620   5.905   5.020   3.884  0.0512  0.5733  0.7774
14377TIP3   OH264621   0.154   1.947   0.364 -0.1930 -0.4512  0.8547
14377TIP3    H164622   0.152   1.946   0.268 -2.4367  2.8709  0.6922
14377TIP3    H264623   0.239   1.985   0.386 -0.5629  0.8880  0.0409
14378TIP3   OH264624   1.068   1.335   2.973 -0.0622  0.2227 -0.3446
14378TIP3    H164625   1.152   1.290   2.971  0.1646  0.6192 -0.0212
14378TIP3    H264626   1.077   1.399   3.044 -0.8705 -0.1943  0.1579
14379TIP3   OH264627   4.154   5.483   2.413  0.3103  0.0800  0.2171
14379TIP3    H164628   4.129   5.575   2.405  2.7214  0.8089  0.1389
14379TIP3    H264629   4.165   5.454   2.322 -0.0266 -0.1604  0.2522
14380TIP3   OH264630   3.233   3.737  13.067 -0.7072 -0.1997 -0.2637
14380TIP3    H164631   3.291   3.664  13.086 -0.6313  0.0438  0.4681
14380TIP3    H264632   3.231   3.788  13.148 -1.8431 -0.1316 -0.3185
14381TIP3   OH264633   0.406   5.079   1.560 -0.2357  0.3458  0.2099
14381TIP3    H164634   0.387   5.046   1.472  1.6365 -0.3642  0.0304
14381TIP3    H264635   0.386   5.172   1.554 -2.1417 -0.0358 -0.3238
14382TIP3   OH264636   1.005   4.059  16.348 -0.2192 -0.1734 -0.5192
14382TIP3    H164637   0.919   4.017  16.343 -0.4065  0.3121 -2.3486
14382TIP3    H264638   1.049   4.031  16.267  1.0471  0.2053  0.0257
14383TIP3   OH264639   6.217   2.943  11.054 -0.1718  0.1592  0.4157
14383TIP3    H164640   6.228   3.021  11.109  0.1111  1.4611 -1.4083
14383TIP3    H264641   6.296   2.939  11.001 -0.7261 -0.6614 -0.3875
14384TIP3   OH264642   6.641   0.936   5.831 -0.0117  0.1593  0.4232
14384TIP3    H164643   6.550   0.924   5.859 -0.1130  0.8948  0.4488
14384TIP3    H264644   6.677   0.998   5.894  0.3624  0.2485  0.1261
14385TIP3   OH264645   4.734   3.211   3.737 -0.4073 -0.1481  0.1812
14385TIP3    H164646   4.675   3.197   3.663 -0.5332  2.0511 -0.1974
14385TIP3    H264647   4.822   3.200   3.700 -0.4111  2.3209 -0.7014
14386TIP3   OH264648   3.098   4.608  12.068  0.2724 -0.1235 -0.3065
14386TIP3    H164649   3.124   4.695  12.038 -1.5346  0.4500 -0.3029
14386TIP3    H264650   3.022   4.585  12.015  1.3230 -2.1900 -1.0429
14387TIP3   OH264651   3.051   5.817  17.202  0.3406  0.3051 -0.0209
14387TIP3    H164652   3.106   5.740  17.194  1.3979  1.0895 -0.6574
14387TIP3    H264653   2.996   5.817  17.123  1.1343  0.7834 -0.5879
14388TIP3   OH264654   4.486   4.432  12.283 -0.1947  0.4024 -0.5047
14388TIP3    H164655   4.564   4.421  12.229 -0.3947  0.0716 -0.7290
14388TIP3    H264656   4.486   4.525  12.307  1.0795  0.1147  0.7391
14389TIP3   OH264657   6.057   5.843  16.678 -0.0128  0.4868 -0.5747
14389TIP3    H164658   6.014   5.762  16.651  1.8213 -0.9980  0.6851
14389TIP3    H264659   6.076   5.831  16.771 -0.9966  3.0209  0.0470
14390TIP3   OH264660   2.278   2.653   3.770  0.1099  0.0575 -0.5018
14390TIP3    H164661   2.306   2.594   3.840 -0.2811  0.4660  0.0029
14390TIP3    H264662   2.182   2.651   3.773  0.0881  1.1904 -0.0664
14391TIP3   OH264663   1.298   5.738   1.552  0.1657  0.2890  0.4528
14391TIP3    H164664   1.361   5.723   1.623 -1.6701  0.4135  2.1943
14391TIP3    H264665   1.332   5.686   1.478  1.9878 -0.0743  1.4824
14392TIP3   OH264666   6.011   2.675  17.161  0.4474  0.3141 -0.2476
14392TIP3    H164667   5.951   2.741  17.194  0.2402  1.1922 -2.2227
14392TIP3    H264668   5.956   2.599  17.144  0.3062  0.3535  0.0258
14393TIP3   OH264669   0.190   3.158  16.543 -0.0053 -0.4689 -0.0550
14393TIP3    H164670   0.122   3.226  16.541  0.9974  0.5771 -0.1801
14393TIP3    H264671   0.199   3.131  16.451 -0.0988 -0.4609 -0.0674
14394TIP3   OH264672   1.615   6.258   4.200 -0.4328 -0.2523 -0.0957
14394TIP3    H164673   1.561   6.181   4.217 -0.3854 -0.5936 -1.4177
14394TIP3    H264674   1.662   6.273   4.283 -1.6307 -0.6630  0.6861
14395TIP3   OH264675   2.344   0.226   1.137 -0.0964 -0.4722 -0.2040
14395TIP3    H164676   2.339   0.317   1.109  0.7788 -1.0751 -2.5780
14395TIP3    H264677   2.281   0.180   1.081  2.0897 -1.8204 -1.7404
14396TIP3   OH264678   2.276   3.343   2.749  0.5877  0.3623  0.6476
14396TIP3    H164679   2.296   3.435   2.736  2.8825 -0.2376 -0.5005
14396TIP3    H264680   2.183   3.342   2.773  0.5177  2.9450  0.7164
14397TIP3   OH264681   1.559   4.825  12.243 -0.4672  0.1805  0.1010
14397TIP3    H164682   1.562   4.791  12.153 -0.0291 -1.0797  0.5662
14397TIP3    H264683   1.638   4.791  12.284 -1.3629 -0.4754  1.3709
14398TIP3   OH264684   3.407   4.569  15.083  0.6050 -0.1253 -0.0549
14398TIP3    H164685   3.442   4.578  14.994  0.2521  0.2215 -0.1640
14398TIP3    H264686   3.469   4.618  15.137  1.1259 -0.8076 -0.0292
14399TIP3   OH264687   5.941   4.454  14.244 -0.0933 -0.1752  0.3328
14399TIP3    H164688   5.953   4.386  14.178 -0.1367  1.1399 -1.0921
14399TIP3    H264689   6.014   4.442  14.305  0.6415 -0.6834 -0.6289
14400TIP3   OH264690   5.294   0.714   5.171 -0.3642 -0.2155 -0.0609
14400TIP3    H164691   5.370   0.755   5.213 -0.2869  0.7864 -1.1275
14400TIP3    H264692   5.238   0.788   5.146 -0.6675 -0.8082 -1.2105
14401TIP3   OH264693   3.945   1.174  13.004  0.1300 -0.0206 -0.5265
14401TIP3    H164694   3.873   1.186  13.065 -0.6112 -2.0790 -0.9150
14401TIP3    H264695   3.977   1.086  13.021  2.9363  0.9867 -0.0352
14402TIP3   OH264696   2.630   4.921  16.748 -0.2138  0.0946 -0.5205
14402TIP3    H164697   2.609   4.918  16.841 -0.3735  0.6294 -0.5308
14402TIP3    H264698   2.725   4.928  16.745 -0.0988 -1.2319 -0.4386
14403TIP3   OH264699   3.427   3.540  14.923  0.0110  0.4361 -0.2092
14403TIP3    H164700   3.513   3.538  14.882  0.5243 -1.5449  0.8244
14403TIP3    H264701   3.388   3.623  14.894  1.5652  0.5879 -2.0801
14404TIP3   OH264702   6.054   6.122  15.488 -0.1599  0.5363 -0.3771
14404TIP3    H164703   5.961   6.102  15.492 -0.0093  0.0257  0.7095
14404TIP3    H264704   6.090   6.091  15.571  0.9386  0.9507 -0.6741
14405TIP3   OH264705   2.945   1.339  15.043 -0.2733 -0.0996  0.1317
14405TIP3    H164706   3.001   1.290  14.982 -1.1746 -1.1907  0.1461
14405TIP3    H264707   3.001   1.356  15.118  0.3942 -0.0946 -0.3542
14406TIP3   OH264708   0.886   5.721   4.631  0.2924 -0.1322  0.0479
14406TIP3    H164709   0.960   5.689   4.579  2.4902  0.8781  2.3419
14406TIP3    H264710   0.914   5.807   4.663 -1.4962 -0.1112  1.7665
14407TIP3   OH264711   2.499   1.520  13.100 -0.3929 -0.4383 -0.4166
14407TIP3    H164712   2.408   1.503  13.123 -0.0315  0.1618  1.6256
14407TIP3    H264713   2.499   1.611  13.070 -0.4061 -0.2749  0.0647
14408TIP3   OH264714   3.915   2.731   6.466 -0.2106  0.6020 -0.0895
14408TIP3    H164715   4.011   2.736   6.458 -0.3324  1.3265 -1.4707
14408TIP3    H264716   3.899   2.654   6.520  1.1530  0.2974 -0.0856
14409TIP3   OH264717   0.936   0.737   0.772 -0.0889 -0.6761  0.2930
14409TIP3    H164718   0.916   0.829   0.791  0.2106 -0.4126 -0.6109
14409TIP3    H264719   0.851   0.693   0.771 -0.3644 -0.1405 -0.6099
14410TIP3   OH264720   5.267   1.112  16.704  0.0643  0.3209  0.4672
14410TIP3    H164721   5.245   1.116  16.611 -0.0194 -0.2838  0.4612
14410TIP3    H264722   5.320   1.033  16.713  0.3317  0.5454  0.8811
14411TIP3   OH264723   0.882   2.755   5.663 -0.6769  0.4651 -0.2062
14411TIP3    H164724   0.961   2.702   5.669 -1.3064 -0.6538 -1.2751
14411TIP3    H264725   0.912   2.839   5.630 -0.1308 -0.6747 -2.9304
14412TIP3   OH264726   0.976   5.060  17.178 -0.2526 -0.1798 -0.4914
14412TIP3    H164727   1.007   5.005  17.250  0.7773 -0.6939 -1.2964
14412TIP3    H264728   0.881   5.058  17.186 -0.4067 -3.4752 -1.4391
14413TIP3   OH264729   1.787   2.603   5.194 -0.5000  0.2669 -0.2288
14413TIP3    H164730   1.710   2.656   5.172 -0.5307  0.4834  0.3819
14413TIP3    H264731   1.844   2.662   5.243  0.3410  0.2826 -1.2022
14414TIP3   OH264732   6.636   3.346   2.161 -0.4068 -0.1685  0.3201
14414TIP3    H164733   6.686   3.272   2.198  2.4213  1.5615  0.2482
14414TIP3    H264734   6.620   3.403   2.236  2.3098  1.6907 -0.3799
14415TIP3   OH264735   0.195   4.740   1.082 -0.1751  0.1426  0.1506
14415TIP3    H164736   0.164   4.654   1.110  0.2079  0.2498  0.9208
14415TIP3    H264737   0.176   4.743   0.988 -1.1515 -0.3673  0.3202
14416TIP3   OH264738   2.504   4.490  13.392 -0.3758  0.0438 -0.7798
14416TIP3    H164739   2.557   4.487  13.312  1.4627 -0.9613  0.4085
14416TIP3    H264740   2.480   4.399  13.407 -1.1026  0.2912 -0.4140
14417TIP3   OH264741   4.365   4.812   4.037 -0.2653  0.4736  0.5072
14417TIP3    H164742   4.282   4.765   4.026 -0.7047  1.0568  1.2076
14417TIP3    H264743   4.400   4.779   4.120  0.7444 -0.5309 -0.2705
14418TIP3   OH264744   5.554   2.850  17.458 -0.2343 -0.5033  0.1359
14418TIP3    H164745   5.483   2.787  17.466 -0.0071 -0.5789  2.2691
14418TIP3    H264746   5.617   2.824  17.525  0.9100  0.6953 -0.4183
14419TIP3   OH264747   0.014   2.393  13.955 -0.4986 -0.2986 -0.0379
14419TIP3    H164748  -0.015   2.439  13.876 -1.5967  0.3488  0.7180
14419TIP3    H264749  -0.002   2.300  13.936 -3.5921  0.0415  0.5096
14420TIP3   OH264750   6.276   2.268  16.522 -0.6786 -0.2302  0.2080
14420TIP3    H164751   6.258   2.237  16.433  3.1352  0.6301 -1.0478
14420TIP3    H264752   6.215   2.219  16.577 -1.4974 -2.6840 -2.6076
14421TIP3   OH264753   6.444   1.057  12.531  0.0953 -0.1591  0.0677
14421TIP3    H164754   6.458   1.149  12.552 -1.7054 -0.0082  0.8081
14421TIP3    H264755   6.358   1.055  12.489  0.2501 -1.4600 -0.2264
14422TIP3   OH264756   5.169   3.428   5.529  0.1014  0.0268  0.3442
14422TIP3    H164757   5.245   3.380   5.496  1.1202  0.8473  1.4427
14422TIP3    H264758   5.146   3.384   5.611 -0.0360  0.3472  0.4780
14423TIP3   OH264759   4.305   1.001   4.068  0.5437 -0.3618 -0.2098
14423TIP3    H164760   4.262   1.008   4.153 -0.1369 -2.4973 -0.3304
14423TIP3    H264761   4.237   0.968   4.009  1.1668  0.4945 -1.4654
14424TIP3   OH264762   3.276   4.172   2.732 -0.5823  0.0373 -0.0442
14424TIP3    H164763   3.252   4.113   2.660  0.7514  0.5855 -0.9664
14424TIP3    H264764   3.260   4.260   2.698  3.4393  0.5460 -1.1489
14425TIP3   OH264765   2.585   3.705  16.136  0.0121  0.8150  0.0068
14425TIP3    H164766   2.677   3.680  16.142 -0.1809 -0.0081 -0.3055
14425TIP3    H264767   2.577   3.780  16.194  0.5443 -0.1035  1.3179
14426TIP3   OH264768   4.984   2.495   3.900  0.0354  0.1171  0.1428
14426TIP3    H164769   4.908   2.553   3.892 -0.7088 -1.0007 -1.4645
14426TIP3    H264770   5.013   2.481   3.810  2.3295  0.6796  0.7190
14427TIP3   OH264771   6.164   6.044   5.730 -0.5821 -0.3319  0.0453
14427TIP3    H164772   6.081   6.022   5.772 -0.5395 -2.6940 -0.9540
14427TIP3    H264773   6.151   6.024   5.638  0.3911  1.5355 -0.5639
14428TIP3   OH264774   6.682   5.954   1.236 -0.3582 -0.4885  0.2778
14428TIP3    H164775   6.762   5.903   1.244 -0.5200 -0.9419 -0.8129
14428TIP3    H264776   6.642   5.923   1.154 -1.1395  0.4295  0.2969
14429TIP3   OH264777   1.573   1.316  17.633 -0.2788  0.4325  0.8171
14429TIP3    H164778   1.575   1.401  17.676 -1.2279 -0.1425  2.0667
14429TIP3    H264779   1.481   1.301  17.614 -0.1039 -0.2602  0.4882
14430TIP3   OH264780   4.167   1.755   4.188  0.3906  0.7888  0.2752
14430TIP3    H164781   4.088   1.807   4.204  0.1678  0.3776  0.5116
14430TIP3    H264782   4.147   1.706   4.108 -0.1076 -0.3095  1.0568
14431TIP3   OH264783   1.585   2.224  17.465 -0.0468  0.0703  0.1717
14431TIP3    H164784   1.671   2.197  17.499 -0.2139  0.6969  1.1386
14431TIP3    H264785   1.568   2.307  17.509 -0.0029  1.2700 -1.9365
14432TIP3   OH264786   2.512   1.654  11.969 -0.3470 -0.3565  0.8126
14432TIP3    H164787   2.502   1.742  12.006  0.2889 -0.1594  0.5306
14432TIP3    H264788   2.602   1.629  11.990 -0.3988 -0.7774  0.5439
14433TIP3   OH264789   0.704   1.234   5.420  0.3619  0.3985  0.0084
14433TIP3    H164790   0.714   1.252   5.513 -0.2062  0.8832 -0.0185
14433TIP3    H264791   0.682   1.319   5.381  2.4318  0.5823 -0.8605
14434TIP3   OH264792   5.022   3.907  15.711  0.6391 -0.9426  0.0807
14434TIP3    H164793   5.056   3.969  15.646  2.0479 -0.4955  1.1899
14434TIP3    H264794   4.929   3.929  15.719  1.1478  1.3152  0.6901
14435TIP3   OH264795   5.462   0.470  15.290  0.0759  0.0821  0.4337
14435TIP3    H164796   5.461   0.419  15.371  0.0536  1.7021  1.4970
14435TIP3    H264797   5.523   0.423  15.233 -0.8223 -1.7622  0.8945
14436TIP3   OH264798   2.097   4.744   2.498  0.9408 -0.0697  0.0377
14436TIP3    H164799   2.131   4.678   2.437  1.8792 -0.0144  0.4901
14436TIP3    H264800   2.079   4.696   2.578  0.5656  0.0287  0.0166
14437TIP3   OH264801   2.351   5.631   4.303 -0.6714 -0.1463  0.4089
14437TIP3    H164802   2.429   5.684   4.317 -1.5119  1.6905 -1.4163
14437TIP3    H264803   2.385   5.542   4.288  1.1319  0.6888 -0.8104
14438TIP3   OH264804   3.788   2.824  17.524 -0.5740  0.0118  0.1357
14438TIP3    H164805   3.730   2.896  17.501 -1.0041 -1.0197 -2.3458
14438TIP3    H264806   3.870   2.844  17.479  0.5343  0.6400  2.2963
14439TIP3   OH264807   0.810   0.402   5.185  0.2907 -0.1884 -0.0863
14439TIP3    H164808   0.717   0.423   5.199  0.4820 -0.7468  2.7767
14439TIP3    H264809   0.855   0.484   5.204  0.5344 -0.8379  2.5077
14440TIP3   OH264810   5.164   6.193  11.266 -1.4459 -0.2551  0.3226
14440TIP3    H164811   5.202   6.114  11.304 -1.4992 -0.9227 -0.9717
14440TIP3    H264812   5.161   6.176  11.172  1.2239  2.3561 -0.4158
14441TIP3   OH264813   2.222   0.563   5.551 -0.0210 -0.0154 -0.0694
14441TIP3    H164814   2.268   0.615   5.616  1.6757 -1.2244 -0.2307
14441TIP3    H264815   2.174   0.628   5.498  0.2045  1.1493  1.0993
14442TIP3   OH264816   0.871   4.541  12.676 -0.8497  0.4975  0.4497
14442TIP3    H164817   0.885   4.454  12.638 -1.7443  0.0489  1.0980
14442TIP3    H264818   0.919   4.539  12.759 -1.7797  0.2025  1.0006
14443TIP3   OH264819   3.134   4.988  17.567 -0.3149 -0.4457  0.6815
14443TIP3    H164820   3.187   4.944  17.633 -0.3007 -1.1431  0.2178
14443TIP3    H264821   3.074   4.921  17.536 -2.4959  0.6721  2.2113
14444TIP3   OH264822   0.793   3.635   3.474  0.2844  0.1486 -0.0359
14444TIP3    H164823   0.747   3.659   3.554  0.5109  0.8725 -0.1240
14444TIP3    H264824   0.724   3.632   3.407  0.0719 -0.5958  0.1998
14445TIP3   OH264825   0.661   3.539   6.091  0.3226 -0.4533 -0.1823
14445TIP3    H164826   0.621   3.524   6.005  2.6207  0.7941 -1.5660
14445TIP3    H264827   0.730   3.473   6.098  0.9674  0.2351  0.1332
14446TIP3   OH264828   0.060   4.044   2.311 -0.1288 -0.5726 -0.4226
14446TIP3    H164829   0.080   4.086   2.227  0.5617  0.1816  0.1105
14446TIP3    H264830  -0.019   4.089   2.341 -1.0490 -1.6221 -1.1886
14447TIP3   OH264831   3.877   6.365  14.759 -0.1207 -0.2731  0.1324
14447TIP3    H164832   3.902   6.425  14.689  2.5111 -1.3371  0.0355
14447TIP3    H264833   3.882   6.417  14.839 -0.7019  0.3325 -0.2242
14448TIP3   OH264834   3.592   1.622  17.293 -0.5735  0.1670  0.5307
14448TIP3    H164835   3.646   1.692  17.257 -1.2493 -0.1146 -1.1659
14448TIP3    H264836   3.589   1.639  17.387  1.5437  0.7912  0.5242
14449TIP3   OH264837   5.426   3.870  10.924  0.9036 -0.1990 -0.2239
14449TIP3    H164838   5.495   3.803  10.926  0.1902 -0.9757 -0.8678
14449TIP3    H264839   5.472   3.950  10.900  1.6206 -0.6697 -0.4748
14450TIP3   OH264840   5.020   2.624  13.481  0.4188 -0.6393 -0.1000
14450TIP3    H164841   4.998   2.562  13.411  2.1230 -0.4943 -0.8040
14450TIP3    H264842   5.110   2.648  13.464  0.2875  0.8295  1.1103
14451TIP3   OH264843   1.742   1.543   2.883 -0.3108 -0.6213 -0.4494
14451TIP3    H164844   1.662   1.594   2.888 -0.4055 -0.6932 -1.1210
14451TIP3    H264845   1.761   1.537   2.789  0.3488 -0.8039 -0.3121
14452TIP3   OH264846   3.907   2.198  16.042 -0.0239  0.2070 -0.2996
14452TIP3    H164847   3.924   2.166  16.130  0.8774  1.2021 -0.0968
14452TIP3    H264848   3.900   2.293  16.051 -1.6633  0.1783 -1.0408
14453TIP3   OH264849   0.924   6.014  12.972 -0.1388  0.3063  0.3233
14453TIP3    H164850   0.912   6.055  13.058 -1.0567  1.2359 -0.2294
14453TIP3    H264851   0.961   6.084  12.917  0.6343 -0.3388  0.0075
14454TIP3   OH264852   0.949   1.860   5.640  0.4213  0.1820  0.4270
14454TIP3    H164853   0.869   1.811   5.660  0.0162  0.2631 -0.9030
14454TIP3    H264854   0.921   1.951   5.633  0.4825  0.1240 -0.7429
14455TIP3   OH264855   1.606   6.392   3.967 -0.1342 -0.5869  0.4222
14455TIP3    H164856   1.545   6.345   3.910  1.3412 -2.2382  0.0718
14455TIP3    H264857   1.599   6.348   4.051 -0.4401  0.1482  0.7866
14456TIP3   OH264858   6.258   3.018  16.127  0.2717 -0.2742 -0.2247
14456TIP3    H164859   6.252   2.933  16.084  1.1130 -0.1797 -0.5374
14456TIP3    H264860   6.318   3.069  16.072 -2.3012  1.4885 -1.6183
14457TIP3   OH264861   3.312   3.089   0.200 -0.3669 -0.6653 -0.0596
14457TIP3    H164862   3.281   3.004   0.233 -3.2407  0.4238  0.3057
14457TIP3    H264863   3.232   3.137   0.178  1.0247  2.6209  1.3655
14458TIP3   OH264864   4.187   2.013  12.675 -0.0390 -0.2985 -0.4513
14458TIP3    H164865   4.225   1.927  12.694  0.8933  0.1672 -0.1816
14458TIP3    H264866   4.209   2.066  12.751 -0.8584  0.1134 -0.4902
14459TIP3   OH264867   3.889   5.575   6.209  0.3917 -0.0696 -0.0309
14459TIP3    H164868   3.838   5.641   6.164  0.6222 -0.0689 -0.2905
14459TIP3    H264869   3.872   5.591   6.302 -1.0325 -0.8248 -0.1330
14460TIP3   OH264870   5.564   3.940  17.679 -0.1286  0.4055 -0.4684
14460TIP3    H164871   5.500   3.899  17.621 -0.9750 -0.4878  1.0036
14460TIP3    H264872   5.515   4.011  17.722  0.4664  1.0307 -0.8127
14461TIP3   OH264873   1.612   4.622   4.990 -0.0125 -0.2425  0.2229
14461TIP3    H164874   1.541   4.558   4.983  0.5327 -1.1586  2.3469
14461TIP3    H264875   1.580   4.686   5.054  0.4344  0.2372 -0.0343
14462TIP3   OH264876   0.104   2.332   4.075 -0.2522  0.3535  0.2634
14462TIP3    H164877   0.163   2.400   4.042  1.2918 -1.1548 -0.2458
14462TIP3    H264878   0.086   2.277   3.998  1.1545 -1.6262  1.2510
14463TIP3   OH264879   5.494   0.325   5.969  0.0788  0.0318  0.1024
14463TIP3    H164880   5.542   0.283   5.897 -0.5756  0.6377 -0.7059
14463TIP3    H264881   5.530   0.414   5.973 -0.7938  0.4149 -0.3554
14464TIP3   OH264882   2.934   1.999  15.086  0.2046 -0.4052  0.7216
14464TIP3    H164883   2.990   2.015  15.162 -0.2697 -1.4491  1.3052
14464TIP3    H264884   2.860   2.058  15.098 -0.4762 -1.4343  1.7274
14465TIP3   OH264885   1.397   4.723   3.536 -0.7230  0.0639  0.1619
14465TIP3    H164886   1.441   4.639   3.523 -0.1143 -0.1406  2.8317
14465TIP3    H264887   1.468   4.786   3.551 -1.2265  0.5313  0.6556
14466TIP3   OH264888   0.521   6.175   6.152 -0.0907  0.7072  0.1210
14466TIP3    H164889   0.586   6.159   6.221  0.0809  0.5990 -0.0639
14466TIP3    H264890   0.567   6.153   6.071 -1.5681 -3.4459  0.1798
14467TIP3   OH264891   5.301   0.929   4.200 -0.3255  0.1406 -0.6378
14467TIP3    H164892   5.381   0.973   4.230 -0.1814 -0.4505 -0.1303
14467TIP3    H264893   5.284   0.863   4.267 -1.8784  0.9919 -0.1495
14468TIP3   OH264894   0.231   6.707  11.979  0.1117  0.0979  0.2201
14468TIP3    H164895   0.178   6.740  11.906 -0.3234 -0.8550  0.0762
14468TIP3    H264896   0.168   6.696  12.050  0.3289  0.0085  0.3969
14469TIP3   OH264897   3.371   2.927   0.483  0.0674  0.2613  0.8003
14469TIP3    H164898   3.357   2.884   0.399  0.8219 -0.3806  0.9922
14469TIP3    H264899   3.360   2.858   0.548  0.2101  0.5918  1.1806
14470TIP3   OH264900   0.915   2.157   1.755 -0.1721 -0.1564  0.1772
14470TIP3    H164901   0.953   2.168   1.842  0.1970 -2.9209  0.4797
14470TIP3    H264902   0.822   2.176   1.767 -0.0209  0.0657  1.0517
14471TIP3   OH264903   3.699   0.301  15.049 -0.2099 -0.0522 -0.1782
14471TIP3    H164904   3.677   0.229  15.108  1.0060 -1.6302 -1.5277
14471TIP3    H264905   3.762   0.354  15.098  1.7723 -2.0418 -0.4011
14472TIP3   OH264906   2.105   4.126   2.273  0.0418 -0.2176  0.2731
14472TIP3    H164907   2.199   4.126   2.289  0.2118  0.3248 -0.5969
14472TIP3    H264908   2.088   4.043   2.229  0.3341  0.1820 -0.6274
14473TIP3   OH264909   3.580   4.373  12.804  0.2536 -0.5039 -0.0315
14473TIP3    H164910   3.509   4.310  12.802  1.8757 -2.6819  2.5964
14473TIP3    H264911   3.659   4.321  12.789  1.4907  1.4183 -0.6042
14474TIP3   OH264912   1.955   2.799   1.481 -0.2061  0.6519  0.4322
14474TIP3    H164913   1.903   2.878   1.493  1.3630  1.4821  2.3358
14474TIP3    H264914   2.016   2.799   1.555  1.8294 -0.7718 -1.1185
14475TIP3   OH264915   4.457   4.367   2.507  0.0238  0.1499 -0.0557
14475TIP3    H164916   4.491   4.279   2.525 -0.7191  0.1103  1.3434
14475TIP3    H264917   4.523   4.426   2.544  1.1383  0.2601 -2.0964
14476TIP3   OH264918   4.045   0.132   1.160  0.1274 -0.2971 -0.3190
14476TIP3    H164919   4.128   0.177   1.177  0.4140 -0.8787 -0.1419
14476TIP3    H264920   4.035   0.073   1.235 -0.4875 -0.1736 -0.3055
14477TIP3   OH264921   0.610   0.276   0.288 -0.0809  0.1223 -0.0942
14477TIP3    H164922   0.615   0.239   0.376 -1.2396  0.2821  0.0479
14477TIP3    H264923   0.634   0.368   0.299  0.1009  0.0663 -0.0081
14478TIP3   OH264924   0.111   6.380   5.972  0.2191  0.3861 -0.0316
14478TIP3    H164925   0.198   6.400   6.007 -1.3071  1.1804  3.8169
14478TIP3    H264926   0.116   6.288   5.947  1.6220 -0.2175  2.2096
14479TIP3   OH264927   1.855   3.678  11.886  0.1979 -0.5900 -0.2691
14479TIP3    H164928   1.940   3.701  11.922  0.5374 -1.5734 -0.4101
14479TIP3    H264929   1.792   3.718  11.946  0.7563  0.2163 -0.2136
14480TIP3   OH264930   3.557   2.636   4.271 -0.2486  0.3276  0.9920
14480TIP3    H164931   3.555   2.599   4.359 -1.8283 -2.2710 -0.0181
14480TIP3    H264932   3.482   2.696   4.268 -0.8137 -0.3502  1.1581
14481TIP3   OH264933   4.802   4.007  12.059  0.1738 -0.0976 -0.0420
14481TIP3    H164934   4.896   4.005  12.078  0.5462  0.6175 -1.6525
14481TIP3    H264935   4.774   4.094  12.088  0.0746 -0.2033  0.1764
14482TIP3   OH264936   3.172   4.346  12.129 -0.3150 -0.2093  0.1617
14482TIP3    H164937   3.254   4.343  12.178  0.3834 -0.5146 -0.9903
14482TIP3    H264938   3.132   4.429  12.153  0.9444  0.5246 -0.1981
14483TIP3   OH264939   2.876   5.937  16.987 -0.7517  0.2424  0.5266
14483TIP3    H164940   2.941   6.007  16.973 -0.1531 -0.3530  0.2546
14483TIP3    H264941   2.898   5.871  16.921 -2.0383  0.3096  0.0175
14484TIP3   OH264942   1.083   3.036  17.096  0.4900  0.4272  0.0696
14484TIP3    H164943   1.007   3.094  17.099  0.5336  0.5488 -0.7623
14484TIP3    H264944   1.126   3.048  17.180 -1.4732 -1.1092  1.3966
14485TIP3   OH264945   2.900   5.937  14.400  0.2048 -0.6260 -0.3517
14485TIP3    H164946   2.892   6.003  14.469 -1.7951 -0.4484 -0.6730
14485TIP3    H264947   2.879   5.854  14.443 -1.0038 -0.5204 -0.6882
14486TIP3   OH264948   0.088   4.908  12.447  0.4260  0.1326  0.1983
14486TIP3    H164949   0.099   4.832  12.504 -0.7842 -1.8369 -2.0189
14486TIP3    H264950   0.007   4.949  12.479  0.1188 -0.5496  0.3193
14487TIP3   OH264951   5.719   2.640   3.119  0.0869  0.1298 -0.0274
14487TIP3    H164952   5.787   2.574   3.106  1.9430  1.3656  2.4467
14487TIP3    H264953   5.757   2.721   3.083 -0.8175  0.4672 -0.2289
14488TIP3   OH264954   0.824   2.886  16.003  0.0255 -0.3388 -0.6551
14488TIP3    H164955   0.841   2.793  16.015  0.7295 -0.1950 -0.4760
14488TIP3    H264956   0.909   2.928  16.017 -0.1988  0.2952 -1.1461
14489TIP3   OH264957   4.606   5.146   2.914  0.2043  0.0855 -0.5326
14489TIP3    H164958   4.642   5.158   3.003 -1.6360 -0.3951  0.3212
14489TIP3    H264959   4.568   5.231   2.893 -2.6220 -0.7364  0.7429
14490TIP3   OH264960   2.999   1.657  14.703 -0.3383 -0.1658 -0.2022
14490TIP3    H164961   2.951   1.683  14.782 -0.9643 -0.7411 -0.3806
14490TIP3    H264962   3.089   1.685  14.719 -0.4297 -0.3995  0.7738
14491TIP3   OH264963   5.711   6.364   5.868 -0.4711 -0.0685  0.0587
14491TIP3    H164964   5.761   6.379   5.948  1.2938  0.6272 -1.1035
14491TIP3    H264965   5.626   6.405   5.885  0.0336  0.4936  1.3872
14492TIP3   OH264966   3.915   3.574  17.446  0.3691  0.6281 -0.5856
14492TIP3    H164967   3.957   3.611  17.523  1.5703  0.9072 -1.3567
14492TIP3    H264968   3.890   3.485  17.472 -1.9306  1.6664  1.0603
14493TIP3   OH264969   6.362   0.581  17.664  0.0204  0.1646 -0.8493
14493TIP3    H164970   6.438   0.563  17.608 -0.1483 -1.1307 -0.6999
14493TIP3    H264971   6.303   0.631  17.608  0.3111 -0.1997 -1.4969
14494TIP3   OH264972   0.797   0.033   0.251 -0.1286 -0.1371  0.3746
14494TIP3    H164973   0.833   0.017   0.338 -1.0478  0.8185  0.9497
14494TIP3    H264974   0.747   0.114   0.260 -1.3040 -0.7056 -0.7185
14495TIP3   OH264975   3.578   1.953  17.157  0.2534 -0.3495 -0.4366
14495TIP3    H164976   3.548   1.990  17.074 -1.0704 -0.0695  0.1402
14495TIP3    H264977   3.648   1.892  17.132 -0.9393 -1.1986 -1.8909
14496TIP3   OH264978   2.289   5.882  13.532  0.4282  0.4208 -0.0658
14496TIP3    H164979   2.215   5.834  13.497  0.4204  0.5554 -0.2341
14496TIP3    H264980   2.257   5.972  13.542  0.1691  0.2199  1.0542
14497TIP3   OH264981   4.683   2.078  17.473 -0.0143 -0.7435 -0.3549
14497TIP3    H164982   4.667   2.112  17.385 -0.1816 -1.2065 -0.5069
14497TIP3    H264983   4.776   2.094  17.488 -0.4118  1.2588  0.2298
14498TIP3   OH264984   1.998   1.957   3.451  0.3518 -0.1376  0.2723
14498TIP3    H164985   2.016   2.051   3.461 -0.1617  0.0632 -0.5777
14498TIP3    H264986   1.932   1.938   3.517 -0.8414  0.5085 -0.6759
14499TIP3   OH264987   4.596   5.847   3.192 -0.3402 -0.2166 -0.0649
14499TIP3    H164988   4.611   5.770   3.137  0.3598 -0.0015 -0.1859
14499TIP3    H264989   4.511   5.831   3.232 -0.6762 -0.5662 -0.8967
14500TIP3   OH264990   3.593   0.244   5.497  0.7196  0.5451  0.5159
14500TIP3    H164991   3.512   0.201   5.524  0.5809  0.6295  0.2309
14500TIP3    H264992   3.652   0.172   5.474  0.1024  0.5132 -1.0978
14501TIP3   OH264993   0.084   2.593   6.019  0.1826 -0.0378  0.5946
14501TIP3    H164994   0.063   2.562   5.931  0.5646  2.4517 -0.4633
14501TIP3    H264995   0.013   2.561   6.074 -1.8319  1.0088 -1.2654
14502TIP3   OH264996   4.062   4.184  13.933  0.7753  0.1909 -0.3577
14502TIP3    H164997   4.065   4.240  14.011  1.3082 -1.8231  1.1658
14502TIP3    H264998   4.144   4.134  13.937 -0.4802 -2.0117 -0.5490
14503TIP3   OH264999   2.728   5.431  14.352 -0.2495 -0.2194 -0.8118
14503TIP3    H165000   2.752   5.341  14.329  0.2808 -0.4061  0.3905
14503TIP3    H265001   2.811   5.478  14.359 -0.4276  0.0118 -0.0810
14504TIP3   OH265002   0.718   5.155  13.638  0.5192 -0.5293  0.2180
14504TIP3    H165003   0.790   5.171  13.576  0.6097  0.3732  0.5376
14504TIP3    H265004   0.667   5.085  13.597  1.3395 -0.8979 -0.2186
14505TIP3   OH265005   2.449   4.534   2.348 -0.4046 -0.1917  0.2738
14505TIP3    H165006   2.530   4.484   2.351 -0.7581 -0.8039 -0.0984
14505TIP3    H265007   2.465   4.603   2.284 -0.1975 -0.3568  0.1479
14506TIP3   OH265008   5.709   6.709   3.645  0.2134 -0.1066  0.0013
14506TIP3    H165009   5.674   6.639   3.589 -1.4164  0.3776  0.3660
14506TIP3    H265010   5.703   6.675   3.734  1.4740 -0.3197  0.0305
14507TIP3   OH265011   1.027   1.964  13.219 -0.3197 -0.7608 -0.1802
14507TIP3    H165012   1.027   2.040  13.160  1.6501 -0.8768 -0.3979
14507TIP3    H265013   0.998   1.999  13.303  1.5092  0.5059 -0.0130
14508TIP3   OH265014   4.977   5.173  12.311  0.0515  0.5858 -0.4887
14508TIP3    H165015   5.070   5.174  12.334  0.3278  1.0368 -1.5772
14508TIP3    H265016   4.932   5.156  12.394  1.1098  0.1843  0.0181
14509TIP3   OH265017   2.150   1.327  16.373 -0.1676 -0.0505  0.6655
14509TIP3    H165018   2.057   1.352  16.375 -0.0034  0.5513  1.0398
14509TIP3    H265019   2.155   1.250  16.429 -0.9139 -1.8046 -1.5183
14510TIP3   OH265020   5.836   5.281   2.867  0.3388  0.7045  0.2827
14510TIP3    H165021   5.904   5.219   2.895 -0.0733 -0.6098 -1.4350
14510TIP3    H265022   5.807   5.248   2.782 -2.1201  1.5065  0.7278
14511TIP3   OH265023   5.548   2.102   6.077  0.5579 -0.1184  0.5443
14511TIP3    H165024   5.619   2.166   6.069  0.4295  0.7438  4.3774
14511TIP3    H265025   5.589   2.019   6.051  2.0551  0.8168 -0.2456
14512TIP3   OH265026   6.565   5.051   3.341  0.1164  0.4308  1.0331
14512TIP3    H165027   6.553   5.123   3.279  1.1891  0.7863  1.2107
14512TIP3    H265028   6.478   5.013   3.351  0.1914 -0.8675 -2.1465
14513TIP3   OH265029   0.735   0.390   2.345  0.1892  0.5715  0.3281
14513TIP3    H165030   0.766   0.480   2.354  0.3097  0.6111 -0.4360
14513TIP3    H265031   0.807   0.344   2.302  0.1396  0.0956  0.7435
14514TIP3   OH265032   1.307   0.577  11.868 -0.1243 -0.0707  0.3969
14514TIP3    H165033   1.398   0.553  11.853 -0.3881 -0.8347 -0.0597
14514TIP3    H265034   1.305   0.611  11.958  1.2260  3.1948 -0.6770
14515TIP3   OH265035   6.403   1.355   0.790 -0.0150 -0.2262  0.3887
14515TIP3    H165036   6.376   1.291   0.856 -0.6800  0.8704  1.2134
14515TIP3    H265037   6.362   1.325   0.709 -1.4157 -0.1503  1.0332
14516TIP3   OH265038   1.515   2.131  15.590 -0.8567  0.2178  0.5581
14516TIP3    H165039   1.527   2.139  15.495  0.2833  0.5400  0.7153
14516TIP3    H265040   1.604   2.127  15.625 -1.2712 -0.1170  1.6019
14517TIP3   OH265041   2.318   2.485   5.369  0.2417 -0.6037 -0.6942
14517TIP3    H165042   2.299   2.438   5.450 -1.6786  2.1649  0.6300
14517TIP3    H265043   2.302   2.422   5.299 -0.2577 -2.4315  0.9949
14518TIP3   OH265044   0.480   6.528   0.743  0.4555  0.8322 -0.1222
14518TIP3    H165045   0.555   6.587   0.733  0.7474  0.5192  0.1599
14518TIP3    H265046   0.516   6.441   0.726  0.1475  0.6819 -0.0117
14519TIP3   OH265047   3.468   0.469  14.058  0.0841  0.0771 -0.3582
14519TIP3    H165048   3.544   0.449  14.003  0.1935 -1.0122  0.1632
14519TIP3    H265049   3.452   0.389  14.108 -1.3230  0.3375 -0.3428
14520TIP3   OH265050   1.443   2.461   2.276  0.2272 -0.1432  0.4537
14520TIP3    H165051   1.504   2.503   2.337 -0.0026  0.3949  0.3158
14520TIP3    H265052   1.486   2.379   2.252  1.4456  0.7707 -0.5781
14521TIP3   OH265053   1.838   6.224   4.013  0.1199 -0.2296 -0.3023
14521TIP3    H165054   1.886   6.210   3.931 -1.1669  1.7349 -1.4684
14521TIP3    H265055   1.756   6.265   3.986 -1.7886 -2.4152  1.7385
14522TIP3   OH265056   0.946   5.700  17.012  0.3746 -0.3435  0.1436
14522TIP3    H165057   0.873   5.760  17.025 -0.3812 -1.2355  0.1141
14522TIP3    H265058   1.023   5.751  17.036 -0.1753  0.8386 -0.4739
14523TIP3   OH265059   5.512   0.215  13.189  0.0301  0.3033 -0.4015
14523TIP3    H165060   5.451   0.141  13.187  0.5949 -0.2927  1.8809
14523TIP3    H265061   5.468   0.283  13.138 -2.3772 -0.2370  0.7843
14524TIP3   OH265062   0.378   6.115   4.511 -0.6131 -0.5127  0.3064
14524TIP3    H165063   0.299   6.067   4.536 -0.9703  0.9961  2.3055
14524TIP3    H265064   0.348   6.174   4.442 -0.9158 -0.8631  0.1290
14525TIP3   OH265065   2.424   4.579   5.059 -0.1302  0.5255 -0.2085
14525TIP3    H165066   2.511   4.564   5.022 -0.4326 -0.2102 -0.6363
14525TIP3    H265067   2.425   4.671   5.086  1.1431  0.2395  0.7983
14526TIP3   OH265068   5.934   4.613  15.329  0.0446  0.9108  0.5610
14526TIP3    H165069   5.953   4.606  15.235 -0.1378  2.6968  0.3537
14526TIP3    H265070   6.017   4.639  15.368  0.3400 -0.6749  1.0516
14527TIP3   OH265071   5.284   1.988   0.065  0.0524  0.0336 -0.2828
14527TIP3    H165072   5.204   1.989   0.118  0.3920  4.6050  0.5115
14527TIP3    H265073   5.355   1.989   0.129  0.7683 -1.6497 -0.9843
14528TIP3   OH265074   6.540   1.182   3.935 -0.2401  0.3044  0.2011
14528TIP3    H165075   6.526   1.090   3.957  1.5567 -0.0891 -0.1731
14528TIP3    H265076   6.629   1.201   3.966  0.7705  0.9330 -2.7862
14529TIP3   OH265077   4.120   2.711   0.704 -0.0356  0.1079  0.3020
14529TIP3    H165078   4.191   2.762   0.744  0.5465 -2.3178  2.6388
14529TIP3    H265079   4.159   2.676   0.623  1.7842 -1.6231  1.7999
14530TIP3   OH265080   2.556   0.183  13.628  0.0038  0.1910  0.2371
14530TIP3    H165081   2.477   0.227  13.658 -0.2659 -0.8412  1.0895
14530TIP3    H265082   2.540   0.166  13.535 -1.1782 -0.8343  0.6085
14531TIP3   OH265083   5.476   5.716   0.810  0.9069 -0.0834  0.5589
14531TIP3    H165084   5.402   5.726   0.750 -0.4854 -0.3993  2.1825
14531TIP3    H265085   5.532   5.650   0.767 -1.0345 -1.7864  0.4856
14532TIP3   OH265086   0.956   5.286  13.533  0.1359  0.5542 -0.8910
14532TIP3    H165087   0.934   5.379  13.534 -1.7819  0.1614  1.4341
14532TIP3    H265088   1.052   5.284  13.536  0.1869  2.4660  0.2021
14533TIP3   OH265089   6.617   5.035  16.399 -0.0749 -0.6157  0.8330
14533TIP3    H165090   6.684   4.976  16.365 -0.4325  0.7942 -2.7815
14533TIP3    H265091   6.549   4.976  16.434  0.3706 -2.3215 -0.9848
14534TIP3   OH265092   6.612   1.124   1.820 -1.0240 -0.1573  0.0000
14534TIP3    H165093   6.621   1.163   1.733 -2.0866 -0.1170 -0.1061
14534TIP3    H265094   6.664   1.180   1.878  1.6519 -1.5040 -0.9439
14535TIP3   OH265095   1.309   6.227   4.228 -0.4336  0.1457  0.1829
14535TIP3    H165096   1.359   6.146   4.240  1.0867  1.2158  1.5760
14535TIP3    H265097   1.218   6.200   4.234  0.0501 -1.2512  2.6791
14536TIP3   OH265098   3.948   3.023   0.002  0.2682  0.5891  0.0071
14536TIP3    H165099   3.907   2.953   0.054 -0.5187 -0.2418 -1.6442
14536TIP3    H265100   3.879   3.089  -0.006 -0.4792 -0.3226 -1.8490
14537TIP3   OH265101   0.202   6.110   0.378 -0.1476  0.4798  0.1773
14537TIP3    H165102   0.259   6.120   0.454  1.5044  1.8138 -1.1454
14537TIP3    H265103   0.159   6.025   0.390  2.4814 -0.8078  1.0347
14538TIP3   OH265104   0.606   1.905   0.885  0.0885 -0.0677  0.6851
14538TIP3    H165105   0.547   1.830   0.895  0.0476 -0.1788 -0.3219
14538TIP3    H265106   0.675   1.890   0.949  0.0906 -0.9763  0.4856
14539TIP3   OH265107   6.636   3.397   3.254 -0.6724 -0.3698  0.1732
14539TIP3    H165108   6.590   3.351   3.183  1.3015 -0.7600 -0.9406
14539TIP3    H265109   6.631   3.338   3.329 -2.4245 -0.1480  0.2678
14540TIP3   OH265110   5.904   2.371  14.732 -0.1207  0.2928  0.1463
14540TIP3    H165111   5.965   2.374  14.658  1.9672 -0.6728  1.7192
14540TIP3    H265112   5.850   2.294  14.716  0.6489 -0.1955 -0.1419
14541TIP3   OH265113   6.434   6.419  14.001  0.3541  0.4860  0.4541
14541TIP3    H165114   6.377   6.347  14.030  0.7564  0.0624  0.2116
14541TIP3    H265115   6.484   6.444  14.079  2.1417 -1.3048 -0.0317
14542TIP3   OH265116   4.632   0.941   5.734  0.1054 -0.2718 -0.0276
14542TIP3    H165117   4.726   0.948   5.717  0.6119 -0.6626  2.2419
14542TIP3    H265118   4.598   0.893   5.659  1.5312  0.7190 -1.3805
14543TIP3   OH265119   0.373   5.834  13.054  0.0791 -0.6437 -0.6295
14543TIP3    H165120   0.350   5.853  13.145  1.8914 -0.6019 -0.1281
14543TIP3    H265121   0.298   5.864  13.003  0.3129  2.4066  0.6009
14544TIP3   OH265122   0.240   3.829   2.003  0.4844  0.4940 -0.5299
14544TIP3    H165123   0.262   3.752   2.055  0.6917 -0.4733 -1.9697
14544TIP3    H265124   0.319   3.847   1.952 -0.2659  0.3038 -1.8084
14545TIP3   OH265125   4.287   6.216  17.305  0.4878 -0.2647 -0.1221
14545TIP3    H165126   4.301   6.297  17.256  0.7897  0.1037  0.5560
14545TIP3    H265127   4.197   6.223  17.337  1.0178  0.5486  1.2584
14546TIP3   OH265128   1.672   4.466  13.539 -0.3982  0.0972  0.1932
14546TIP3    H165129   1.676   4.533  13.470  4.4050 -0.4042 -0.4051
14546TIP3    H265130   1.648   4.514  13.618 -1.8599  1.5058 -1.0345
14547TIP3   OH265131   1.568   1.275   4.365  0.3300 -0.1976 -0.1850
14547TIP3    H165132   1.643   1.331   4.345 -1.2342  2.4733  0.7929
14547TIP3    H265133   1.588   1.238   4.451  1.4911 -1.4321 -0.9453
14548TIP3   OH265134   5.591   3.208  14.427  0.3523 -0.3906  0.1465
14548TIP3    H165135   5.582   3.186  14.334 -0.2786 -3.3046  0.7871
14548TIP3    H265136   5.673   3.167  14.453 -0.2319 -0.9426  1.1786
14549TIP3   OH265137   3.302   1.916  12.938 -0.5862 -0.0292 -0.3671
14549TIP3    H165138   3.280   1.954  13.023  0.7289 -2.1305  0.9863
14549TIP3    H265139   3.397   1.910  12.938 -0.4714  0.8347 -2.4513
14550TIP3   OH265140   0.106   3.967  16.487  0.5270 -0.3336 -0.3011
14550TIP3    H165141   0.069   4.055  16.496  2.3534  0.3566  0.9305
14550TIP3    H265142   0.109   3.952  16.392  2.0533  1.7981 -0.6638
14551TIP3   OH265143   0.004   3.010  15.431 -0.8609 -0.0462 -0.4075
14551TIP3    H165144   0.002   2.944  15.500  0.4263  0.2154 -0.0978
14551TIP3    H265145   0.046   3.086  15.471 -0.1897  0.1485 -1.4315
14552TIP3   OH265146   0.387   6.588   2.048  0.0954  0.0932  0.0311
14552TIP3    H165147   0.301   6.595   2.089 -0.1361 -0.8734 -0.2646
14552TIP3    H265148   0.414   6.679   2.034 -0.0996  0.4419  1.7019
14553TIP3   OH265149   6.557   3.651   1.437  0.4442  0.4658 -0.1435
14553TIP3    H165150   6.607   3.667   1.518  0.0242  0.6241  0.0851
14553TIP3    H265151   6.609   3.586   1.390  0.5461  0.1544  0.3900
14554TIP3   OH265152   1.957   5.513   6.369 -0.3737 -0.2937 -0.0112
14554TIP3    H165153   2.018   5.583   6.393  0.1310 -0.4860 -0.7106
14554TIP3    H265154   1.898   5.506   6.444  1.5853 -1.3721  1.4949
14555TIP3   OH265155   1.741   5.580   4.440 -0.4939 -0.0273  0.1070
14555TIP3    H165156   1.827   5.592   4.399  0.0816 -1.0181  0.9646
14555TIP3    H265157   1.678   5.601   4.371  0.4243  0.6713 -0.5546
14556TIP3   OH265158   5.839   6.700   5.423  0.1447 -0.1550 -0.4379
14556TIP3    H165159   5.900   6.674   5.355  0.3527  1.8519 -1.0933
14556TIP3    H265160   5.774   6.754   5.378  1.1810  2.6116  1.0857
14557TIP3   OH265161   2.909   4.130   2.304  0.3962  0.0991  0.5858
14557TIP3    H165162   2.855   4.147   2.381 -1.4208 -0.4479 -0.5226
14557TIP3    H265163   2.898   4.207   2.249 -0.3783 -0.5864 -0.2518
14558TIP3   OH265164   4.798   0.582  13.068 -0.3050 -0.2544 -0.0090
14558TIP3    H165165   4.884   0.541  13.071  0.0236  0.4213 -0.0096
14558TIP3    H265166   4.776   0.598  13.160  1.0645  2.5873 -0.0759
14559TIP3   OH265167   6.656   1.917   1.452  0.4035 -0.5499  0.2572
14559TIP3    H165168   6.700   1.949   1.373 -0.1847 -0.3275  0.0063
14559TIP3    H265169   6.677   1.824   1.456 -0.2395 -0.7512 -0.6432
14560TIP3   OH265170   0.977   2.008  17.258  0.4212 -0.3617  0.8282
14560TIP3    H165171   1.069   2.006  17.231  0.8603 -0.8197  2.2462
14560TIP3    H265172   0.980   2.002  17.353 -1.0787  0.0073  0.9269
14561TIP3   OH265173   6.392   1.333   4.559  0.0476 -0.3413 -0.2958
14561TIP3    H165174   6.320   1.397   4.561  2.2825  2.3654  1.2829
14561TIP3    H265175   6.392   1.294   4.647  0.2522 -0.6264 -0.4212
14562TIP3   OH265176   1.495   2.548   6.215 -0.2798 -0.3060  0.7939
14562TIP3    H165177   1.584   2.555   6.180 -0.4886  0.4300  0.3918
14562TIP3    H265178   1.505   2.564   6.309 -0.0156  0.0803  0.7049
14563TIP3   OH265179   1.235   4.068   6.960 -0.0200  0.1250  0.3287
14563TIP3    H165180   1.155   4.112   6.931  0.5927 -1.3975 -4.6333
14563TIP3    H265181   1.204   3.991   7.008 -1.3686  1.2323  1.3012
14564TIP3   OH265182   6.526   2.010   5.586 -0.3133 -0.1030 -0.2253
14564TIP3    H165183   6.480   1.967   5.658 -1.0473 -0.2974 -0.7976
14564TIP3    H265184   6.466   2.077   5.556  0.5043  0.8218  0.1474
14565TIP3   OH265185   0.571   3.505   0.937  0.6341 -0.1726  0.6657
14565TIP3    H165186   0.597   3.478   1.025  0.3639 -0.1334  0.7603
14565TIP3    H265187   0.478   3.481   0.932  0.7897 -0.6930  0.1893
14566TIP3   OH265188   6.587   0.052  11.273 -0.0921  0.5104  0.3368
14566TIP3    H165189   6.561   0.141  11.249  1.7447  0.9280 -0.2726
14566TIP3    H265190   6.668   0.037  11.225  0.0830 -1.1897  1.0859
14567TIP3   OH265191   4.558   3.532   2.316 -0.1219  0.1550  0.0279
14567TIP3    H165192   4.625   3.600   2.328 -0.8587  0.7318  1.0205
14567TIP3    H265193   4.527   3.514   2.405 -0.6088 -0.8048 -0.3298
14568TIP3   OH265194   0.313   2.576  12.812  0.3782  0.3393  0.1861
14568TIP3    H165195   0.347   2.666  12.808 -0.9477  0.9966  2.1371
14568TIP3    H265196   0.380   2.527  12.860 -0.7435  1.3611  2.9915
14569TIP3   OH265197   1.819   2.860   0.618  0.1250  0.7667 -0.7333
14569TIP3    H165198   1.878   2.790   0.589 -1.6997 -0.4154 -1.8440
14569TIP3    H265199   1.832   2.865   0.713 -0.5027 -1.9981 -0.4006
14570TIP3   OH265200   1.950   2.198  13.359  0.2113  0.1502  0.3179
14570TIP3    H165201   1.898   2.122  13.381  1.2612 -0.8060 -0.3493
14570TIP3    H265202   1.941   2.257  13.434 -0.9775 -0.4200  0.6431
14571TIP3   OH265203   1.134   0.145  15.600 -0.2818  0.7044  1.1424
14571TIP3    H165204   1.042   0.172  15.605  0.1253  2.1427  1.2912
14571TIP3    H265205   1.183   0.228  15.594  0.8832 -0.0568 -1.0999
14572TIP3   OH265206   5.895   0.003  12.297 -0.4440 -0.0518  0.1938
14572TIP3    H165207   5.963  -0.036  12.242  0.2581  0.0688  0.9662
14572TIP3    H265208   5.924   0.093  12.312 -1.2230  0.2775 -0.1972
14573TIP3   OH265209   2.540   5.566  16.314 -0.2605  0.1241  0.0814
14573TIP3    H165210   2.514   5.554  16.405 -0.7516  2.4493  0.3141
14573TIP3    H265211   2.540   5.478  16.277  0.5820 -0.9813  2.4693
14574TIP3   OH265212   0.798   1.182  12.588 -0.0018 -0.0715 -0.1179
14574TIP3    H165213   0.753   1.139  12.515  1.0196 -0.1368 -0.7290
14574TIP3    H265214   0.838   1.110  12.637  0.3848  0.0664 -0.2293
14575TIP3   OH265215   0.143   2.500   4.575  0.4385 -0.2632  0.0458
14575TIP3    H165216   0.057   2.497   4.533  0.2389  1.3497  0.2737
14575TIP3    H265217   0.201   2.454   4.514 -0.3985 -0.5509 -0.5604
14576TIP3   OH265218   2.284   0.447   2.019 -0.6061 -0.0923 -0.2059
14576TIP3    H165219   2.379   0.453   2.028 -0.5453 -1.4943  0.2661
14576TIP3    H265220   2.266   0.485   1.933  0.3925  0.0062 -0.3832
14577TIP3   OH265221   1.431   1.776  15.795 -0.1123  0.0141 -0.1767
14577TIP3    H165222   1.366   1.764  15.864 -0.1774 -1.7645 -0.5124
14577TIP3    H265223   1.400   1.721  15.723  1.1714  0.0186 -0.7552
14578TIP3   OH265224   5.970   3.770  13.800 -0.1025 -0.3164  0.1212
14578TIP3    H165225   5.970   3.741  13.891  1.5118 -0.1604  0.1971
14578TIP3    H265226   5.952   3.691  13.749 -3.3952 -0.0202  0.6016
14579TIP3   OH265227   1.257   6.574   4.514 -0.1005  0.4058  0.3217
14579TIP3    H165228   1.170   6.571   4.475  0.7928  0.7886 -1.8283
14579TIP3    H265229   1.276   6.667   4.525 -0.1951  0.3101  1.3682
14580TIP3   OH265230   1.623   2.354   4.124  0.3250  0.2491 -0.1811
14580TIP3    H165231   1.710   2.384   4.152  0.6155 -1.1598  0.5360
14580TIP3    H265232   1.588   2.426   4.072  2.3009  0.4795 -1.2755
14581TIP3   OH265233   1.977   3.199   1.692 -0.5514 -0.0494 -0.2514
14581TIP3    H165234   1.911   3.264   1.718  0.1639  0.9325 -0.8143
14581TIP3    H265235   2.008   3.230   1.607  1.7139  0.3772  0.6730
14582TIP3   OH265236   2.464   3.858  17.076 -0.8621 -0.2963  0.1246
14582TIP3    H165237   2.423   3.773  17.063  0.3440 -0.6671 -1.4689
14582TIP3    H265238   2.479   3.892  16.987  1.6600  0.1094  0.6264
14583TIP3   OH265239   1.898   5.235   4.737  0.7281  0.2403 -0.4718
14583TIP3    H165240   1.885   5.229   4.832 -0.4239  1.7421 -0.4951
14583TIP3    H265241   1.920   5.146   4.711  0.3640 -0.3619  1.1149
14584TIP3   OH265242   3.599   0.343  12.845 -0.6100 -0.0471 -0.0529
14584TIP3    H165243   3.593   0.271  12.907  0.6083 -0.4272 -0.3538
14584TIP3    H265244   3.508   0.363  12.822 -1.0044 -0.7747  0.8363
14585TIP3   OH265245   4.550   3.399   1.913 -0.3194  0.3568 -0.1687
14585TIP3    H165246   4.456   3.402   1.926 -0.2312 -0.6893  0.9015
14585TIP3    H265247   4.564   3.331   1.848 -0.2638 -0.0960  0.3080
14586TIP3   OH265248   3.831   1.385   5.517 -0.1867  0.3945 -0.3187
14586TIP3    H165249   3.739   1.400   5.537  0.2216  0.9476  1.3608
14586TIP3    H265250   3.854   1.455   5.456 -1.3681 -1.0253 -2.4986
14587TIP3   OH265251   6.105   5.767  16.940 -0.2103 -0.2672  0.3411
14587TIP3    H165252   6.113   5.784  17.034 -1.8704 -0.4424  0.5533
14587TIP3    H265253   6.110   5.671  16.933  1.0326 -0.2002  0.1002
14588TIP3   OH265254   2.106   4.489  11.449 -0.2822  0.5454 -0.0357
14588TIP3    H165255   2.019   4.512  11.418 -0.1153  0.5445 -0.5083
14588TIP3    H265256   2.148   4.447  11.375  0.1438  0.6030  0.1682
14589TIP3   OH265257   5.146   5.051  13.593  0.7170  0.4982 -0.2942
14589TIP3    H165258   5.079   5.101  13.638  1.7649  0.8625  0.9318
14589TIP3    H265259   5.157   4.972  13.647  1.1057  0.3331 -0.6098
14590TIP3   OH265260   0.287   3.447   1.952  0.1526  0.1210  0.0391
14590TIP3    H165261   0.311   3.533   1.987  0.4350  0.7484 -1.6449
14590TIP3    H265262   0.250   3.401   2.028 -0.4197  1.8704  0.8889
14591TIP3   OH265263   2.190   1.680  17.402 -0.0856  0.3398  0.1616
14591TIP3    H165264   2.145   1.676  17.317  0.2301 -1.9438  0.0338
14591TIP3    H265265   2.148   1.611  17.454 -0.1252  1.5568  1.8294
14592TIP3   OH265266   3.943   1.288  16.786  0.2542  0.3253 -0.3745
14592TIP3    H165267   3.870   1.344  16.762  0.0777  0.5792  0.6980
14592TIP3    H265268   3.904   1.218  16.838  0.6361 -0.1204 -0.6745
14593TIP3   OH265269   5.550   6.001  12.547  0.1296  0.4061 -0.2442
14593TIP3    H165270   5.526   5.909  12.536  0.3286 -0.1480  3.0354
14593TIP3    H265271   5.645   6.002  12.539  0.1358  0.3063 -0.1933
14594TIP3   OH265272   4.988   5.898  17.500 -0.2786 -0.0497 -0.2248
14594TIP3    H165273   4.964   5.947  17.579 -0.5347 -0.4001 -0.0835
14594TIP3    H265274   5.083   5.900  17.498 -0.2893  1.1444 -0.6562
14595TIP3   OH265275   6.729   5.136   0.580 -0.5197 -0.5856  0.1388
14595TIP3    H165276   6.803   5.153   0.638  1.1463 -2.6215 -1.2382
14595TIP3    H265277   6.675   5.215   0.586  1.5476  0.8241  1.4992
14596TIP3   OH265278   0.928   1.788  16.549 -0.1835 -0.2749 -0.3060
14596TIP3    H165279   0.993   1.725  16.519 -0.4770  0.0199 -1.5888
14596TIP3    H265280   0.846   1.761  16.508 -0.8983 -0.6353  1.2783
14597TIP3   OH265281   4.823   2.888  12.862 -0.3911 -0.1806  0.0854
14597TIP3    H165282   4.864   2.974  12.850  1.1300 -0.6847  1.3470
14597TIP3    H265283   4.827   2.874  12.957  2.8558 -3.2421 -0.3179
14598TIP3   OH265284   2.231   2.382   1.325 -0.2924 -0.1956  0.2958
14598TIP3    H165285   2.276   2.378   1.410 -0.1600 -0.7083  0.2046
14598TIP3    H265286   2.283   2.325   1.268 -0.1373  0.4814 -0.2425
14599TIP3   OH265287   6.566   4.246  13.015 -0.4752  0.1418  0.1411
14599TIP3    H165288   6.481   4.240  13.060 -0.3075 -0.1089  0.4235
14599TIP3    H265289   6.628   4.268  13.084 -0.0459 -1.2464  0.2267
14600TIP3   OH265290   5.784   0.757  14.200  0.2061 -0.2883 -0.3810
14600TIP3    H165291   5.732   0.830  14.167  0.9049  0.1198 -0.5953
14600TIP3    H265292   5.787   0.769  14.294 -1.8376 -1.4811 -0.0935
14601TIP3   OH265293   4.103   4.096  15.561 -0.2459  0.0760  0.2035
14601TIP3    H165294   4.109   4.015  15.611 -0.2351  0.2795  0.5337
14601TIP3    H265295   4.142   4.075  15.476 -0.4420 -0.3237  0.2149
14602TIP3   OH265296   2.963   1.523  17.484 -0.2275 -0.1796 -0.2628
14602TIP3    H165297   2.957   1.581  17.560  0.3538 -1.2914  0.6690
14602TIP3    H265298   2.978   1.582  17.410 -0.5624  0.9137  0.5120
14603TIP3   OH265299   5.855   3.576  11.806  0.3878 -0.1880  0.3835
14603TIP3    H165300   5.822   3.497  11.764 -0.1736 -0.3123  1.0419
14603TIP3    H265301   5.908   3.544  11.880 -0.3746  0.0553  1.0401
14604TIP3   OH265302   6.677   2.547   1.806  0.8857  0.4607  0.4836
14604TIP3    H165303   6.599   2.493   1.797  0.8092  0.7759 -0.8559
14604TIP3    H265304   6.654   2.611   1.874  0.8078 -0.8491  1.7316
14605TIP3   OH265305   6.164   4.811  17.264 -0.3058  0.0131  0.4026
14605TIP3    H165306   6.240   4.791  17.317 -1.8126 -0.6881  2.4182
14605TIP3    H265307   6.150   4.734  17.209  1.4661  0.8812 -1.3959
14606TIP3   OH265308   1.521   4.018   6.119  0.1459  0.2450  0.0385
14606TIP3    H165309   1.563   3.971   6.191  1.5048 -0.7126 -1.2969
14606TIP3    H265310   1.575   4.097   6.107  0.5412 -0.1039 -0.5496
14607TIP3   OH265311   6.443   5.990   0.101  0.4064  0.6850  0.2549
14607TIP3    H165312   6.422   5.942   0.181 -1.3913  0.3076 -0.4048
14607TIP3    H265313   6.516   5.942   0.063 -0.3043 -0.5951  0.4465
14608TIP3   OH265314   6.233   6.343   4.697  0.0465  0.3641 -0.3509
14608TIP3    H165315   6.312   6.294   4.720  0.3803  1.6844  1.5902
14608TIP3    H265316   6.237   6.421   4.752 -2.6708  0.4284 -0.1338
14609TIP3   OH265317   2.134   4.600   5.862 -0.1157 -0.6931 -0.3595
14609TIP3    H165318   2.125   4.556   5.777  1.3001 -0.1716 -0.8042
14609TIP3    H265319   2.136   4.693   5.841 -0.9103 -0.4987  0.3757
14610TIP3   OH265320   2.074   2.447  13.599 -0.1218  0.4062 -0.1121
14610TIP3    H165321   2.055   2.375  13.660  0.4906 -0.7660 -1.2436
14610TIP3    H265322   1.988   2.476  13.569 -0.3606 -1.2888 -1.2033
14611TIP3   OH265323   5.691   2.569  13.754  0.5998  0.1837 -0.3455
14611TIP3    H165324   5.747   2.643  13.776 -0.5409  0.8297  0.5285
14611TIP3    H265325   5.614   2.610  13.714 -0.5457 -0.3925  1.1680
14612TIP3   OH265326   5.136   5.402   3.749 -0.4760 -0.6308  0.5609
14612TIP3    H165327   5.047   5.418   3.781  0.3720  1.0768  2.2335
14612TIP3    H265328   5.149   5.467   3.680 -0.5778 -1.0468  0.1379
14613TIP3   OH265329   2.241   5.112  11.383 -0.2438 -0.2207 -0.4266
14613TIP3    H165330   2.332   5.140  11.387 -0.1838 -0.3577 -0.7772
14613TIP3    H265331   2.221   5.109  11.289  0.4072 -3.5077 -0.5650
14614TIP3   OH265332   0.372   1.638  17.175 -0.1882  0.0270  0.7599
14614TIP3    H165333   0.359   1.730  17.150 -0.4512 -0.1732  0.1470
14614TIP3    H265334   0.285   1.599  17.168 -0.1571 -0.1762  1.4238
14615TIP3   OH265335   6.326   4.939  12.561 -0.0522 -0.4385  0.3060
14615TIP3    H165336   6.411   4.895  12.566  0.0915 -0.2655 -0.5155
14615TIP3    H265337   6.331   5.007  12.628  0.3264 -0.6543  0.5015
14616TIP3   OH265338   4.320   3.332  14.256  0.2762  0.6932  0.0134
14616TIP3    H165339   4.299   3.265  14.191 -1.0314  0.2691  0.8378
14616TIP3    H265340   4.260   3.404  14.237  0.5592  0.9722  0.1604
14617TIP3   OH265341   5.184   3.653   5.383 -0.2956 -0.0394 -0.5885
14617TIP3    H165342   5.178   3.718   5.453 -2.8767  1.5625 -2.1028
14617TIP3    H265343   5.170   3.569   5.426 -0.8764  0.8159  0.9515
14618TIP3   OH265344   0.384   1.231   3.120  0.6711  0.4682  0.0082
14618TIP3    H165345   0.391   1.317   3.161  1.9275 -0.4592  1.8873
14618TIP3    H265346   0.465   1.221   3.070  0.2963  0.5707 -0.6286
14619TIP3   OH265347   3.285   2.661  15.717 -0.1363 -0.0552 -0.8777
14619TIP3    H165348   3.339   2.700  15.786  0.7743 -0.1900 -1.4933
14619TIP3    H265349   3.307   2.567  15.721 -1.5848 -0.3813 -0.0393
14620TIP3   OH265350   2.557   2.850   0.363 -0.9233 -0.2710  0.0365
14620TIP3    H165351   2.541   2.937   0.327  1.2137 -0.3279 -1.2568
14620TIP3    H265352   2.652   2.839   0.357 -0.8386 -1.7076  2.5458
14621TIP3   OH265353   5.191   0.748   2.549  0.2920 -0.1272  0.0737
14621TIP3    H165354   5.134   0.685   2.506 -0.8545  0.4394  0.7174
14621TIP3    H265355   5.231   0.699   2.620  0.5401 -0.5038 -0.3213
14622TIP3   OH265356   4.000   0.061   3.711  0.5751 -0.5270  0.3221
14622TIP3    H165357   4.015   0.015   3.794 -0.4783  0.4306  1.0887
14622TIP3    H265358   4.074   0.121   3.703  0.5315 -0.4213  0.7121
14623TIP3   OH265359   6.216   6.570  14.263 -0.2132 -0.2972  0.1134
14623TIP3    H165360   6.223   6.475  14.254  0.3850 -0.3536  1.0759
14623TIP3    H265361   6.154   6.596  14.195 -1.9614 -1.6222  1.1089
14624TIP3   OH265362   6.490   3.588   1.750  0.0817  0.4535 -0.3503
14624TIP3    H165363   6.560   3.581   1.815 -1.7999  0.6298  1.8250
14624TIP3    H265364   6.501   3.511   1.694  2.3864  0.8397 -0.5135
14625TIP3   OH265365   1.645   4.478   5.461  0.5634 -0.9132 -0.4359
14625TIP3    H165366   1.714   4.420   5.428 -0.1228 -1.9646 -0.0857
14625TIP3    H265367   1.643   4.461   5.556 -0.2624 -1.0073 -0.4632
14626TIP3   OH265368   2.752   2.002   0.652  0.1835 -0.1321 -0.3590
14626TIP3    H165369   2.684   2.065   0.678 -0.5379 -1.3273  0.8462
14626TIP3    H265370   2.828   2.056   0.631 -1.2404  1.3030 -2.2287
14627TIP3   OH265371   4.067   0.217   5.464 -0.3731  0.7297  0.3176
14627TIP3    H165372   4.116   0.279   5.518  1.3974  1.6944 -2.2095
14627TIP3    H265373   4.074   0.252   5.375 -2.5521 -1.1337 -0.6920
14628TIP3   OH265374   5.160   3.086   5.209 -0.4441 -0.3154  0.0310
14628TIP3    H165375   5.165   3.181   5.219 -0.0353 -0.3088 -0.2060
14628TIP3    H265376   5.094   3.072   5.141 -0.7556 -0.2198  0.3088
14629TIP3   OH265377   4.013   1.147   2.169  0.1488  0.4050  0.1686
14629TIP3    H165378   4.041   1.148   2.261  0.9181  0.0676 -0.0468
14629TIP3    H265379   4.025   1.237   2.140  1.5431  0.1710 -0.0542
14630TIP3   OH265380   2.906   3.882   7.345  0.0004  0.2607 -0.2531
14630TIP3    H165381   2.938   3.892   7.434  1.6944 -0.7829 -0.7129
14630TIP3    H265382   2.970   3.928   7.290 -0.9936  0.8568 -0.9545
14631TIP3   OH265383   2.013   4.463  15.783  0.0672  0.0322  0.0325
14631TIP3    H165384   1.987   4.377  15.815  1.4260 -0.4264 -0.0202
14631TIP3    H265385   1.950   4.483  15.714 -0.7460 -0.5454  0.5819
14632TIP3   OH265386   1.484   3.975  11.252  0.1852  0.2977  0.4995
14632TIP3    H165387   1.498   4.035  11.178  2.1162 -1.5914 -0.7756
14632TIP3    H265388   1.393   3.989  11.277  0.5674  3.8397  0.4018
14633TIP3   OH265389   3.174   5.346   6.667 -0.1151  0.0134 -0.4200
14633TIP3    H165390   3.234   5.335   6.741 -1.2875 -1.8144  0.3264
14633TIP3    H265391   3.170   5.259   6.627 -0.6382  0.6298 -1.7448
14634TIP3   OH265392   5.198   6.082   4.708  0.4443  0.1406 -0.2486
14634TIP3    H165393   5.246   6.138   4.647  0.2495 -0.8732 -1.3633
14634TIP3    H265394   5.155   6.017   4.653  0.0613 -0.6688  0.9560
14635TIP3   OH265395   1.422   2.888  17.079 -0.4267  0.2449  0.0311
14635TIP3    H165396   1.376   2.971  17.066  1.3847  1.5845  1.5428
14635TIP3    H265397   1.465   2.870  16.996 -1.1336  0.6088 -0.4228
14636TIP3   OH265398   1.350   3.398  15.006  0.2801  0.1987  0.3023
14636TIP3    H165399   1.326   3.429  15.093 -0.9466  0.6490 -0.1690
14636TIP3    H265400   1.315   3.309  15.002 -0.6934  0.5831 -0.1138
14637TIP3   OH265401   0.479   2.559   2.655  0.6899  0.1551  0.3363
14637TIP3    H165402   0.384   2.566   2.643  0.4001 -1.7407  1.2326
14637TIP3    H265403   0.494   2.601   2.740  0.4194 -0.8076  0.8780
14638TIP3   OH265404   0.218   0.812   4.244 -0.3618 -0.1752  0.8535
14638TIP3    H165405   0.217   0.907   4.236  1.4232 -0.1791  0.2167
14638TIP3    H265406   0.201   0.780   4.156 -1.7067 -0.5034  1.1946
14639TIP3   OH265407   2.460   2.647  14.742  0.1889 -0.0221 -0.4033
14639TIP3    H165408   2.524   2.577  14.754 -1.0213 -0.9256  1.1277
14639TIP3    H265409   2.502   2.724  14.778  0.5282 -0.5408  0.3249
14640TIP3   OH265410   4.200   3.703  11.564 -0.6033  0.1027  0.3647
14640TIP3    H165411   4.129   3.717  11.628 -3.0470  0.5810 -2.2732
14640TIP3    H265412   4.250   3.784  11.566 -2.3483  1.2510 -0.2683
14641TIP3   OH265413   1.154   0.418  17.592  0.2274 -0.6097  0.1606
14641TIP3    H165414   1.146   0.514  17.590 -0.1342 -0.6201 -1.8624
14641TIP3    H265415   1.066   0.387  17.613 -0.0845 -0.4738 -0.8439
14642TIP3   OH265416   1.077   1.794  16.789  0.5756  0.1911  0.1034
14642TIP3    H165417   1.018   1.810  16.715 -0.3627  2.3183  1.2349
14642TIP3    H265418   1.127   1.876  16.796  0.9151 -0.1323  1.5819
14643TIP3   OH265419   3.761   1.744  14.754  0.4615  0.9625 -0.6527
14643TIP3    H165420   3.678   1.786  14.731 -0.2930 -0.1469 -0.0489
14643TIP3    H265421   3.795   1.796  14.827 -0.7143  0.2717  0.4310
14644TIP3   OH265422   1.375   1.552   5.616 -0.1260  1.0781  0.1144
14644TIP3    H165423   1.387   1.618   5.684 -0.8463  0.2132  1.1074
14644TIP3    H265424   1.281   1.551   5.599 -0.1795  0.0452  0.3932
14645TIP3   OH265425   5.485   4.531  16.678  0.3915  0.4063  0.3184
14645TIP3    H165426   5.466   4.621  16.653 -0.5774  0.0615 -0.2374
14645TIP3    H265427   5.509   4.537  16.771 -0.5208  1.1395  0.5293
14646TIP3   OH265428   1.962   4.875   3.581  0.5666 -0.2173 -0.0215
14646TIP3    H165429   1.935   4.930   3.655  0.4672 -0.7601  0.3453
14646TIP3    H265430   1.884   4.825   3.558  0.7194 -0.3645 -0.2209
14647TIP3   OH265431   1.905   2.985  12.043  0.7861 -0.4808 -0.8293
14647TIP3    H165432   1.855   2.949  11.970  1.9847  1.0033 -2.4611
14647TIP3    H265433   1.890   3.079  12.039  0.6697 -0.3795  1.0337
14648TIP3   OH265434   3.959   5.413  15.499 -0.7040  0.0039 -0.7838
14648TIP3    H165435   3.957   5.444  15.409 -0.0818  0.1420 -0.7566
14648TIP3    H265436   3.871   5.380  15.515 -1.3694  1.6577 -0.8364
14649TIP3   OH265437   2.470   3.189   2.618 -0.0551  0.7347  0.9210
14649TIP3    H165438   2.407   3.125   2.585  0.1095  0.6622  0.7485
14649TIP3    H265439   2.417   3.248   2.673 -0.2189  0.4920  1.0282
14650TIP3   OH265440   3.557   3.841  15.076 -0.4781  0.6709  0.5239
14650TIP3    H165441   3.462   3.827  15.075 -0.1645 -2.1119  0.6733
14650TIP3    H265442   3.567   3.935  15.064 -3.2149  0.8815 -1.1761
14651TIP3   OH265443   1.053   6.180  17.579  0.5251  0.0597  0.6626
14651TIP3    H165444   0.972   6.144  17.543 -0.5230  1.3770  1.5967
14651TIP3    H265445   1.050   6.157  17.672  2.4223 -1.9352  0.3103
14652TIP3   OH265446   2.103   4.281   5.316  0.4513  0.1348  0.0232
14652TIP3    H165447   2.064   4.204   5.358 -0.0247  1.1204  1.4617
14652TIP3    H265448   2.110   4.257   5.224 -0.7692 -1.2026  0.2412
14653TIP3   OH265449   1.566   1.560  12.027 -0.5281  0.0833  0.4045
14653TIP3    H165450   1.588   1.582  11.937  0.5638  2.1570  1.0935
14653TIP3    H265451   1.478   1.596  12.040 -0.0440  1.2423  0.5925
14654TIP3   OH265452   6.555   0.272   3.108 -0.4979 -0.2130  0.3020
14654TIP3    H165453   6.592   0.188   3.133 -0.2600  0.0734  0.9361
14654TIP3    H265454   6.499   0.253   3.033  0.2416 -0.7959 -0.1152
14655TIP3   OH265455   2.111   4.133   4.487 -0.0161 -0.1811 -0.1587
14655TIP3    H165456   2.115   4.146   4.393 -0.7252 -0.7362 -0.2704
14655TIP3    H265457   2.178   4.191   4.522  1.9860 -1.7408 -1.1735
14656TIP3   OH265458   3.076   5.811   6.623  0.4874  0.4711  0.4024
14656TIP3    H165459   3.129   5.731   6.627 -1.5952 -0.9980  0.4671
14656TIP3    H265460   3.138   5.882   6.638  2.4005 -1.1371  0.5034
14657TIP3   OH265461   6.184   0.649  14.706  0.7207 -0.2422 -0.4851
14657TIP3    H165462   6.164   0.557  14.690 -0.7325 -0.0471  0.0190
14657TIP3    H265463   6.269   0.648  14.750  0.5513 -1.3657 -0.1533
14658TIP3   OH265464   2.012   6.585  17.300 -0.2266  0.3893 -0.1089
14658TIP3    H165465   1.986   6.639  17.374  3.4405  1.5128  0.5872
14658TIP3    H265466   2.012   6.495  17.335  0.8279  0.8370  1.1578
14659TIP3   OH265467   3.372   2.660   5.823  0.0517  0.0685 -0.1335
14659TIP3    H165468   3.334   2.667   5.910  1.0833 -0.5032  0.3813
14659TIP3    H265469   3.466   2.651   5.838  0.2264 -0.2706 -1.2930
14660TIP3   OH265470   3.920   3.878  11.493  0.2949  0.0255 -0.5156
14660TIP3    H165471   3.919   3.811  11.425 -1.7513  0.8429 -1.3287
14660TIP3    H265472   3.834   3.920  11.489  0.8343  1.4564  1.2325
14661TIP3   OH265473   6.230   1.999  11.731  0.1079 -0.0884  0.1996
14661TIP3    H165474   6.292   2.068  11.754  1.2429 -0.9598 -0.1733
14661TIP3    H265475   6.171   2.039  11.668  2.4302 -0.1716 -2.1738
14662TIP3   OH265476   2.916   2.982   3.241  0.1112 -0.2547 -0.0339
14662TIP3    H165477   2.987   3.022   3.290  0.2380 -0.3567 -0.1345
14662TIP3    H265478   2.945   2.892   3.226 -0.3852 -0.5361  0.6291
14663TIP3   OH265479   3.931   4.222   4.470 -0.0301  0.7626 -0.1178
14663TIP3    H165480   3.960   4.312   4.455  0.7854  0.4288 -0.5941
14663TIP3    H265481   3.934   4.211   4.565 -0.0645  1.2134 -0.0648
14664TIP3   OH265482   0.198   0.856  14.295 -0.1833  0.4125  0.5806
14664TIP3    H165483   0.118   0.844  14.243 -0.3155  0.1154  0.8491
14664TIP3    H265484   0.237   0.937  14.261  0.5778 -0.5839 -1.0860
14665TIP3   OH265485   5.322   2.450  16.058  0.6120 -0.1537 -0.3554
14665TIP3    H165486   5.340   2.381  15.994 -1.4469 -0.7519 -0.3664
14665TIP3    H265487   5.288   2.523  16.005 -1.1883 -0.6844 -0.0203
14666TIP3   OH265488   1.061   0.087   4.064 -0.4766  0.8066 -0.0209
14666TIP3    H165489   1.078   0.132   3.982 -0.5397  0.3292 -0.2986
14666TIP3    H265490   0.976   0.120   4.093 -0.5649  0.7960 -0.2693
14667TIP3   OH265491   5.101   0.206   2.061  0.0964 -0.0445  0.1460
14667TIP3    H165492   5.059   0.278   2.013  0.0510  0.2129  0.5648
14667TIP3    H265493   5.029   0.161   2.105 -0.1038 -1.4495 -1.5188
14668TIP3   OH265494   0.490   4.210   1.484 -0.0723 -0.1634  0.0903
14668TIP3    H165495   0.488   4.141   1.417  1.2222  1.9380 -2.2674
14668TIP3    H265496   0.416   4.266   1.462 -0.0029  0.2217  0.8190
14669TIP3   OH265497   1.332   3.993   5.357  0.0995 -1.0598 -0.0672
14669TIP3    H165498   1.270   4.050   5.404  0.3128 -1.0963  0.2645
14669TIP3    H265499   1.336   4.030   5.269 -2.1303 -2.3846 -0.8087
14670TIP3   OH265500   4.204   4.072   1.667 -0.7943 -0.6699  0.4272
14670TIP3    H165501   4.132   4.048   1.727 -0.4896 -3.5494 -0.2139
14670TIP3    H265502   4.162   4.126   1.600 -2.1408 -1.3396  0.6939
14671TIP3   OH265503   1.788   0.282  12.697 -0.5508  0.0387  0.1689
14671TIP3    H165504   1.787   0.222  12.623  0.2350  0.2652 -0.0282
14671TIP3    H265505   1.852   0.349  12.674 -0.4247  0.2124  0.9689
14672TIP3   OH265506   3.091   6.637  12.953  0.0594  0.0582  0.5939
14672TIP3    H165507   3.170   6.666  12.999  0.4306  0.7953 -0.4850
14672TIP3    H265508   3.112   6.549  12.922  1.0335  0.7857 -0.9360
14673TIP3   OH265509   0.856   0.739   6.579  0.0827 -0.2228  0.5767
14673TIP3    H165510   0.883   0.674   6.514 -0.5728 -0.7117  0.7729
14673TIP3    H265511   0.920   0.809   6.572  0.5854 -0.7203  0.0877
14674TIP3   OH265512   2.657   1.471   0.659  0.1365 -0.4356  0.5679
14674TIP3    H165513   2.753   1.477   0.663  0.0642  0.9883  0.8290
14674TIP3    H265514   2.627   1.560   0.678 -1.2726 -1.0637  1.4185
14675TIP3   OH265515   5.800   3.815   0.080  0.8066  0.4299 -0.5110
14675TIP3    H165516   5.709   3.835   0.097  0.2657 -1.3995 -1.0244
14675TIP3    H265517   5.844   3.900   0.081 -0.6561  1.2218  1.0019
14676TIP3   OH265518   2.554   2.572  12.239  0.1917 -0.3180  0.4363
14676TIP3    H165519   2.621   2.563  12.172 -0.6481  2.4689 -0.9461
14676TIP3    H265520   2.471   2.559  12.192 -0.3584 -3.1683  1.9942
14677TIP3   OH265521   1.115   4.788  13.184 -0.7201 -0.7865  1.0587
14677TIP3    H165522   1.094   4.839  13.106  2.5400  0.5501  0.9273
14677TIP3    H265523   1.134   4.853  13.251 -0.2027 -1.8999  2.0202
14678TIP3   OH265524   0.189   0.445   1.243 -0.3768  0.0515 -0.2152
14678TIP3    H165525   0.199   0.357   1.207  1.2451 -0.4284  1.2486
14678TIP3    H265526   0.151   0.496   1.172  0.8877 -1.2657 -1.9210
14679TIP3   OH265527   3.169   1.105   0.880  0.0091 -0.9080 -0.0616
14679TIP3    H165528   3.116   1.054   0.940 -0.2383  0.0717  0.5745
14679TIP3    H265529   3.256   1.107   0.920 -0.2602  0.1011  0.4966
14680TIP3   OH265530   4.439   3.259  12.383  0.9701 -0.2965 -0.7786
14680TIP3    H165531   4.429   3.165  12.366 -1.4844  0.0196 -1.4601
14680TIP3    H265532   4.353   3.287  12.414  2.1141  1.4454  1.0167
14681TIP3   OH265533   5.503   1.492   3.681 -0.0622 -0.0144 -0.9933
14681TIP3    H165534   5.474   1.562   3.740 -0.5943 -2.6453  2.1553
14681TIP3    H265535   5.591   1.519   3.654  0.7203  0.8495  2.0208
14682TIP3   OH265536   4.263   5.439  13.660 -0.1044 -0.5160  0.2853
14682TIP3    H165537   4.207   5.362  13.650  2.3523 -2.7932  2.6001
14682TIP3    H265538   4.334   5.424  13.598 -0.1148  0.4719  0.0171
14683TIP3   OH265539   2.458   0.785   3.254  0.1285  0.0796 -0.5090
14683TIP3    H165540   2.491   0.871   3.228  1.0026 -0.3712 -0.9266
14683TIP3    H265541   2.371   0.780   3.214 -0.3401  1.1429  0.3270
14684TIP3   OH265542   4.072   6.335  14.190  0.2707 -0.2092  0.5230
14684TIP3    H165543   4.013   6.277  14.141  1.6036  0.1131 -1.5904
14684TIP3    H265544   4.030   6.421  14.187 -0.8999 -0.6701  2.2393
14685TIP3   OH265545   1.009   5.300  13.891  0.5012 -0.1807  0.2764
14685TIP3    H165546   1.100   5.319  13.870  0.9709 -2.0191  0.5243
14685TIP3    H265547   0.969   5.274  13.808  0.5126 -0.5519  0.3872
14686TIP3   OH265548   0.440   6.123   0.562  0.0385  0.8327 -0.6538
14686TIP3    H165549   0.402   6.072   0.633 -1.6896  2.1873 -0.5328
14686TIP3    H265550   0.501   6.183   0.605  0.6131  0.1941 -0.5751
14687TIP3   OH265551   0.657   4.767   3.313  0.0765 -0.2784 -0.5971
14687TIP3    H165552   0.665   4.847   3.260  0.0895  1.1239  1.4272
14687TIP3    H265553   0.563   4.750   3.318  0.0870 -0.5521 -1.2299
14688TIP3   OH265554   2.547   4.888  13.594  0.0298 -0.4987  0.4918
14688TIP3    H165555   2.464   4.930  13.617  1.2387  3.2792 -1.0901
14688TIP3    H265556   2.534   4.856  13.504  0.2055  0.0077  0.2792
14689TIP3   OH265557   3.128   4.664   0.561 -0.4613  0.1052 -0.3174
14689TIP3    H165558   3.040   4.641   0.533  0.0138  0.6176 -2.4065
14689TIP3    H265559   3.165   4.582   0.594 -2.1598  0.1841  2.0737
14690TIP3   OH265560   1.631   0.483   2.745  1.0587  0.2750 -0.1167
14690TIP3    H165561   1.659   0.394   2.724  0.2057  0.2671 -1.3131
14690TIP3    H265562   1.699   0.539   2.706  1.4171  0.1700  0.3431
14691TIP3   OH265563   0.678   2.871   3.459 -0.0505 -0.2473  0.0083
14691TIP3    H165564   0.760   2.920   3.450 -0.4139  0.1355 -1.5217
14691TIP3    H265565   0.613   2.927   3.417 -1.4831  0.2634  2.6641
14692TIP3   OH265566   5.577   0.448   3.870 -0.0866 -0.0619 -0.9838
14692TIP3    H165567   5.576   0.352   3.873  0.4150 -0.0811  2.2059
14692TIP3    H265568   5.485   0.473   3.858 -0.5557 -0.9885  0.4146
14693TIP3   OH265569   6.637   6.071   3.508  0.1263 -0.0303  0.0779
14693TIP3    H165570   6.555   6.077   3.557  0.5840  0.1570  0.8362
14693TIP3    H265571   6.682   6.154   3.525  0.7588 -0.3905  0.1847
14694TIP3   OH265572   0.883   2.795  17.452  0.1382  0.4246  0.0126
14694TIP3    H165573   0.830   2.870  17.426 -0.6696  0.1364  0.7753
14694TIP3    H265574   0.935   2.827  17.526 -0.7727  0.0282  0.8373
14695TIP3   OH265575   2.502   0.623  15.687  0.1859  0.4705  0.0059
14695TIP3    H165576   2.565   0.691  15.667 -0.3369  1.0940  0.4609
14695TIP3    H265577   2.551   0.559  15.739  0.6320  0.5795 -0.2772
14696TIP3   OH265578   0.044   0.587  12.182 -0.6332 -0.3245 -0.4926
14696TIP3    H165579  -0.024   0.533  12.141 -0.3957 -1.3082  0.3840
14696TIP3    H265580   0.121   0.574  12.126 -1.1502  0.8144 -1.5042
14697TIP3   OH265581   6.018   3.273  12.498  0.6907  0.2521  0.4504
14697TIP3    H165582   6.077   3.349  12.494 -0.7014  1.6849  3.7536
14697TIP3    H265583   6.075   3.199  12.519  1.4834  1.5907  3.5446
14698TIP3   OH265584   1.356   0.217  17.663  0.7667  0.3571  0.0128
14698TIP3    H165585   1.261   0.216  17.670  0.7438 -0.9747 -0.1327
14698TIP3    H265586   1.375   0.273  17.588  0.0369 -0.2594 -0.6468
14699TIP3   OH265587   4.895   2.284  15.147 -0.2819 -0.2541 -0.3593
14699TIP3    H165588   4.828   2.304  15.212  3.2553  1.4755  3.1811
14699TIP3    H265589   4.948   2.215  15.187  1.5123  0.2005 -1.7713
14700TIP3   OH265590   4.782   3.200  12.252  0.2191 -0.0717 -0.5405
14700TIP3    H165591   4.770   3.105  12.242  0.9100 -0.2108 -0.1272
14700TIP3    H265592   4.861   3.219  12.203 -1.0847  0.6740 -2.4593
14701TIP3   OH265593   6.133   0.602  17.040 -0.2158  0.1723  0.1462
14701TIP3    H165594   6.114   0.677  17.096 -0.3015  0.1579  0.1356
14701TIP3    H265595   6.135   0.527  17.100  3.0109  0.5753  0.7069
14702TIP3   OH265596   3.450   0.580   3.041  0.1960 -0.6239  0.3519
14702TIP3    H165597   3.532   0.609   3.000  0.6573 -1.0700  0.9408
14702TIP3    H265598   3.401   0.661   3.056  0.6045 -0.3354  0.1476
14703TIP3   OH265599   2.793   5.491   6.822 -0.0053 -0.8470  0.0024
14703TIP3    H165600   2.803   5.420   6.759  0.1721 -1.8562  1.1446
14703TIP3    H265601   2.731   5.458   6.887  1.7414 -0.8302  1.7436
14704TIP3   OH265602   5.105   0.264   0.283 -0.7142 -0.6210 -0.9835
14704TIP3    H165603   5.055   0.206   0.340  0.5354 -0.3058  0.4828
14704TIP3    H265604   5.084   0.234   0.194 -0.9551 -2.6011 -0.3025
14705TIP3   OH265605   1.972   5.033  15.361 -0.7297  0.1410  0.5298
14705TIP3    H165606   2.047   5.081  15.398 -0.0810  0.2894 -0.8860
14705TIP3    H265607   1.918   5.102  15.322  0.5051 -0.2080 -2.0430
14706TIP3   OH265608   0.460   0.547   1.843 -0.1435 -0.0484 -0.4931
14706TIP3    H165609   0.495   0.636   1.852  0.2954 -0.4200  2.3770
14706TIP3    H265610   0.503   0.512   1.764  0.7186  1.8001 -0.8978
14707TIP3   OH265611   0.351   0.415   0.983 -0.0602  0.4701  0.0563
14707TIP3    H165612   0.258   0.400   0.997 -0.2169  1.7049  0.4719
14707TIP3    H265613   0.379   0.467   1.059  1.0440 -0.1558  0.1090
14708TIP3   OH265614   3.293   0.132  13.577  0.0988  0.0629  0.6847
14708TIP3    H165615   3.230   0.203  13.590 -0.2160  0.1370 -1.0380
14708TIP3    H265616   3.247   0.053  13.604 -0.6208  0.1585 -0.2256
14709TIP3   OH265617   5.462   0.538   2.414  0.0879 -0.0003 -0.0149
14709TIP3    H165618   5.415   0.520   2.333  0.6798 -1.1440 -0.1323
14709TIP3    H265619   5.487   0.630   2.409 -0.4813  0.1151 -0.8045
14710TIP3   OH265620   1.099   3.373  16.768  0.4499 -0.2486  0.3339
14710TIP3    H165621   1.104   3.420  16.684  0.3062  0.4899  0.7305
14710TIP3    H265622   1.156   3.422  16.827 -0.8073  0.2892  1.1539
14711TIP3   OH265623   5.059   0.047  10.823  0.1814 -0.3618  0.1694
14711TIP3    H165624   5.122   0.107  10.784  0.7574  0.8482  2.7313
14711TIP3    H265625   4.977   0.066  10.778  0.9395  0.4437 -0.9047
14712TIP3   OH265626   3.173   0.127   2.157 -0.2237  0.4116  0.0338
14712TIP3    H165627   3.205   0.076   2.231 -1.1157 -0.2244 -0.0053
14712TIP3    H265628   3.086   0.156   2.183 -0.4314  0.4241 -0.6521
14713TIP3   OH265629   4.452   3.893   6.412 -0.0780 -0.4267  0.2618
14713TIP3    H165630   4.522   3.941   6.367  0.3325 -0.1044  1.2199
14713TIP3    H265631   4.386   3.879   6.344  0.7176 -0.3525 -0.5607
14714TIP3   OH265632   2.183   6.526   5.139  0.1175  0.8442  0.3078
14714TIP3    H165633   2.155   6.505   5.050  1.2610 -1.4823  0.4311
14714TIP3    H265634   2.266   6.573   5.128 -0.5974  2.0991  0.1291
14715TIP3   OH265635   5.194   3.691   3.392  0.1166  0.2305 -0.0434
14715TIP3    H165636   5.102   3.717   3.402 -0.5045 -2.1177  1.1557
14715TIP3    H265637   5.240   3.773   3.373 -1.9768  1.7580  1.0028
14716TIP3   OH265638   1.371   5.070   5.228 -0.1824 -0.0743 -0.2154
14716TIP3    H165639   1.356   5.108   5.142 -0.1313 -0.4185 -0.3798
14716TIP3    H265640   1.285   5.034   5.253 -0.1022 -0.3228 -0.2966
14717TIP3   OH265641   3.481   4.324   2.831 -0.5582  0.4325 -0.3042
14717TIP3    H165642   3.532   4.355   2.756  0.4553  1.3993  0.7361
14717TIP3    H265643   3.413   4.269   2.793  0.1474  0.6049 -1.8964
14718TIP3   OH265644   0.905   1.203   6.358 -0.0985  0.2087  0.1440
14718TIP3    H165645   0.998   1.220   6.372 -0.4209  0.4484  2.3237
14718TIP3    H265646   0.862   1.239   6.436 -2.1510  1.1740 -1.3392
14719TIP3   OH265647   4.474   3.672   4.176  0.2323  0.0288  0.0726
14719TIP3    H165648   4.468   3.609   4.247  1.9872  0.9121  1.0638
14719TIP3    H265649   4.422   3.747   4.206 -0.4370 -0.2499 -0.3568
14720TIP3   OH265650   5.203   5.930   3.190 -0.0213 -0.2738  0.2119
14720TIP3    H165651   5.141   5.989   3.149  1.0728  1.3147  0.7607
14720TIP3    H265652   5.289   5.965   3.166  0.7227 -2.4902 -0.6754
14721TIP3   OH265653   0.432   1.393  15.886  0.2824 -0.0716 -0.6128
14721TIP3    H165654   0.388   1.393  15.971  0.8223  2.1861 -0.2584
14721TIP3    H265655   0.490   1.469  15.890 -0.1867  0.5146 -3.2565
14722TIP3   OH265656   2.462   3.541  14.469  0.9034  0.9175 -0.0834
14722TIP3    H165657   2.384   3.489  14.488  0.6738  1.1278 -0.4578
14722TIP3    H265658   2.535   3.486  14.498  0.5716  1.1604  1.2713
14723TIP3   OH265659   0.209   0.679   2.116 -0.0885  0.1482 -0.3025
14723TIP3    H165660   0.113   0.683   2.115 -0.1631 -1.3939 -0.5138
14723TIP3    H265661   0.235   0.734   2.042 -0.8292  0.2191 -0.5179
14724TIP3   OH265662   3.098   5.630  15.504 -0.3399  0.4090 -0.8109
14724TIP3    H165663   3.109   5.725  15.515  0.9975  0.2272 -0.3540
14724TIP3    H265664   3.009   5.612  15.533  0.0941  1.2407  1.1842
14725TIP3   OH265665   3.673   0.092   3.367  0.8395  0.0282 -0.5401
14725TIP3    H165666   3.645   0.096   3.275 -0.2962  0.8065 -0.1814
14725TIP3    H265667   3.678  -0.002   3.386  2.8982 -0.1895 -1.9009
14726TIP3   OH265668   2.181   0.933   3.405  0.0314 -0.7727  0.3887
14726TIP3    H165669   2.250   0.881   3.447  0.0028 -0.8713  0.3149
14726TIP3    H265670   2.204   1.024   3.425 -0.2497 -0.8372  1.0217
14727TIP3   OH265671   0.012   4.508   6.872  0.3420  0.3275 -0.0970
14727TIP3    H165672   0.038   4.426   6.831  0.7036  0.6296 -0.4869
14727TIP3    H265673  -0.070   4.531   6.829  0.7859  0.7106 -0.7714
14728TIP3   OH265674   3.386   0.940  13.312 -0.2671  0.0424  0.9782
14728TIP3    H165675   3.366   0.853  13.346 -0.2680  0.4147  1.9501
14728TIP3    H265676   3.480   0.950  13.326 -0.2956  0.2614  1.0058
14729TIP3   OH265677   2.036   4.117  14.529 -0.1258  0.4643  0.3342
14729TIP3    H165678   2.011   4.162  14.609  1.9079  1.6468  0.3873
14729TIP3    H265679   2.124   4.083  14.547  0.2161  0.4277 -1.2532
14730TIP3   OH265680   5.613   6.647  13.275 -0.3764 -0.0323 -0.0453
14730TIP3    H165681   5.655   6.581  13.330 -0.4430  0.8999  1.1714
14730TIP3    H265682   5.685   6.688  13.227 -0.2347 -0.3879 -0.1379
14731TIP3   OH265683   4.600   1.568  11.382 -0.1106  0.1664  0.0461
14731TIP3    H165684   4.676   1.600  11.430  0.4123 -1.0640  0.0895
14731TIP3    H265685   4.611   1.603  11.293 -0.2473  1.1442  0.4035
14732TIP3   OH265686   2.901   4.624  15.923 -0.1491  0.2311  0.0684
14732TIP3    H165687   2.928   4.678  15.849  0.2631  1.8410  1.3402
14732TIP3    H265688   2.860   4.547  15.882  0.1374  1.0088 -1.8134
14733TIP3   OH265689   1.635   1.640  13.437  0.4952 -0.4288  0.6696
14733TIP3    H165690   1.544   1.612  13.442  0.4078 -0.1587  0.5916
14733TIP3    H265691   1.669   1.626  13.526  0.4517 -0.7676  0.6358
14734TIP3   OH265692   6.125   6.538   2.205  0.6948 -0.1098 -0.0201
14734TIP3    H165693   6.110   6.578   2.119  1.5415  1.1106  0.3680
14734TIP3    H265694   6.074   6.592   2.266 -0.5244 -1.4315  0.1761
14735TIP3   OH265695   5.745   1.147   1.780 -0.0481 -0.4210 -0.2087
14735TIP3    H165696   5.795   1.065   1.780  0.1811 -0.3124 -1.7378
14735TIP3    H265697   5.785   1.199   1.850  0.3865 -1.2584  0.1890
14736TIP3   OH265698   2.217   3.184   4.855  0.7271  0.0692  0.1278
14736TIP3    H165699   2.271   3.123   4.805 -0.3417  0.5592 -1.7515
14736TIP3    H265700   2.128   3.148   4.847  0.1745  1.5133 -0.4867
14737TIP3   OH265701   3.384   1.076  14.777  0.0312  0.2756  0.2942
14737TIP3    H165702   3.475   1.104  14.765  0.4834 -0.1093  2.3040
14737TIP3    H265703   3.379   0.991  14.732  0.8693  0.0163  0.6630
14738TIP3   OH265704   1.863   4.737  11.595 -0.4645  0.2413 -0.1072
14738TIP3    H165705   1.894   4.760  11.508  0.7282 -2.7935 -0.6082
14738TIP3    H265706   1.770   4.763  11.595  0.3883  3.8447 -0.7719
14739TIP3   OH265707   3.606   1.582  15.795  0.1994 -0.9527 -0.5843
14739TIP3    H165708   3.559   1.641  15.855 -0.0562 -0.5665 -1.1488
14739TIP3    H265709   3.693   1.620  15.788  1.0056 -2.2636  1.3113
14740TIP3   OH265710   3.050   3.122  13.911 -0.4576 -0.1059 -0.1117
14740TIP3    H165711   3.106   3.053  13.876 -0.4468 -1.3032  2.1479
14740TIP3    H265712   3.022   3.091  13.997 -2.7654  1.4602 -0.1793
14741TIP3   OH265713   0.636   1.657   6.017 -0.5552  0.2086 -0.5267
14741TIP3    H165714   0.574   1.601   5.971 -1.2518  0.7407 -0.2606
14741TIP3    H265715   0.581   1.717   6.067  0.1680 -0.6327  1.3791
14742TIP3   OH265716   1.926   2.139   5.751  0.1251  0.0135 -0.5391
14742TIP3    H165717   1.912   2.105   5.839  1.4087  1.1832  0.1498
14742TIP3    H265718   2.017   2.116   5.731 -0.2422 -0.5178 -1.7063
14743TIP3   OH265719   3.038   5.773  13.093 -0.0945 -0.2182 -0.1883
14743TIP3    H165720   3.012   5.723  13.015 -1.5618 -2.2277  1.4929
14743TIP3    H265721   3.118   5.731  13.123  1.1804  1.3364 -1.2051
14744TIP3   OH265722   5.712   4.460  14.555  0.4431  0.3427 -0.1376
14744TIP3    H165723   5.803   4.489  14.548  0.1143  1.4618  0.0324
14744TIP3    H265724   5.710   4.375  14.511  1.1332  1.2384 -2.0002
14745TIP3   OH265725   1.565   5.303   0.382  0.8278  0.4347 -0.1282
14745TIP3    H165726   1.516   5.338   0.456  0.4981  0.4256 -0.3379
14745TIP3    H265727   1.583   5.379   0.327 -1.5980  0.0573 -1.5774
14746TIP3   OH265728   3.649   0.714  13.117  0.0049  0.6669 -0.2301
14746TIP3    H165729   3.624   0.800  13.083 -1.5833 -0.8773 -3.3846
14746TIP3    H265730   3.708   0.678  13.051  0.9636 -0.5568  1.2253
14747TIP3   OH265731   1.263   1.895   2.995 -0.0277 -0.0270  0.1242
14747TIP3    H165732   1.298   1.942   2.920  0.8291 -2.7600 -1.3085
14747TIP3    H265733   1.180   1.860   2.964 -0.3734  0.0126  0.9739
14748TIP3   OH265734   3.180   1.450  13.836 -0.7388  0.1917  0.0479
14748TIP3    H165735   3.181   1.367  13.883 -1.2947 -0.3274 -0.8336
14748TIP3    H265736   3.244   1.439  13.766  0.3800  1.1047  0.8930
14749TIP3   OH265737   6.577   3.407  13.178 -0.0152 -0.2067  0.0945
14749TIP3    H165738   6.612   3.494  13.155  0.1527 -0.2908  0.0284
14749TIP3    H265739   6.517   3.424  13.250 -2.3786  0.3965 -1.8780
14750TIP3   OH265740   4.770   4.872   1.434 -0.1889  0.0238  0.1251
14750TIP3    H165741   4.702   4.856   1.499  1.1983 -0.9103  1.4119
14750TIP3    H265742   4.805   4.785   1.414  1.4916  0.5819  0.4909
14751TIP3   OH265743   3.250   6.266  12.642 -0.3142 -0.4189 -0.2302
14751TIP3    H165744   3.345   6.278  12.646 -0.0334 -2.6278  1.6105
14751TIP3    H265745   3.236   6.209  12.566 -0.4390  1.5299 -1.7354
14752TIP3   OH265746   1.608   1.045   0.719 -0.4666  0.5951  0.0779
14752TIP3    H165747   1.590   1.044   0.813 -0.3043 -0.6968  0.1191
14752TIP3    H265748   1.698   1.014   0.711 -1.0971 -1.2089 -0.5791
14753TIP3   OH265749   1.917   1.899   5.554 -0.0191 -0.1869 -0.2314
14753TIP3    H165750   1.849   1.882   5.620  0.0326  1.9401  0.4317
14753TIP3    H265751   1.996   1.917   5.604  0.6912 -1.0945 -0.9715
14754TIP3   OH265752   1.181   6.668   2.711 -0.1204 -0.1674 -0.0923
14754TIP3    H165753   1.165   6.762   2.715  0.0362 -0.1308 -0.3096
14754TIP3    H265754   1.174   6.639   2.802 -0.8182 -0.0591 -0.1014
14755TIP3   OH265755   1.995   3.024   5.483  0.7284 -0.4389 -0.4141
14755TIP3    H165756   1.973   3.056   5.571  2.0916 -0.2717 -0.1069
14755TIP3    H265757   1.943   3.079   5.424  0.6337  0.2049  0.2473
14756TIP3   OH265758   2.510   3.749   3.132  0.3537 -0.3520 -0.5873
14756TIP3    H165759   2.442   3.751   3.065  1.2928  0.9248 -1.5584
14756TIP3    H265760   2.556   3.666   3.118 -0.1389 -0.5860 -0.8207
14757TIP3   OH265761   1.896   0.252   4.939 -0.4349 -0.3120  0.0855
14757TIP3    H165762   1.948   0.230   4.862 -1.7520 -1.6353 -0.4648
14757TIP3    H265763   1.946   0.321   4.983  2.0732 -1.8908 -0.1026
14758TIP3   OH265764   2.906   1.335   5.724 -0.2577  0.4008  0.2100
14758TIP3    H165765   2.970   1.330   5.795 -0.1441 -0.0087  0.0808
14758TIP3    H265766   2.955   1.372   5.651  0.5032 -2.0772 -0.6206
14759TIP3   OH265767   6.623   6.311   4.462 -0.3393 -0.7747  0.1515
14759TIP3    H165768   6.600   6.286   4.372 -0.3808 -0.9675  0.2149
14759TIP3    H265769   6.578   6.395   4.475  1.4588  0.3946 -0.7739
14760TIP3   OH265770   6.222   3.666   1.680  0.0286  0.2956 -0.4809
14760TIP3    H165771   6.317   3.658   1.694 -0.0572  2.6813  2.8813
14760TIP3    H265772   6.183   3.610   1.747 -0.9703 -0.3649 -1.5850
14761TIP3   OH265773   2.734   4.587  13.477  0.6301  0.0546 -0.3776
14761TIP3    H165774   2.645   4.595  13.444  0.7805  2.0887 -0.4251
14761TIP3    H265775   2.724   4.566  13.570 -0.1180  4.0302  0.6381
14762TIP3   OH265776   3.070   3.165   5.010 -0.5629  0.0563 -0.2477
14762TIP3    H165777   3.103   3.129   5.093 -0.0693  0.0274 -0.4519
14762TIP3    H265778   3.037   3.088   4.962 -1.7622  0.1909  0.3172
14763TIP3   OH265779   6.405   3.779  14.200  0.4031  0.1641 -0.0365
14763TIP3    H165780   6.491   3.764  14.160  1.3349  1.0413  1.5462
14763TIP3    H265781   6.405   3.726  14.279  0.2870  1.6209  0.9915
14764TIP3   OH265782   3.307   3.370  12.629 -0.5842 -0.4237  0.4056
14764TIP3    H165783   3.371   3.309  12.591 -0.3022  0.0491  0.1175
14764TIP3    H265784   3.227   3.318  12.636 -1.2795  0.0261 -2.8108
14765TIP3   OH265785   5.081   2.986   5.476 -0.2467 -0.0009  0.0045
14765TIP3    H165786   4.994   3.025   5.486 -0.1962 -0.1325  1.0864
14765TIP3    H265787   5.113   3.020   5.392 -0.6724  1.3675  0.3738
14766TIP3   OH265788   3.650   2.334  12.909 -0.1280  0.6823  0.1419
14766TIP3    H165789   3.590   2.371  12.844 -1.0198 -0.5998  0.1932
14766TIP3    H265790   3.668   2.406  12.969 -2.6243  0.8232  0.8334
14767TIP3   OH265791   5.123   0.316  14.241  0.2727 -0.3444  0.7942
14767TIP3    H165792   5.134   0.246  14.176 -0.0968 -0.1262  0.4951
14767TIP3    H265793   5.035   0.302  14.277  0.2327 -0.0897  0.7967
14768TIP3   OH265794   4.521   1.139   1.262  0.6982 -0.2294  0.5391
14768TIP3    H165795   4.542   1.151   1.354  2.4761 -1.8009  0.3878
14768TIP3    H265796   4.488   1.224   1.234  0.7333  0.4595  2.4536
14769TIP3   OH265797   4.674   4.559   1.107  0.2323 -0.2229 -0.2474
14769TIP3    H165798   4.618   4.632   1.132  0.4451  0.5484 -1.8823
14769TIP3    H265799   4.655   4.545   1.014 -0.1817 -2.6046  0.1180
14770TIP3   OH265800   0.077   1.620  14.376  0.2488 -0.3265 -0.3100
14770TIP3    H165801   0.089   1.579  14.291 -0.4350 -0.5776 -0.2920
14770TIP3    H265802   0.149   1.586  14.429  0.8682  0.0862 -0.8730
14771TIP3   OH265803   3.890   5.917  15.289  0.3637  0.0182  0.2892
14771TIP3    H165804   3.921   6.007  15.300 -1.8632  0.9395 -0.5203
14771TIP3    H265805   3.814   5.924  15.232  0.1760 -2.4157  0.1269
14772TIP3   OH265806   1.980   3.079  13.127  0.4897 -0.1758 -0.7744
14772TIP3    H165807   2.055   3.124  13.167 -1.3971  0.8164  1.9657
14772TIP3    H265808   1.944   3.143  13.065  0.2887  0.4807  0.0044
14773TIP3   OH265809   6.204   5.616   2.049  0.4569 -0.3577 -0.4089
14773TIP3    H165810   6.184   5.631   2.141  0.1777  0.7394 -0.6357
14773TIP3    H265811   6.121   5.632   2.003  1.0702  1.1602 -1.0467
14774TIP3   OH265812   5.815   4.339   3.135  0.1399  0.0267  0.4411
14774TIP3    H165813   5.854   4.404   3.193 -0.2464  0.3888  0.2998
14774TIP3    H265814   5.807   4.260   3.189  0.5154  0.1254  0.6426
14775TIP3   OH265815   1.446   2.061   1.980 -0.0522  0.1999 -0.2325
14775TIP3    H165816   1.379   2.066   1.912 -0.0009 -1.3127 -0.4222
14775TIP3    H265817   1.505   2.134   1.961 -1.8066  1.8159  0.1730
14776TIP3   OH265818   1.924   5.327   0.946 -0.3129 -0.4651 -0.0686
14776TIP3    H165819   1.891   5.365   1.027 -0.1958  0.1006 -0.2830
14776TIP3    H265820   1.852   5.273   0.914  0.2563 -2.1069  1.3043
14777TIP3   OH265821   3.998   5.015   0.939  0.0244 -0.5126 -0.1083
14777TIP3    H165822   3.962   5.101   0.960  0.9512  0.0149 -0.6042
14777TIP3    H265823   3.946   4.985   0.865 -1.8451 -1.4419  1.4825
14778TIP3   OH265824   4.807   2.588   0.664  0.7717  0.0507 -0.2900
14778TIP3    H165825   4.729   2.571   0.612 -0.0844  5.5975 -1.4277
14778TIP3    H265826   4.777   2.581   0.755 -0.4952  0.1823 -0.6847
14779TIP3   OH265827   3.909   1.337   2.520 -0.2909 -0.0166  0.2732
14779TIP3    H165828   3.948   1.359   2.604 -1.0340 -1.8919  1.1586
14779TIP3    H265829   3.960   1.262   2.488 -3.0881 -2.7111  1.5790
14780TIP3   OH265830   5.588   4.114   4.898 -0.1561  0.5310  0.2562
14780TIP3    H165831   5.584   4.125   4.993  2.8808  0.5157  0.4849
14780TIP3    H265832   5.540   4.032   4.882  1.0948 -0.6326  2.0765
14781TIP3   OH265833   2.165   5.276  17.217 -0.6223 -0.1261  0.5256
14781TIP3    H165834   2.173   5.227  17.299 -1.2374 -0.7983  0.1939
14781TIP3    H265835   2.201   5.362  17.237 -1.3497 -0.0751  1.6904
14782TIP3   OH265836   0.841   3.336  13.461 -0.5591  0.4937 -0.1383
14782TIP3    H165837   0.776   3.289  13.513 -0.5703  0.0891 -0.5211
14782TIP3    H265838   0.877   3.401  13.522  0.4059 -0.8550  0.8072
14783TIP3   OH265839   4.817   4.455   6.874 -0.2857 -0.5973 -0.1237
14783TIP3    H165840   4.829   4.441   6.780 -2.0648  1.7666 -0.7993
14783TIP3    H265841   4.759   4.385   6.902 -0.6475 -0.6783 -1.0454
14784TIP3   OH265842   3.546   2.404  17.385  0.2302  0.0136  0.2144
14784TIP3    H165843   3.451   2.407  17.371 -0.0650  1.0403  2.0023
14784TIP3    H265844   3.565   2.312  17.399 -0.8773 -0.0331  1.7467
14785TIP3   OH265845   6.526   6.680   1.449 -0.5435  0.1164 -0.2924
14785TIP3    H165846   6.511   6.586   1.453 -1.1046  0.2143  0.1176
14785TIP3    H265847   6.460   6.717   1.508  0.7014  0.6572  0.8294
14786TIP3   OH265848   6.444   5.780  13.541  0.1546 -0.4908  0.6295
14786TIP3    H165849   6.470   5.826  13.621  1.2120  1.6618 -0.8365
14786TIP3    H265850   6.516   5.796  13.480 -1.2140 -0.8928 -1.1792
14787TIP3   OH265851   4.435   2.494  13.106  0.3406 -0.0325  0.6404
14787TIP3    H165852   4.423   2.416  13.160 -0.0262 -0.1842  0.3500
14787TIP3    H265853   4.350   2.504  13.062  1.1347 -0.8846 -1.1821
14788TIP3   OH265854   2.003   2.640   0.591 -0.4243  0.3026 -0.8931
14788TIP3    H165855   1.942   2.595   0.650 -0.1863 -1.1818 -1.7225
14788TIP3    H265856   2.088   2.633   0.635 -0.0636 -1.6773 -1.7891
14789TIP3   OH265857   6.200   0.009   3.951  0.6965  0.5992  0.0020
14789TIP3    H165858   6.247   0.079   3.907  1.4720 -1.8684 -3.4790
14789TIP3    H265859   6.267  -0.056   3.972 -0.4527 -0.8996 -0.7272
14790TIP3   OH265860   1.668   3.171   1.577  0.3127  0.2843  0.2981
14790TIP3    H165861   1.621   3.131   1.503  0.9403  0.6913 -0.3276
14790TIP3    H265862   1.733   3.106   1.602  0.9652  0.6731 -0.3604
14791TIP3   OH265863   5.463   1.814  13.328  0.0737 -0.0414 -0.3632
14791TIP3    H165864   5.424   1.895  13.293 -0.2814 -0.4000 -0.8025
14791TIP3    H265865   5.510   1.777  13.253  1.7391  0.6558  0.2751
14792TIP3   OH265866   2.545   1.246  12.697 -0.1218 -0.1827  0.3001
14792TIP3    H165867   2.518   1.315  12.636 -0.6272 -0.5700  0.0711
14792TIP3    H265868   2.531   1.165  12.648  1.9555 -0.4134 -0.0058
14793TIP3   OH265869   3.858   0.780  14.969 -0.1612  0.1114  0.1509
14793TIP3    H165870   3.868   0.875  14.971  1.9591 -0.0149 -1.4202
14793TIP3    H265871   3.874   0.752  15.059  0.8265  1.1335  0.3138
14794TIP3   OH265872   6.517   3.972  10.799  0.1134 -0.1548 -0.1369
14794TIP3    H165873   6.586   4.016  10.749 -0.6160  0.0973 -0.9440
14794TIP3    H265874   6.436   4.000  10.758 -0.6700  1.4748  2.2900
14795TIP3   OH265875   5.676   1.757   2.359 -0.2845  0.3624  0.0249
14795TIP3    H165876   5.740   1.773   2.290 -0.6643 -0.5650 -0.5574
14795TIP3    H265877   5.592   1.781   2.319 -0.6000 -0.9505 -0.1249
14796TIP3   OH265878   3.115   1.761   5.496 -0.4828  0.2150  0.4027
14796TIP3    H165879   3.064   1.754   5.415  0.2259  1.6251 -0.2042
14796TIP3    H265880   3.205   1.741   5.468  0.0457  2.3238  0.4637
14797TIP3   OH265881   6.575   2.355  11.147 -0.0071 -0.1520  0.0502
14797TIP3    H165882   6.613   2.439  11.172  1.0112  0.4597 -3.1035
14797TIP3    H265883   6.650   2.303  11.120 -0.8277 -1.4215  0.1512
14798TIP3   OH265884   1.150   4.000  17.310  0.4901 -0.0454  0.0133
14798TIP3    H165885   1.141   3.995  17.405  1.7887  1.4392  0.2549
14798TIP3    H265886   1.232   4.046  17.296 -0.1927  0.7038 -1.8256
14799TIP3   OH265887   5.004   1.524  14.107  0.4299  0.1410  0.0901
14799TIP3    H165888   4.939   1.505  14.039  1.1143 -1.6235 -0.1275
14799TIP3    H265889   4.996   1.450  14.168 -0.1664  1.6678  1.9644
14800TIP3   OH265890   2.347   6.557  13.818  0.4861 -0.1712  0.1356
14800TIP3    H165891   2.405   6.490  13.854 -0.2012 -0.8166  0.0713
14800TIP3    H265892   2.374   6.638  13.861  0.2868 -0.7592  1.4117
14801TIP3   OH265893   3.553   4.398   7.135 -0.1513  0.3046  0.0740
14801TIP3    H165894   3.478   4.373   7.080  0.3111 -1.3500  0.1352
14801TIP3    H265895   3.514   4.442   7.210 -1.1493 -1.0947  0.4139
14802TIP3   OH265896   1.551   2.755   5.110 -0.4230 -0.0264 -0.3443
14802TIP3    H165897   1.580   2.811   5.039  0.0111  0.2385  0.0362
14802TIP3    H265898   1.483   2.699   5.071  0.5615 -0.6304 -1.2510
14803TIP3   OH265899   6.183   4.886  11.806 -0.1201 -0.2936 -0.0619
14803TIP3    H165900   6.197   4.811  11.748 -1.3610  0.5907 -1.5674
14803TIP3    H265901   6.218   4.857  11.891  1.1956 -1.8508 -1.0701
14804TIP3   OH265902   6.532   2.725   3.103  0.2342  0.4607  0.0391
14804TIP3    H165903   6.510   2.807   3.060  1.1363  1.4913  1.4193
14804TIP3    H265904   6.628   2.726   3.109  0.1688  0.4127  2.0185
14805TIP3   OH265905   3.904   5.849   6.112 -0.0153 -0.2478 -0.2307
14805TIP3    H165906   3.956   5.925   6.138  1.8874 -1.6020  0.1047
14805TIP3    H265907   3.830   5.848   6.172  1.4479 -0.2612  1.6449
14806TIP3   OH265908   1.592   5.032  15.066 -0.0813 -0.1143  0.3010
14806TIP3    H165909   1.536   5.107  15.044  1.0183  0.3849 -0.9488
14806TIP3    H265910   1.671   5.071  15.103  1.0264 -0.5411 -1.5141
14807TIP3   OH265911   1.545   3.414  16.074 -0.1009 -0.2948 -0.7678
14807TIP3    H165912   1.499   3.371  16.001 -2.0994  1.7164 -0.8006
14807TIP3    H265913   1.486   3.485  16.100  0.4949 -0.9837  2.9146
14808TIP3   OH265914   1.399   4.089  15.895 -0.0030 -0.0672  0.4643
14808TIP3    H165915   1.311   4.114  15.925 -0.6615 -0.3930 -1.0682
14808TIP3    H265916   1.458   4.148  15.941 -1.2262  1.7163 -0.1290
14809TIP3   OH265917   2.768   1.187   1.476 -0.3872  0.2274 -0.0784
14809TIP3    H165918   2.803   1.235   1.550  0.9521 -1.6311  0.5752
14809TIP3    H265919   2.781   1.095   1.499 -1.6342 -0.4380 -1.8195
14810TIP3   OH265920   4.411   1.372  16.565  0.4235  0.5685  0.3414
14810TIP3    H165921   4.485   1.316  16.587 -0.9105 -1.2694  0.4086
14810TIP3    H265922   4.341   1.344  16.624 -0.6081  1.6044 -0.3335
14811TIP3   OH265923   4.671   2.341   1.057  0.3374  0.3985  0.1318
14811TIP3    H165924   4.595   2.288   1.031  0.5513 -0.2804  0.8656
14811TIP3    H265925   4.651   2.371   1.146  0.3115  1.3981 -0.1923
14812TIP3   OH265926   0.355   0.183  15.242  0.2956 -0.0938  0.1786
14812TIP3    H165927   0.440   0.143  15.225  0.8409  0.9446  0.3591
14812TIP3    H265928   0.309   0.176  15.158  0.5276 -0.7124  0.0957
14813TIP3   OH265929   6.599   1.799   0.520 -0.3506 -0.1949 -0.1034
14813TIP3    H165930   6.570   1.739   0.588 -1.5125  2.8471  2.3622
14813TIP3    H265931   6.608   1.883   0.565  1.3122  1.5050 -3.2480
14814TIP3   OH265932   5.517   2.280  13.713  0.5421  0.0717  0.3714
14814TIP3    H165933   5.491   2.368  13.684  3.5167  0.8353 -0.2643
14814TIP3    H265934   5.488   2.223  13.642  1.1228  0.9465 -0.5946
14815TIP3   OH265935   4.683   2.559  16.760  0.2696  0.1698 -0.4611
14815TIP3    H165936   4.738   2.490  16.798 -0.5518 -0.1898  0.0953
14815TIP3    H265937   4.711   2.639  16.804  1.1609  0.1907 -1.0379
14816TIP3   OH265938   5.714   5.993   2.289 -0.3913  0.0626 -0.9376
14816TIP3    H165939   5.756   6.078   2.279 -0.7350  0.2787 -0.5695
14816TIP3    H265940   5.620   6.010   2.278 -0.3979 -0.4105 -1.7248
14817TIP3   OH265941   4.412   0.062   4.768  0.1005 -0.2557 -0.0141
14817TIP3    H165942   4.393   0.134   4.828  0.6216  0.2122 -0.3923
14817TIP3    H265943   4.413  -0.016   4.822  1.9111  0.3156  0.8521
14818TIP3   OH265944   6.178   1.269   0.207 -0.3612 -0.2451 -0.3543
14818TIP3    H165945   6.109   1.219   0.163  1.7952 -2.4794 -1.4680
14818TIP3    H265946   6.221   1.318   0.136  0.4068 -0.4075 -0.0116
14819TIP3   OH265947   3.040   0.448   2.105  0.1181 -0.3221  0.3444
14819TIP3    H165948   2.974   0.485   2.047  0.0236  0.1293  0.7310
14819TIP3    H265949   3.023   0.354   2.105 -0.9224 -0.1434  0.9267
14820TIP3   OH265950   4.328   1.643  11.943 -0.2321  0.1811 -0.1933
14820TIP3    H165951   4.337   1.732  11.976  1.5512  0.2434 -0.7199
14820TIP3    H265952   4.400   1.595  11.983  0.4483 -0.3519 -1.9531
14821TIP3   OH265953   5.096   2.517   0.169 -0.3335 -0.3268  0.5485
14821TIP3    H165954   5.187   2.508   0.139 -0.3484  2.2583 -0.5131
14821TIP3    H265955   5.101   2.569   0.249 -0.8837  0.0534  0.3428
14822TIP3   OH265956   6.235   6.429   1.909  0.1047  0.0656  0.3619
14822TIP3    H165957   6.166   6.494   1.917  0.1443 -0.0010  1.3744
14822TIP3    H265958   6.235   6.404   1.816 -1.0379  0.2578  0.3006
14823TIP3   OH265959   5.840   4.146   4.782  0.5257  0.8379  0.0129
14823TIP3    H165960   5.759   4.144   4.833  1.4953 -1.4708  1.6272
14823TIP3    H265961   5.811   4.138   4.691 -1.0643 -2.4163  0.6567
14824TIP3   OH265962   0.396   3.822  17.603 -0.1815 -0.0333 -0.2150
14824TIP3    H165963   0.359   3.816  17.514 -0.9255  0.4243  0.0524
14824TIP3    H265964   0.464   3.755  17.605 -0.6238 -0.5234 -0.9191
14825TIP3   OH265965   6.569   4.210  15.618 -0.8855 -0.0721  0.2909
14825TIP3    H165966   6.632   4.282  15.612 -0.5474 -0.2984  1.0339
14825TIP3    H265967   6.549   4.188  15.527  0.6500 -0.4658  0.0343
14826TIP3   OH265968   2.449   1.311   6.512 -0.0423  0.2559  0.1424
14826TIP3    H165969   2.473   1.367   6.438 -2.0714 -1.7662 -2.2045
14826TIP3    H265970   2.532   1.292   6.555  0.8062  5.0962  1.3337
14827TIP3   OH265971   3.079   0.581  14.008  0.4737  0.2734 -0.6532
14827TIP3    H165972   3.069   0.570  13.913  0.1065 -0.2462 -0.5604
14827TIP3    H265973   3.094   0.493  14.041 -1.2725  0.1733 -0.0147
14828TIP3   OH265974   5.470   3.249  15.948  0.4647 -0.4268  0.1813
14828TIP3    H165975   5.442   3.340  15.959  0.8815 -0.3744  0.8920
14828TIP3    H265976   5.408   3.212  15.885  0.6501  0.5125 -0.5846
14829TIP3   OH265977   5.620   2.563  14.978 -0.4825 -0.9222 -0.3694
14829TIP3    H165978   5.712   2.580  14.997 -0.2820 -0.2053 -1.8851
14829TIP3    H265979   5.598   2.622  14.907 -2.2392 -0.8134  0.2115
14830TIP3   OH265980   0.730   6.554   3.037  1.0405 -0.1851 -0.2845
14830TIP3    H165981   0.742   6.590   3.125  0.3386  0.7622 -0.5568
14830TIP3    H265982   0.690   6.625   2.987  0.0901 -1.1730 -0.9930
14831TIP3   OH265983   0.449   6.369   1.431 -0.0292 -0.1875  0.0413
14831TIP3    H165984   0.394   6.314   1.487 -2.2264 -0.3018 -2.0970
14831TIP3    H265985   0.394   6.445   1.410  2.0317  1.6732  0.8489
14832TIP3   OH265986   1.276   2.764   0.637  0.2722 -0.2694 -0.3759
14832TIP3    H165987   1.228   2.726   0.563  0.3469  0.4491 -0.8021
14832TIP3    H265988   1.333   2.830   0.598 -0.0258  0.4563  0.3638
14833TIP3   OH265989   4.476   4.141  11.906 -0.2874 -0.6690 -0.4331
14833TIP3    H165990   4.465   4.129  11.812  0.9541 -0.0332 -0.6778
14833TIP3    H265991   4.445   4.231  11.922  2.0754  0.2766 -0.7475
14834TIP3   OH265992   4.820   5.150  11.610 -0.0003  1.0000 -0.1531
14834TIP3    H165993   4.746   5.174  11.555  0.1882  0.8304 -0.4840
14834TIP3    H265994   4.783   5.138  11.697 -0.0977  2.4857  0.0248
14835TIP3   OH265995   5.146   4.676  11.194 -0.9091 -0.3414 -0.0890
14835TIP3    H165996   5.195   4.754  11.167 -0.2553 -0.5798  0.3665
14835TIP3    H265997   5.066   4.677  11.141 -1.5821  1.3952  0.8753
14836TIP3   OH265998   2.494   5.303   3.261 -0.4023  0.1943  0.2743
14836TIP3    H165999   2.415   5.265   3.300  0.5538 -1.2448  0.8889
14836TIP3    H266000   2.478   5.398   3.264 -1.3952  0.0289  1.9895
14837TIP3   OH266001   2.166   4.435  11.731  0.1964  0.6610 -0.2621
14837TIP3    H166002   2.257   4.441  11.702  0.2852  1.1866  0.1089
14837TIP3    H266003   2.114   4.458  11.653  0.3045 -1.4011 -0.9907
14838TIP3   OH266004   0.053   0.334  10.448  0.3628 -0.0711  0.2944
14838TIP3    H166005  -0.009   0.343  10.375  2.1949 -0.3969 -1.3756
14838TIP3    H266006   0.020   0.259  10.498  0.4051 -1.4868 -1.6706
14839TIP3   OH266007   2.291   6.077  17.175  0.8679  0.0257  0.3874
14839TIP3    H166008   2.296   6.166  17.211  0.0967 -0.7873  2.6903
14839TIP3    H266009   2.375   6.037  17.196  2.4207  0.9825 -3.2244
14840TIP3   OH266010   0.270   6.338  15.624  0.4176 -0.2607  0.1990
14840TIP3    H166011   0.304   6.360  15.711 -0.5675  0.5420  0.4078
14840TIP3    H266012   0.311   6.254  15.603  3.5350  1.2214 -0.1749
14841TIP3   OH266013   3.609   1.704  14.413  0.2819  0.0937  0.3346
14841TIP3    H166014   3.539   1.769  14.413  0.5878  0.4984  2.3767
14841TIP3    H266015   3.687   1.754  14.438  1.2088 -0.4738 -1.2752
14842TIP3   OH266016   3.141   6.562   1.748 -0.0726  0.0306 -0.2698
14842TIP3    H166017   3.213   6.520   1.795 -1.1931 -0.8989  0.6747
14842TIP3    H266018   3.096   6.614   1.815 -1.8934 -1.5808 -0.1880
14843TIP3   OH266019   6.323   4.966   4.802 -0.3710  0.4701 -0.0388
14843TIP3    H166020   6.339   5.057   4.779  1.7278  0.7912  2.3110
14843TIP3    H266021   6.230   4.962   4.823 -0.0765  2.6957  2.0786
14844TIP3   OH266022   0.351   5.965   6.268  0.0727 -0.1080 -0.9042
14844TIP3    H166023   0.280   6.025   6.250 -0.7363  0.0653  2.2761
14844TIP3    H266024   0.426   6.002   6.222 -0.8816  2.2221 -0.7294
14845TIP3   OH266025   0.716   3.657  12.439 -0.1073  0.1996  0.3436
14845TIP3    H166026   0.697   3.589  12.375 -0.3991 -0.8082  1.4562
14845TIP3    H266027   0.770   3.721  12.392  2.1038 -1.8927 -0.1412
14846TIP3   OH266028   1.321   3.915   5.647  0.4783 -0.0279 -0.0660
14846TIP3    H166029   1.236   3.942   5.612  1.7615  4.4626 -0.3757
14846TIP3    H266030   1.310   3.921   5.742  0.0839 -0.8954 -0.0508
14847TIP3   OH266031   3.443   0.858   5.233  0.3701 -0.0191  0.3433
14847TIP3    H166032   3.434   0.932   5.174 -1.4482  1.0520  1.8808
14847TIP3    H266033   3.358   0.814   5.231  1.7897 -3.0787 -1.6664
14848TIP3   OH266034   2.767   1.984  17.233  0.6588 -0.0805 -0.4711
14848TIP3    H166035   2.825   2.044  17.279  1.3451 -1.0570 -0.0382
14848TIP3    H266036   2.703   1.957  17.299 -0.6683  1.4104 -1.0791
14849TIP3   OH266037   5.810   2.055   3.378 -0.4685 -0.2407  0.3092
14849TIP3    H166038   5.883   2.086   3.325  1.1002  0.7499  2.8230
14849TIP3    H266039   5.766   2.135   3.407  0.0349 -0.5872  2.1597
14850TIP3   OH266040   0.925   4.268  13.934 -0.0929  0.3849 -0.1096
14850TIP3    H166041   0.912   4.363  13.933  1.3212  0.6064 -0.6847
14850TIP3    H266042   1.002   4.254  13.878  0.0998 -1.0411  0.4661
14851TIP3   OH266043   1.924   6.174   5.772 -0.3581  0.0729 -0.4661
14851TIP3    H166044   1.949   6.250   5.720 -1.2171  0.6085 -0.1343
14851TIP3    H266045   1.828   6.180   5.777 -0.2718  0.4131  1.6882
14852TIP3   OH266046   6.048   3.860  15.402 -0.0637  0.1204  0.9033
14852TIP3    H166047   6.028   3.766  15.403  1.9492 -0.3769 -0.6577
14852TIP3    H266048   6.109   3.871  15.330 -0.6003  2.7445  0.7518
14853TIP3   OH266049   3.809   0.511  17.468 -0.1133  0.0328  0.4594
14853TIP3    H166050   3.850   0.547  17.547 -1.7270  0.4906  1.1286
14853TIP3    H266051   3.829   0.418  17.471 -0.3562 -0.0032  1.5609
14854TIP3   OH266052   0.021   1.163   0.587  0.3650  0.0038  0.0495
14854TIP3    H166053  -0.019   1.239   0.544  2.5166 -0.3301 -2.7877
14854TIP3    H266054   0.114   1.183   0.591  0.7649 -1.7813  0.8688
14855TIP3   OH266055   4.239   5.085  16.033  0.1030 -0.0091  0.2988
14855TIP3    H166056   4.248   5.003  15.986  1.0068 -0.9904  2.0729
14855TIP3    H266057   4.327   5.123  16.033  0.3113 -0.4064  1.7707
14856TIP3   OH266058   1.641   3.427   0.278  0.0490 -0.0331  0.1806
14856TIP3    H166059   1.606   3.447   0.191 -0.3874  0.6854  0.5137
14856TIP3    H266060   1.694   3.348   0.265 -1.0739 -0.7045 -0.4873
14857TIP3   OH266061   5.857   5.517   1.483  0.3032  0.0149 -0.1409
14857TIP3    H166062   5.776   5.537   1.436  0.5812 -0.0848 -0.6830
14857TIP3    H266063   5.914   5.477   1.416  1.3398  1.4211 -0.1515
14858TIP3   OH266064   0.271   1.935   1.682  0.7823 -0.1910  0.2560
14858TIP3    H166065   0.260   1.849   1.640  3.4789  0.4890 -2.1552
14858TIP3    H266066   0.183   1.974   1.680 -0.0272 -1.9258 -0.8084
14859TIP3   OH266067   1.338   5.431   5.266  0.1114 -0.6481 -0.0536
14859TIP3    H166068   1.426   5.467   5.276 -0.2709  0.4488 -0.5349
14859TIP3    H266069   1.334   5.404   5.174 -0.5846  0.7801 -0.4547
14860TIP3   OH266070   0.323   3.425   3.170  0.0770  1.0912  0.1742
14860TIP3    H166071   0.284   3.468   3.246 -0.9290  0.2961  0.1250
14860TIP3    H266072   0.327   3.494   3.104 -2.8611  0.8627 -0.3907
14861TIP3   OH266073   6.303   2.802  14.455  0.3471  0.7212 -0.5019
14861TIP3    H166074   6.213   2.827  14.435 -0.2323  0.0022  1.0790
14861TIP3    H266075   6.338   2.877  14.503  0.2116  0.5350 -0.1087
14862TIP3   OH266076   5.543   0.522  11.896 -0.8327 -0.1326  0.7638
14862TIP3    H166077   5.538   0.551  11.805 -0.1551  1.9667  1.3401
14862TIP3    H266078   5.456   0.487  11.915 -1.3123  0.4003 -0.3797
14863TIP3   OH266079   5.387   3.187   1.484 -0.0163  0.6595  0.1427
14863TIP3    H166080   5.298   3.202   1.452  0.2495 -1.0177 -1.6063
14863TIP3    H266081   5.440   3.250   1.435 -0.2540  2.2263  1.7728
14864TIP3   OH266082   2.431   4.628   3.509  0.5510  0.5742 -0.2643
14864TIP3    H166083   2.384   4.696   3.557 -0.4810 -0.1118 -0.2815
14864TIP3    H266084   2.379   4.615   3.430 -0.8270 -2.1295  0.9760
14865TIP3   OH266085   0.743   0.200   3.426  0.1988  0.2824  0.0173
14865TIP3    H166086   0.702   0.222   3.342 -0.3180  0.6407  0.3576
14865TIP3    H266087   0.801   0.274   3.445  0.0123  0.3912  0.1679
14866TIP3   OH266088   0.725   3.168   2.380  0.7652 -0.1327  0.0263
14866TIP3    H166089   0.649   3.225   2.388  0.7340 -0.1207 -0.3495
14866TIP3    H266090   0.691   3.080   2.393  0.2917 -0.3421 -2.2312
14867TIP3   OH266091   3.239   0.537   5.761  0.1608  0.0974 -0.0764
14867TIP3    H166092   3.299   0.563   5.691  0.8059 -1.9046 -0.3168
14867TIP3    H266093   3.202   0.454   5.732  0.4035 -0.7635  1.9385
14868TIP3   OH266094   6.515   0.556  13.318 -0.4151 -0.0189 -0.4184
14868TIP3    H166095   6.524   0.608  13.397  0.1960  2.2749 -1.8999
14868TIP3    H266096   6.565   0.604  13.252 -2.0508 -1.0866 -2.5532
14869TIP3   OH266097   4.139   3.561  17.581  0.7423  0.2171  0.4405
14869TIP3    H166098   4.157   3.504  17.656  2.3265  0.7024  0.4545
14869TIP3    H266099   4.187   3.520  17.508 -1.5362 -0.7948 -0.6112
14870TIP3   OH266100   6.411   0.083  17.122 -0.2180  1.0490  0.3250
14870TIP3    H166101   6.345   0.015  17.127  0.3584  0.5803  2.3638
14870TIP3    H266102   6.384   0.149  17.186 -0.7865  2.8328 -1.6235
14871TIP3   OH266103   4.967   2.809   0.751 -0.0927 -0.2102 -0.0869
14871TIP3    H166104   4.948   2.867   0.677  0.3016 -1.0381 -0.8518
14871TIP3    H266105   4.925   2.726   0.728 -0.3987 -0.3178  0.8567
14872TIP3   OH266106   6.125   3.256  16.056  0.3892  0.6100 -0.7063
14872TIP3    H166107   6.043   3.259  16.008 -0.9170 -0.3180  1.3400
14872TIP3    H266108   6.158   3.166  16.043  0.4468  0.6053 -0.5369
14873TIP3   OH266109   5.961   6.192   0.626 -0.0888 -0.0435 -0.0136
14873TIP3    H166110   5.996   6.222   0.542 -2.5141  1.0822 -0.7054
14873TIP3    H266111   5.878   6.149   0.604 -0.2621 -0.6907  1.7230
14874TIP3   OH266112   3.206   5.422   0.331 -0.0630 -0.0055  0.2586
14874TIP3    H166113   3.130   5.481   0.331  0.3272  0.5183 -1.1043
14874TIP3    H266114   3.278   5.475   0.366  0.5926  0.7927 -2.1414
14875TIP3   OH266115   6.435   3.828  11.027 -0.4116 -0.1433  0.1533
14875TIP3    H166116   6.484   3.871  10.957  1.2837  1.1311  2.0196
14875TIP3    H266117   6.346   3.862  11.019 -0.5803 -0.9754 -2.0872
14876TIP3   OH266118   4.850   5.169   6.250 -0.5129  0.9315 -0.0057
14876TIP3    H166119   4.906   5.241   6.221 -2.1054  1.8110 -1.0476
14876TIP3    H266120   4.811   5.202   6.332  0.1973  0.4621  0.5315
14877TIP3   OH266121   1.698   0.093   2.302 -0.0028 -0.3303 -0.2286
14877TIP3    H166122   1.709   0.033   2.228 -3.7914 -0.5866 -0.7554
14877TIP3    H266123   1.680   0.035   2.377  1.0493  0.0378  0.3295
14878TIP3   OH266124   3.522   2.321  14.983 -0.2520 -0.0697 -0.6923
14878TIP3    H166125   3.467   2.260  15.033  0.1479 -0.3452 -0.5785
14878TIP3    H266126   3.503   2.407  15.021  0.4999 -0.3509  0.3606
14879TIP3   OH266127   6.409   5.808   1.218  0.4730 -0.1249 -0.1134
14879TIP3    H166128   6.330   5.777   1.262  0.0630  0.5799 -0.3395
14879TIP3    H266129   6.473   5.738   1.232 -0.8003 -1.7179 -1.7475
14880TIP3   OH266130   5.081   2.515   1.243  0.1860  0.5693  0.4496
14880TIP3    H166131   5.069   2.512   1.148  0.3421 -0.0152  0.4429
14880TIP3    H266132   5.018   2.580   1.273  0.7836  1.4406 -0.1529
14881TIP3   OH266133   3.184   4.666   3.915  0.2732  0.4170 -0.3059
14881TIP3    H166134   3.132   4.673   3.835 -2.0282 -0.6596  0.9634
14881TIP3    H266135   3.193   4.756   3.946 -1.0442  0.6346 -0.4900
14882TIP3   OH266136   2.259   1.190  12.829 -0.7800  0.6526 -0.2496
14882TIP3    H166137   2.350   1.216  12.815  0.0038 -1.6477  0.1617
14882TIP3    H266138   2.234   1.236  12.909  0.1805  0.9605 -0.1055
14883TIP3   OH266139   0.157   0.006   2.440 -0.2063  0.8053 -0.1657
14883TIP3    H166140   0.079   0.053   2.410 -0.3169  0.7393  0.0186
14883TIP3    H266141   0.146  -0.082   2.406  0.5354  1.1876 -1.4578
14884TIP3   OH266142   1.319   3.912  12.612  0.2678  0.6314 -0.0607
14884TIP3    H166143   1.247   3.861  12.575 -0.2851  0.4974  1.1729
14884TIP3    H266144   1.345   3.971  12.541 -0.6384  0.2609 -0.7214
14885TIP3   OH266145   0.515   6.234   2.107  0.1925 -0.0158 -0.1723
14885TIP3    H166146   0.492   6.282   2.028 -1.0271  0.1412  0.2512
14885TIP3    H266147   0.557   6.300   2.163 -2.2669  0.8880  0.7669
14886TIP3   OH266148   1.702   0.975  15.940  0.0499 -0.0897 -0.4266
14886TIP3    H166149   1.608   0.958  15.942  0.1036 -0.4229 -0.6573
14886TIP3    H266150   1.735   0.922  15.867  0.4250 -0.0163 -0.3146
14887TIP3   OH266151   1.302   3.041  14.741  0.0278 -0.1058  0.7746
14887TIP3    H166152   1.303   3.078  14.830 -1.0464  2.7050 -0.2580
14887TIP3    H266153   1.366   3.093  14.693 -1.2470  0.1866 -0.6860
14888TIP3   OH266154   2.268   5.515   3.746 -0.0690  0.4421 -0.0018
14888TIP3    H166155   2.313   5.599   3.760 -2.4537  1.6710  0.7698
14888TIP3    H266156   2.219   5.501   3.827 -0.2382 -1.3911 -0.3857
14889TIP3   OH266157   3.885   1.489  11.442 -0.4683 -0.6013 -0.2661
14889TIP3    H166158   3.826   1.452  11.375  0.6689 -1.6549 -0.7285
14889TIP3    H266159   3.962   1.432  11.439  1.4334  1.8715 -1.0664
14890TIP3   OH266160   5.215   6.729  16.382  0.0019  0.1240 -0.1562
14890TIP3    H166161   5.271   6.652  16.385 -0.9488 -0.5982 -0.3033
14890TIP3    H266162   5.214   6.755  16.290 -1.0688 -0.7791 -0.4277
14891TIP3   OH266163   0.624   4.308   3.025  0.6582  0.3572  0.4972
14891TIP3    H166164   0.670   4.384   3.060 -1.4326  2.0132 -0.1680
14891TIP3    H266165   0.569   4.277   3.097 -0.1000  0.8360  0.1371
14892TIP3   OH266166   6.114   4.656   2.893 -0.1155  0.3465  0.4042
14892TIP3    H166167   6.121   4.656   2.798 -1.5771  1.2929  0.2672
14892TIP3    H266168   6.067   4.737   2.914 -0.0290  0.0353  1.9098
14893TIP3   OH266169   0.915   5.456   3.090  0.5766  0.2929  0.2791
14893TIP3    H166170   0.895   5.364   3.070 -2.1644  1.0041 -0.6651
14893TIP3    H266171   0.963   5.452   3.173  0.8107 -1.9991  0.1125
14894TIP3   OH266172   4.131   4.038   2.775  0.0545 -0.0793 -0.6621
14894TIP3    H166173   4.197   3.969   2.780  0.5084  0.2461 -1.6656
14894TIP3    H266174   4.119   4.067   2.865  0.5093 -0.8667 -0.3399
14895TIP3   OH266175   6.177   5.942  14.129 -0.0969 -0.1274 -0.0596
14895TIP3    H166176   6.127   5.860  14.136 -0.2738 -0.0006  0.1842
14895TIP3    H266177   6.111   6.010  14.138  0.2139  0.0497  1.0394
14896TIP3   OH266178   5.396   0.683  12.441  0.0569 -0.5198  0.4102
14896TIP3    H166179   5.438   0.635  12.513  0.9334  1.7370  1.5147
14896TIP3    H266180   5.442   0.652  12.362  0.8543 -1.1977  1.1073
14897TIP3   OH266181   1.855   6.113  11.925 -0.0606  0.1731  0.1569
14897TIP3    H166182   1.855   6.108  12.020 -1.8832  3.2279  0.4283
14897TIP3    H266183   1.764   6.130  11.901  0.6420  1.3827 -1.9632
14898TIP3   OH266184   6.620   5.920   4.148  0.6368  0.0341  0.3088
14898TIP3    H166185   6.644   5.947   4.060 -0.9741  2.8021  0.6159
14898TIP3    H266186   6.697   5.875   4.181  0.8840 -2.2441 -2.8650
14899TIP3   OH266187   6.393   2.221  14.088 -0.1096 -0.5387  0.1531
14899TIP3    H166188   6.388   2.219  13.993  0.1489  0.6609  0.0980
14899TIP3    H266189   6.311   2.181  14.118 -1.9354  2.3187 -0.6019
14900TIP3   OH266190   3.037   3.085   2.988  0.3026  0.4707  0.2088
14900TIP3    H166191   3.075   2.998   2.976 -0.3642  0.3643 -1.3604
14900TIP3    H266192   2.944   3.069   3.001 -0.2699  1.0103 -2.6311
14901TIP3   OH266193   2.521   6.551   4.407  0.4328 -0.6195 -0.1705
14901TIP3    H166194   2.474   6.481   4.453 -0.2259  0.4039  0.7742
14901TIP3    H266195   2.452   6.606   4.370  0.8868  0.5222  0.6456
14902TIP3   OH266196   5.908   0.609   2.286 -0.7063 -0.1816 -0.2180
14902TIP3    H166197   6.003   0.603   2.279 -0.8068 -1.2689 -0.9197
14902TIP3    H266198   5.892   0.660   2.365  0.4538 -0.9897  0.5476
14903TIP3   OH266199   0.601   0.784   3.549 -0.6447 -0.4633  0.3105
14903TIP3    H166200   0.695   0.768   3.541 -0.3554  1.6894 -1.9998
14903TIP3    H266201   0.590   0.873   3.514 -4.0416 -2.1468 -3.6410
14904TIP3   OH266202   5.392   3.246   6.455  0.0345 -0.2881 -0.8066
14904TIP3    H166203   5.335   3.307   6.408 -1.2613 -1.1737 -0.4374
14904TIP3    H266204   5.435   3.299   6.522 -2.0089  0.0286  0.3304
14905TIP3   OH266205   4.794   4.230  12.208  0.1845  0.1878 -0.4310
14905TIP3    H166206   4.851   4.245  12.284  1.0328  1.5493 -1.2832
14905TIP3    H266207   4.788   4.316  12.166 -1.8794 -0.1150 -0.8224
14906TIP3   OH266208   2.178   6.132  13.616  0.2948 -0.1080  0.0408
14906TIP3    H166209   2.185   6.220  13.579  4.9076 -0.7516 -1.2282
14906TIP3    H266210   2.118   6.141  13.690 -0.1487  3.8322 -0.6078
14907TIP3   OH266211   2.972   3.509   3.519  0.3808 -0.3414  0.5097
14907TIP3    H166212   2.981   3.557   3.437  1.6664 -0.9271  0.2891
14907TIP3    H266213   3.053   3.459   3.527  0.7192  0.4363  2.6127
14908TIP3   OH266214   6.410   5.799  16.465 -0.0372  0.3156  0.2274
14908TIP3    H166215   6.328   5.832  16.429  0.6436  1.6765 -0.1800
14908TIP3    H266216   6.387   5.764  16.551 -1.0528  0.6352  0.0957
14909TIP3   OH266217   4.286   0.923   5.001 -0.2160  0.0985 -0.0677
14909TIP3    H166218   4.325   0.857   4.944  0.8133 -0.3892  1.1475
14909TIP3    H266219   4.196   0.895   5.012 -0.0054 -0.6640 -0.2129
14910TIP3   OH266220   3.345   2.587  16.708 -0.6024 -0.0118 -0.7823
14910TIP3    H166221   3.368   2.605  16.799 -1.7857 -1.6607 -0.1078
14910TIP3    H266222   3.353   2.672  16.664  1.5243  0.5067  0.4764
14911TIP3   OH266223   0.254   4.539  14.637  0.1456  0.2638  0.2520
14911TIP3    H166224   0.197   4.559  14.562  0.9968  1.9272  0.0072
14911TIP3    H266225   0.313   4.471  14.604 -0.1502  0.2479 -0.2642
14912TIP3   OH266226   4.078   3.147   6.970 -0.0790  0.4808 -0.6995
14912TIP3    H166227   4.071   3.068   6.916  0.4197  0.5901 -0.9282
14912TIP3    H266228   4.149   3.197   6.930  0.6302  0.3341  0.3413
14913TIP3   OH266229   4.011   3.389   4.352  0.1300 -0.2766 -0.3476
14913TIP3    H166230   4.040   3.354   4.436  0.0199  0.1056 -0.1475
14913TIP3    H266231   4.018   3.315   4.292  0.2971 -0.5288 -0.0236
14914TIP3   OH266232   1.024   0.141  17.230  0.1779  0.4921  0.1726
14914TIP3    H166233   1.117   0.121  17.225  0.0682 -0.1471  0.4866
14914TIP3    H266234   1.007   0.156  17.323  0.0318  0.9394  0.0743
14915TIP3   OH266235   2.061   0.726  17.579 -0.1285 -0.4784 -0.0907
14915TIP3    H166236   2.061   0.656  17.515  0.6010 -0.2078 -0.3969
14915TIP3    H266237   2.008   0.795  17.539  1.4397  0.2287 -1.0322
14916TIP3   OH266238   6.003   1.646   0.660  1.0718  0.2811  0.0456
14916TIP3    H166239   5.999   1.687   0.746 -2.2208  1.7302 -0.6582
14916TIP3    H266240   6.035   1.557   0.678  1.6112  0.8941  2.5555
14917TIP3   OH266241   5.211   2.935  11.447  0.6348 -0.1893  0.2839
14917TIP3    H166242   5.120   2.922  11.475  0.5328  0.0356  0.0670
14917TIP3    H266243   5.208   2.925  11.352  0.7611  0.2266  0.2325
14918TIP3   OH266244   3.318   4.863  13.877  0.0297  0.2419  0.5638
14918TIP3    H166245   3.348   4.776  13.852 -0.9985 -0.8455  2.8273
14918TIP3    H266246   3.370   4.886  13.953  0.6842  1.9053 -0.3306
14919TIP3   OH266247   1.095   4.837  14.626  0.0562  0.1434  0.5245
14919TIP3    H166248   1.030   4.883  14.680 -1.7361  0.0499 -1.4129
14919TIP3    H266249   1.174   4.889  14.635 -1.0166  1.7988  0.9350
14920TIP3   OH266250   2.840   0.024   0.696 -0.0717  0.1083 -0.4417
14920TIP3    H166251   2.827  -0.023   0.779 -0.4136 -2.6445 -1.9300
14920TIP3    H266252   2.928  -0.000   0.668 -0.3987  0.0386 -1.4461
14921TIP3   OH266253   3.837   2.542  17.262 -0.0172 -0.2052 -0.2373
14921TIP3    H166254   3.851   2.630  17.298  0.2113 -0.5828  0.6340
14921TIP3    H266255   3.780   2.499  17.326  0.8248 -1.0691 -0.0376
14922TIP3   OH266256   0.532   4.708   0.254  0.1923  0.4134  0.2246
14922TIP3    H166257   0.579   4.625   0.250  0.0790  0.3061  0.8850
14922TIP3    H266258   0.586   4.769   0.204  0.4406  0.0204  0.0078
14923TIP3   OH266259   2.355   5.887  17.450  0.1623  0.6018 -0.5795
14923TIP3    H166260   2.266   5.893  17.416  0.2602 -1.3449 -1.2771
14923TIP3    H266261   2.346   5.838  17.532  0.7807 -1.4731 -1.6933
14924TIP3   OH266262   3.049   5.445  12.359 -0.5248 -0.3155  0.2877
14924TIP3    H166263   3.049   5.448  12.264  0.2770 -0.3587  0.2799
14924TIP3    H266264   2.957   5.437  12.383 -0.8236  0.6967 -0.4454
14925TIP3   OH266265   6.682   3.113  12.909 -0.0554  0.1915 -0.4987
14925TIP3    H166266   6.739   3.046  12.871 -2.9352 -3.6147  1.1696
14925TIP3    H266267   6.623   3.138  12.838  0.3805  0.1560 -0.8734
14926TIP3   OH266268   3.154   3.351   6.363  0.1582 -0.9867 -0.0917
14926TIP3    H166269   3.174   3.420   6.426 -0.1904 -0.9011 -0.0744
14926TIP3    H266270   3.074   3.309   6.397 -1.4332  0.5935 -1.6922
14927TIP3   OH266271   4.068   1.852  14.730  0.1608 -0.0181  0.2426
14927TIP3    H166272   4.107   1.765  14.742 -0.6867 -0.3898  0.3302
14927TIP3    H266273   4.025   1.870  14.813 -0.2178  0.2075 -0.0052
14928TIP3   OH266274   1.132   0.424  14.986  0.1643  0.0648  0.2474
14928TIP3    H166275   1.100   0.383  15.067  0.2866 -0.7699 -0.1152
14928TIP3    H266276   1.187   0.357  14.946 -0.7997  0.0506 -1.1035
14929TIP3   OH266277   1.042   4.837  11.549  0.0049 -0.3206 -0.3060
14929TIP3    H166278   0.972   4.831  11.615  1.0054 -2.7351  0.6820
14929TIP3    H266279   1.012   4.780  11.478 -0.4038  1.1179 -1.3141
14930TIP3   OH266280   3.130   2.182   1.853  0.5269  0.0655 -0.6016
14930TIP3    H166281   3.069   2.122   1.811 -0.7421  0.9751 -0.1006
14930TIP3    H266282   3.143   2.146   1.941  0.9336 -0.2591 -0.7866
14931TIP3   OH266283   2.314   5.823   1.444 -0.3401  0.1612  0.1966
14931TIP3    H166284   2.311   5.883   1.519  3.5079 -1.7654  2.1566
14931TIP3    H266285   2.396   5.844   1.401 -1.0463 -0.8518 -1.7248
14932TIP3   OH266286   3.135   3.096  11.828 -0.6486  0.3346  0.5333
14932TIP3    H166287   3.109   3.183  11.798  1.0475  0.1868 -1.6017
14932TIP3    H266288   3.057   3.061  11.871 -1.0215  3.3141  2.5597
14933TIP3   OH266289   2.801   5.714  17.408  0.0810 -0.5309  0.1394
14933TIP3    H166290   2.737   5.677  17.347 -1.0391  1.4737  0.0196
14933TIP3    H266291   2.761   5.795  17.439  2.7179  1.0214 -0.2221
14934TIP3   OH266292   6.726   2.861  15.647  0.3703  0.4807 -0.3062
14934TIP3    H166293   6.658   2.921  15.677  0.6050  0.0488  1.1555
14934TIP3    H266294   6.710   2.780  15.696  0.4952 -0.4294 -1.7053
14935TIP3   OH266295   5.303   0.964  12.061 -0.0873  0.1791  0.0219
14935TIP3    H166296   5.380   0.909  12.048 -0.7316 -0.7844  0.1404
14935TIP3    H266297   5.233   0.919  12.013 -0.5099  1.2147 -0.3746
14936TIP3   OH266298   6.114   1.294  10.816  0.1460 -0.4973  0.6615
14936TIP3    H166299   6.111   1.380  10.775  0.9990 -0.2309  1.1470
14936TIP3    H266300   6.170   1.305  10.892 -0.5417 -1.2508  1.2916
14937TIP3   OH266301   1.495   0.498  11.350 -0.4306  0.0908 -0.2227
14937TIP3    H166302   1.487   0.552  11.429  0.5036 -1.5429  1.0401
14937TIP3    H266303   1.563   0.541  11.298 -0.1484  0.4680  0.4578
14938TIP3   OH266304   2.103   2.086  15.625 -0.0085 -0.5165  0.1438
14938TIP3    H166305   2.067   2.028  15.693  2.5434 -1.9584  0.4240
14938TIP3    H266306   2.154   2.151  15.673 -1.7512  1.2355 -0.2524
14939TIP3   OH266307   4.872   0.923   0.339 -0.2744 -0.6854 -0.6493
14939TIP3    H166308   4.913   0.955   0.259  0.2298 -0.4728 -0.3111
14939TIP3    H266309   4.871   0.999   0.398 -1.7876 -0.4883 -0.8836
14940TIP3   OH266310   1.751   4.236   6.104 -0.4005 -0.7110  0.3622
14940TIP3    H166311   1.804   4.255   6.027 -3.6912 -2.8746 -2.7583
14940TIP3    H266312   1.808   4.185   6.162  2.0042  0.4579 -0.8521
14941TIP3   OH266313   6.677   4.050  15.335 -0.0818  0.0406  0.3824
14941TIP3    H166314   6.749   4.109  15.312 -1.1657  1.4333  0.4514
14941TIP3    H266315   6.598   4.098  15.310 -0.9896 -1.7588 -0.4094
14942TIP3   OH266316   4.983   3.894   1.511 -0.0443  0.3317 -0.1313
14942TIP3    H166317   5.026   3.947   1.579  0.4979 -0.1833 -0.0694
14942TIP3    H266318   4.947   3.959   1.450  1.6684  0.7828 -0.7059
14943TIP3   OH266319   3.900   2.786  15.457 -0.1319  0.5207  0.5872
14943TIP3    H166320   3.988   2.819  15.474 -0.8964  2.1594  1.5376
14943TIP3    H266321   3.883   2.809  15.366  0.4522  0.0809  0.3604
14944TIP3   OH266322   3.464   5.202  11.734 -0.4737 -0.1372 -0.4331
14944TIP3    H166323   3.403   5.195  11.661  1.2227  1.2724 -2.1256
14944TIP3    H266324   3.413   5.238  11.806 -1.3664  2.5728 -2.2785
14945TIP3   OH266325   2.271   6.228  15.290  0.0289 -0.2712  0.1319
14945TIP3    H166326   2.275   6.166  15.217 -0.3651 -1.1985  0.8889
14945TIP3    H266327   2.245   6.175  15.366  1.8000  0.3931  1.2682
14946TIP3   OH266328   4.453   5.624  17.183 -0.0401  0.2127 -0.8944
14946TIP3    H166329   4.362   5.594  17.188 -0.5465  1.6640 -0.6934
14946TIP3    H266330   4.462   5.683  17.259  0.5668  1.3145 -1.7928
14947TIP3   OH266331   5.786   3.355   2.015 -0.0091 -0.2768 -0.1337
14947TIP3    H166332   5.802   3.329   2.105 -1.1787 -2.3887 -0.4564
14947TIP3    H266333   5.725   3.289   1.982  0.8288  0.0965 -2.6365
14948TIP3   OH266334   4.562   5.517  16.565 -0.5016  0.1643 -0.5044
14948TIP3    H166335   4.512   5.588  16.605 -1.8303 -0.9037 -0.1906
14948TIP3    H266336   4.652   5.530  16.596 -1.0140  0.8275  0.7799
14949TIP3   OH266337   2.811   4.153  15.758  0.5473  0.0120 -0.0514
14949TIP3    H166338   2.814   4.172  15.664 -0.0303  0.3055 -0.0133
14949TIP3    H266339   2.806   4.057  15.762 -0.4052  0.0339 -0.3594
14950TIP3   OH266340   5.485   4.382  12.216  0.3184 -0.1069 -0.1848
14950TIP3    H166341   5.481   4.304  12.161 -1.8249 -1.0923  1.2494
14950TIP3    H266342   5.524   4.352  12.298  3.9157  1.4416 -1.0830
14951TIP3   OH266343   2.730   4.212  15.492 -0.7262  0.3456 -0.4252
14951TIP3    H166344   2.789   4.265  15.437  1.5762 -1.8036 -0.2047
14951TIP3    H266345   2.727   4.127  15.449 -0.6105 -0.7313  1.5963
14952TIP3   OH266346   4.102   5.021  13.262  0.1157  0.0872  0.4475
14952TIP3    H166347   4.111   4.932  13.229  2.5907 -0.0546  1.2673
14952TIP3    H266348   4.043   5.014  13.337  1.1771 -1.1031  1.2022
14953TIP3   OH266349   6.258   4.327  11.864  0.0393  0.3430 -1.2587
14953TIP3    H166350   6.223   4.268  11.797 -3.8722 -0.2421  1.0180
14953TIP3    H266351   6.319   4.273  11.915 -1.1622 -0.8561 -1.0579
14954TIP3   OH266352   5.999   6.318   4.595  0.0032 -0.1286 -0.0379
14954TIP3    H166353   6.089   6.322   4.627 -0.3880  0.7855  1.0268
14954TIP3    H266354   5.970   6.409   4.595 -0.9041 -0.4067 -0.4359
14955TIP3   OH266355   5.241   6.620  13.850 -0.0447 -0.0859  0.0484
14955TIP3    H166356   5.325   6.574  13.846  0.8229  0.9975  3.0971
14955TIP3    H266357   5.241   6.677  13.772  2.6184  0.7439  0.5516
14956TIP3   OH266358   4.764   6.026   1.025 -0.5037  0.5760  0.0109
14956TIP3    H166359   4.685   6.071   1.053 -1.4894 -1.2121  0.2399
14956TIP3    H266360   4.823   6.031   1.100 -0.8482  0.8926  0.2613
14957TIP3   OH266361   4.157   4.644   2.506  0.2931 -0.0719  0.1726
14957TIP3    H166362   4.147   4.635   2.601  0.1012 -2.2270 -0.0010
14957TIP3    H266363   4.137   4.557   2.472  0.4593  0.6375 -1.8523
14958TIP3   OH266364   0.804   6.719   2.654 -0.0219  0.2911  0.0275
14958TIP3    H166365   0.864   6.782   2.693  0.5191 -0.2399  0.0776
14958TIP3    H266366   0.717   6.753   2.673  0.2385  2.0885 -1.7037
14959TIP3   OH266367   0.938   6.333  12.892  0.1986 -0.7680  0.0760
14959TIP3    H166368   1.008   6.274  12.920  1.6965 -0.7775 -3.2462
14959TIP3    H266369   0.974   6.379  12.816 -2.2448  1.7432  0.2918
14960TIP3   OH266370   0.421   1.535   6.346 -0.1112 -0.3847  0.3855
14960TIP3    H166371   0.513   1.512   6.333 -0.0226 -0.9539  1.8495
14960TIP3    H266372   0.406   1.608   6.286  1.0843 -0.7596 -0.4097
14961TIP3   OH266373   3.094   6.296   5.546 -0.1809  0.0641  0.0450
14961TIP3    H166374   3.077   6.346   5.467  1.5262  2.0213  0.8345
14961TIP3    H266375   3.153   6.226   5.517 -0.3212  0.2002 -0.5835
14962TIP3   OH266376   4.299   4.235   6.232  0.4510 -0.1926  0.0749
14962TIP3    H166377   4.228   4.181   6.196  0.6255 -0.4000  0.0388
14962TIP3    H266378   4.255   4.295   6.292  0.3257 -0.7607  0.5522
14963TIP3   OH266379   0.285   5.501  13.594  0.4519  0.2112 -0.3502
14963TIP3    H166380   0.306   5.580  13.544 -0.3572 -0.7286 -2.2697
14963TIP3    H266381   0.365   5.447  13.588 -0.1719 -0.6130 -2.1676
14964TIP3   OH266382   1.120   4.537   2.308  0.2785  0.0200 -0.0330
14964TIP3    H166383   1.074   4.605   2.258  0.4707  0.0395 -0.1855
14964TIP3    H266384   1.071   4.530   2.390  0.3590  0.4599  0.0541
14965TIP3   OH266385   4.597   2.220   2.441 -0.6050  0.5025  0.1306
14965TIP3    H166386   4.538   2.152   2.472 -0.3995  0.1329 -0.2655
14965TIP3    H266387   4.540   2.282   2.395 -0.5734 -0.4345 -1.2366
14966TIP3   OH266388   5.106   2.984  12.844 -0.4734 -0.4549 -0.4739
14966TIP3    H166389   5.186   3.037  12.837 -0.8018  0.1102 -0.0369
14966TIP3    H266390   5.087   2.981  12.938 -0.5355 -1.2466 -0.5002
14967TIP3   OH266391   1.540   6.719  13.190 -0.1863  0.5035 -0.1182
14967TIP3    H166392   1.468   6.779  13.208  1.5691  3.0608 -1.1131
14967TIP3    H266393   1.604   6.736  13.259  1.1509  1.2313 -1.4852
14968TIP3   OH266394   5.959   6.600   4.006  0.3564  0.0828  0.2417
14968TIP3    H166395   6.026   6.667   3.993  1.0441 -0.5477  0.4833
14968TIP3    H266396   5.966   6.577   4.099 -0.9382  0.7809  0.5399
14969TIP3   OH266397   0.070   5.427  15.918  0.6267 -0.0259 -0.8230
14969TIP3    H166398  -0.019   5.397  15.940  0.9773 -2.4079 -2.3162
14969TIP3    H266399   0.126   5.382  15.980  1.0045 -0.7818 -1.7018
14970TIP3   OH266400   5.518   4.465  17.332  0.8064  0.4788 -0.0871
14970TIP3    H166401   5.544   4.423  17.414  0.1318 -0.8835 -0.5200
14970TIP3    H266402   5.441   4.517  17.355 -0.1475 -0.8747 -0.0223
14971TIP3   OH266403   3.847   6.133   3.999  0.2201  0.4320 -0.1761
14971TIP3    H166404   3.846   6.055   3.943  0.5622  1.3594 -1.5515
14971TIP3    H266405   3.846   6.206   3.937  0.1334  1.5237  1.0681
14972TIP3   OH266406   3.293   5.244   4.249 -0.2363 -0.1703  0.0182
14972TIP3    H166407   3.338   5.324   4.222  2.3343 -1.2352  0.8364
14972TIP3    H266408   3.303   5.184   4.175 -0.0358 -0.5310  0.3353
14973TIP3   OH266409   2.255   0.387  16.720 -0.0631  0.4068  0.0266
14973TIP3    H166410   2.301   0.454  16.669  0.7939 -1.2588 -1.5258
14973TIP3    H266411   2.203   0.340  16.655 -0.8711 -0.2498  1.1240
14974TIP3   OH266412   2.063   3.635  14.775 -0.8385 -0.5469  0.1653
14974TIP3    H166413   1.975   3.599  14.787 -0.1084 -2.2856  0.5304
14974TIP3    H266414   2.120   3.558  14.766  0.3862  0.5231 -2.1664
14975TIP3   OH266415   5.142   0.223   2.434 -0.1172 -0.0959  0.0771
14975TIP3    H166416   5.064   0.195   2.482 -1.3339  2.2215 -0.4295
14975TIP3    H266417   5.176   0.142   2.396 -4.2097 -0.9089 -2.4902
14976TIP3   OH266418   1.371   3.730   0.106 -0.1639 -0.0473  0.2581
14976TIP3    H166419   1.400   3.639   0.107 -1.5135 -0.8732 -4.6832
14976TIP3    H266420   1.277   3.725   0.120 -0.2149  0.5634  0.1490
14977TIP3   OH266421   3.577   0.681  15.196 -0.4167  0.0416 -0.0908
14977TIP3    H166422   3.604   0.767  15.161  0.5976  0.1655  0.9238
14977TIP3    H266423   3.543   0.701  15.283 -2.2708 -0.3431 -0.6957
14978TIP3   OH266424   5.094   4.749  14.884 -0.5847  0.1160 -0.3916
14978TIP3    H166425   5.009   4.776  14.919 -0.6149 -0.4334 -0.0208
14978TIP3    H266426   5.152   4.745  14.960 -0.6021 -0.8975 -0.4159
14979TIP3   OH266427   0.952   6.049  17.084  0.3042 -0.4856  0.0608
14979TIP3    H166428   1.011   5.986  17.126  0.8450  0.8781  1.4361
14979TIP3    H266429   0.865   6.015  17.103  0.5922 -1.6978 -0.6626
14980TIP3   OH266430   4.324   1.317   3.978 -0.2863  0.1549  0.3932
14980TIP3    H166431   4.254   1.270   3.932  1.8093 -1.2056 -1.6024
14980TIP3    H266432   4.320   1.283   4.067 -0.7170 -1.6946 -0.2714
14981TIP3   OH266433   5.933   3.038   6.487  0.1804 -0.0130 -0.3595
14981TIP3    H166434   5.995   3.108   6.508  2.4293 -2.6785  2.7234
14981TIP3    H266435   5.847   3.076   6.506  1.1612  2.2822 -0.1226
14982TIP3   OH266436   3.922   6.532  14.102  0.3967 -0.5600  0.1313
14982TIP3    H166437   3.879   6.562  14.022 -1.4620 -3.4729 -0.1161
14982TIP3    H266438   3.908   6.603  14.165 -0.4765  0.6510 -1.3641
14983TIP3   OH266439   3.150   4.441  13.385 -0.4103  0.3713 -0.0218
14983TIP3    H166440   3.215   4.373  13.405  0.7366  1.7043  1.0160
14983TIP3    H266441   3.066   4.398  13.399  0.2588 -0.9992  0.0373
14984TIP3   OH266442   2.428   4.617  17.581  0.0968 -0.0877  0.0381
14984TIP3    H166443   2.452   4.524  17.582 -0.3364 -0.2379  2.0890
14984TIP3    H266444   2.378   4.628  17.500  0.0668 -1.6759 -0.1931
14985TIP3   OH266445   1.027   4.041   0.663  0.7732  0.0155  0.1584
14985TIP3    H166446   0.998   4.067   0.575  1.1484  1.6713  0.4854
14985TIP3    H266447   1.092   4.107   0.687  0.5606 -0.3180  1.7448
14986TIP3   OH266448   3.506   0.151   2.638  0.0509  0.3905 -0.8951
14986TIP3    H166449   3.465   0.229   2.675  0.8552  0.4647 -0.1307
14986TIP3    H266450   3.592   0.148   2.679 -0.0891 -1.0747 -0.6741
14987TIP3   OH266451   2.170   4.799   3.043  0.4058  0.0443  0.4308
14987TIP3    H166452   2.075   4.804   3.055  0.3710  1.0847 -0.1740
14987TIP3    H266453   2.181   4.736   2.971  0.3358 -1.9224  2.0388
14988TIP3   OH266454   1.609   4.039  13.960 -0.2997 -0.4723  0.2986
14988TIP3    H166455   1.677   4.075  14.017  0.6286 -0.8311 -0.5675
14988TIP3    H266456   1.592   4.108  13.897 -1.5594  0.0488  1.1645
14989TIP3   OH266457   1.417   3.926  14.549 -0.0882 -0.2457  0.2830
14989TIP3    H166458   1.469   3.848  14.568 -0.4409 -0.0278  2.4234
14989TIP3    H266459   1.428   3.940  14.456  1.6580 -1.6447  0.2249
14990TIP3   OH266460   6.721   6.167   2.618 -0.2642 -0.0360  0.1555
14990TIP3    H166461   6.704   6.237   2.555  1.3150 -0.7928 -1.2049
14990TIP3    H266462   6.746   6.213   2.698  0.7630  0.9872 -0.7097
14991TIP3   OH266463   4.897   2.254   1.345 -0.1597  0.6958 -0.1571
14991TIP3    H166464   4.919   2.306   1.423 -0.8150  1.0858 -0.2198
14991TIP3    H266465   4.943   2.298   1.274  0.4849  0.3063  0.0136
14992TIP3   OH266466   0.165   5.151   4.899  0.1262  0.4863  0.2508
14992TIP3    H166467   0.156   5.065   4.859  1.6952 -0.1946  1.3081
14992TIP3    H266468   0.106   5.207   4.848 -0.0799 -0.9576 -1.1603
14993TIP3   OH266469   5.597   1.399  14.098  0.3601 -0.2069 -0.5114
14993TIP3    H166470   5.578   1.334  14.166 -0.3504 -0.6050 -1.0765
14993TIP3    H266471   5.583   1.352  14.016  0.2901  0.5410 -0.9325
14994TIP3   OH266472   6.424   0.714  16.862  0.5544  0.7050 -0.0896
14994TIP3    H166473   6.380   0.756  16.936  0.3486 -1.2998  0.9985
14994TIP3    H266474   6.497   0.772  16.841 -0.6744  2.4285  0.2194
14995TIP3   OH266475   6.157   4.272   5.554 -0.4321 -0.2810  0.4405
14995TIP3    H166476   6.234   4.251   5.606 -1.1480 -0.6243  1.3968
14995TIP3    H266477   6.097   4.315   5.616 -1.6055 -1.3681  0.1055
14996TIP3   OH266478   6.081   0.317   2.967  0.6341 -0.3352 -0.3786
14996TIP3    H166479   5.997   0.340   3.007 -0.2988 -2.4305 -1.0372
14996TIP3    H266480   6.084   0.368   2.886  0.4192  0.4058  0.0665
14997TIP3   OH266481   2.492   5.803   1.792  0.4086  0.3728 -0.0222
14997TIP3    H166482   2.476   5.780   1.884  1.1959 -1.6485 -0.3386
14997TIP3    H266483   2.438   5.880   1.777 -3.0503 -1.6073  1.0165
14998TIP3   OH266484   0.645   2.217  12.724 -0.4091 -0.2682  0.7951
14998TIP3    H166485   0.584   2.150  12.755 -1.3996 -0.2914 -1.0636
14998TIP3    H266486   0.668   2.189  12.635  0.9380  0.6859  0.8122
14999TIP3   OH266487   2.487   2.463  16.740 -0.0952  0.2568  0.2434
14999TIP3    H166488   2.462   2.371  16.753  1.6132 -0.1560  0.9321
14999TIP3    H266489   2.532   2.463  16.655  1.9064 -0.0485  1.2425
15000TIP3   OH266490   2.326   5.895   3.030 -0.3060 -0.5371  0.6318
15000TIP3    H166491   2.358   5.824   3.086 -0.1209 -1.6571 -0.8522
15000TIP3    H266492   2.360   5.875   2.943 -1.8830  0.3215 -0.2244
15001TIP3   OH266493   5.634   4.310  16.003  0.0262  0.1454 -0.5429
15001TIP3    H166494   5.667   4.271  15.923  3.3947 -0.1953  0.8487
15001TIP3    H266495   5.570   4.247  16.036  0.8368 -1.1718 -1.4346
15002TIP3   OH266496   3.957   3.226   0.795  0.2537 -0.0721 -0.6121
15002TIP3    H166497   3.958   3.149   0.738 -1.2534 -0.8419  0.3525
15002TIP3    H266498   3.877   3.273   0.770 -0.0940 -0.0893  0.4255
15003TIP3   OH266499   0.244   4.203   4.261 -0.6100 -0.1168 -0.2061
15003TIP3    H166500   0.252   4.165   4.174  0.3677  0.8875 -0.5681
15003TIP3    H266501   0.185   4.143   4.308 -1.2510 -0.5930 -1.5820
15004TIP3   OH266502   1.523   5.443  14.665 -0.0423  0.3901  0.2364
15004TIP3    H166503   1.536   5.436  14.760  0.6482  0.3446  0.1495
15004TIP3    H266504   1.590   5.505  14.636  0.1493 -0.0474 -0.2960
15005TIP3   OH266505   5.772   3.388   5.535  0.7052  0.0237  0.4886
15005TIP3    H166506   5.858   3.348   5.522  0.9193  0.5227  0.3253
15005TIP3    H266507   5.710   3.317   5.518  1.0794 -1.2501  3.7677
15006TIP3   OH266508   2.778   5.253   0.288  0.1238  0.5783 -0.3878
15006TIP3    H166509   2.798   5.160   0.286 -0.6882  0.3822  0.0644
15006TIP3    H266510   2.804   5.281   0.376  0.9209  0.9139 -0.7232
15007TIP3   OH266511   0.457   0.244   3.827  0.2607 -0.0169  0.2235
15007TIP3    H166512   0.407   0.222   3.748  1.0715  0.4958 -0.4492
15007TIP3    H266513   0.472   0.338   3.820  1.2797 -0.1535  0.4253
15008TIP3   OH266514   0.123   6.737  13.106  0.6130  0.7633  0.4562
15008TIP3    H166515   0.100   6.697  13.189 -1.1984 -0.5284 -0.5860
15008TIP3    H266516   0.056   6.804  13.092  0.5174  0.5318 -0.2392
15009TIP3   OH266517   5.422   0.095  17.314  0.0374  0.5739  0.7154
15009TIP3    H166518   5.425   0.095  17.410 -3.3518 -1.5922  1.0032
15009TIP3    H266519   5.353   0.157  17.292  0.7003  0.9610 -0.3666
15010TIP3   OH266520   1.974   6.415   5.594  0.1249 -0.0373 -0.3358
15010TIP3    H166521   2.005   6.402   5.505  0.9636 -1.7381  0.1552
15010TIP3    H266522   1.891   6.462   5.584 -0.2686 -0.9970 -2.0751
15011TIP3   OH266523   2.121   0.170  15.139  0.0464  0.2277  0.0374
15011TIP3    H166524   2.172   0.110  15.193  1.1390 -0.0343 -1.2486
15011TIP3    H266525   2.133   0.255  15.181 -0.9953 -0.2983  1.5007
15012TIP3   OH266526   3.539   1.320  15.787  0.3644 -0.3269 -0.0671
15012TIP3    H166527   3.458   1.303  15.833  1.2403 -0.5219  1.4640
15012TIP3    H266528   3.541   1.415  15.774 -0.1507 -0.3377 -0.2199
15013TIP3   OH266529   3.861   1.687  15.801  0.2342 -0.3552 -0.1021
15013TIP3    H166530   3.859   1.777  15.834  0.5429 -0.6535  0.7713
15013TIP3    H266531   3.929   1.688  15.733 -0.4933  0.2966 -0.8493
15014TIP3   OH266532   0.939   3.438  13.692 -0.2416 -0.0804  0.5481
15014TIP3    H166533   1.023   3.408  13.727  0.0978  2.1276  1.8629
15014TIP3    H266534   0.888   3.463  13.770 -1.3470  0.5005 -0.3265
15015TIP3   OH266535   3.297   6.460   5.619  0.0396  0.2622 -0.5754
15015TIP3    H166536   3.244   6.526   5.665 -0.3553  0.6403 -1.5397
15015TIP3    H266537   3.234   6.391   5.596  0.4409 -0.4443  0.3794
15016TIP3   OH266538   0.289   3.133   0.176  0.4331 -0.0617 -0.5617
15016TIP3    H166539   0.337   3.213   0.156 -0.6271  1.0048  0.9654
15016TIP3    H266540   0.199   3.162   0.191  0.5174 -1.0616  2.6873
15017TIP3   OH266541   1.391   2.392  16.933 -0.1816 -0.1160  0.4079
15017TIP3    H166542   1.396   2.320  16.870 -1.2426  0.4522 -0.3555
15017TIP3    H266543   1.362   2.467  16.881  2.3970  1.2955  0.8505
15018TIP3   OH266544   4.616   0.211   0.477  0.1397  0.3334 -0.3894
15018TIP3    H166545   4.560   0.135   0.464  0.1726  0.5195 -1.7510
15018TIP3    H266546   4.564   0.271   0.530 -1.3224  0.8462 -2.2891
15019TIP3   OH266547   5.028   5.884   4.578  0.2151 -0.3741 -0.4527
15019TIP3    H166548   5.086   5.895   4.503  0.7077  0.9614  0.0996
15019TIP3    H266549   4.942   5.866   4.540  0.1253  1.7647 -1.4138
15020TIP3   OH266550   0.513   0.267  17.310  0.1864  0.0512  0.1410
15020TIP3    H166551   0.505   0.175  17.333  0.6794 -0.0679 -0.1390
15020TIP3    H266552   0.579   0.301  17.370  1.2774 -0.1979 -0.8762
15021TIP3   OH266553   3.717   1.449  10.988 -0.0116  0.7048 -0.1827
15021TIP3    H166554   3.709   1.368  10.937  0.1506 -0.1654  1.1273
15021TIP3    H266555   3.654   1.509  10.948 -1.1185 -0.5158 -0.3324
15022TIP3   OH266556   2.616   0.830  14.303 -0.6876  0.0729 -0.0402
15022TIP3    H166557   2.627   0.878  14.221 -2.1805 -0.1264 -0.3897
15022TIP3    H266558   2.695   0.850  14.354  0.2575  0.2086 -1.5074
15023TIP3   OH266559   6.029   2.086  16.577 -0.0091  0.5334  0.8128
15023TIP3    H166560   6.050   2.141  16.652 -2.4083  0.0597  1.9309
15023TIP3    H266561   5.947   2.042  16.601  0.0422 -0.9654 -1.3918
15024TIP3   OH266562   2.850   2.077   4.496  0.1113  0.0809  0.0100
15024TIP3    H166563   2.877   2.157   4.451 -0.9755 -0.0493 -0.9225
15024TIP3    H266564   2.760   2.093   4.522 -0.0223 -0.7347  0.0726
15025TIP3   OH266565   3.609   3.907  11.270 -0.3061  0.1280 -0.3172
15025TIP3    H166566   3.693   3.894  11.228 -0.4667  0.5609 -0.7802
15025TIP3    H266567   3.558   3.958  11.207 -1.4518 -1.4049 -0.7205
15026TIP3   OH266568   2.815   5.261  17.335 -0.3107  0.2424  0.5339
15026TIP3    H166569   2.878   5.322  17.373 -2.4309  2.5936  0.5405
15026TIP3    H266570   2.803   5.291  17.245 -0.0947 -1.3075 -0.0403
15027TIP3   OH266571   3.916   6.016   2.571 -0.1621  0.4587 -0.6647
15027TIP3    H166572   3.844   6.043   2.629  2.1622 -0.9028  3.2707
15027TIP3    H266573   3.873   5.990   2.490 -4.0243  0.5882  1.1137
15028TIP3   OH266574   5.041   2.595  11.481 -0.4420  0.2850 -0.0146
15028TIP3    H166575   5.016   2.662  11.418 -0.0938  0.5200  0.1008
15028TIP3    H266576   5.133   2.611  11.499  0.0627 -1.1494 -1.1385
15029TIP3   OH266577   1.132   5.620   2.069 -0.8266 -0.1521 -0.1982
15029TIP3    H166578   1.112   5.646   2.159  2.2656  2.2809 -0.0383
15029TIP3    H266579   1.189   5.544   2.078  0.9780  1.1603  0.1194
15030TIP3   OH266580   0.600   6.162   1.764 -0.1984  0.3343  0.4194
15030TIP3    H166581   0.692   6.163   1.790 -0.1081 -2.5387  0.6205
15030TIP3    H266582   0.564   6.245   1.795  1.5342  0.0963  3.4134
15031TIP3   OH266583   1.614   3.163  16.927  0.2480  0.3245 -0.0863
15031TIP3    H166584   1.591   3.092  16.867  0.6512 -0.2840  0.4724
15031TIP3    H266585   1.691   3.131  16.974  0.2326  0.9980  0.4105
15032TIP3   OH266586   0.780   1.104   1.131 -0.3557 -0.1993 -0.3236
15032TIP3    H166587   0.758   1.025   1.179 -0.5913  0.8882  1.4231
15032TIP3    H266588   0.865   1.131   1.166 -0.7469  0.8667 -0.1743
15033TIP3   OH266589   4.323   2.424   3.411 -0.0922  0.1807  0.3137
15033TIP3    H166590   4.243   2.414   3.462 -0.4078  0.8793 -0.0214
15033TIP3    H266591   4.294   2.424   3.320  0.2953  0.3273  0.1851
15034TIP3   OH266592   0.407   1.049  16.248 -0.1951  0.3110  0.5458
15034TIP3    H166593   0.328   1.039  16.195 -0.2459  0.9780  0.4925
15034TIP3    H266594   0.422   0.962  16.284  1.2308 -0.8373 -2.4976
15035TIP3   OH266595   1.766   2.012   2.160 -0.0183 -0.2478  0.3458
15035TIP3    H166596   1.703   1.941   2.152 -0.3319 -0.1085  1.4045
15035TIP3    H266597   1.807   1.998   2.245  0.1026  0.6834  0.4505
15036TIP3   OH266598   1.893   1.244  14.944  0.4013  0.3672  0.5034
15036TIP3    H166599   1.878   1.327  14.899  0.6409  0.2548  0.2103
15036TIP3    H266600   1.976   1.213  14.908  0.9061  0.5707  1.4643
15037TIP3   OH266601   6.600   2.403  11.503 -0.0693  0.1344 -0.5765
15037TIP3    H166602   6.616   2.316  11.466  1.9502  0.4625 -0.5774
15037TIP3    H266603   6.687   2.438  11.521 -0.8837  1.0004  2.1636
15038TIP3   OH266604   1.026   6.032   1.551  0.5053 -0.1154  0.0461
15038TIP3    H166605   1.032   5.998   1.641  3.9539 -0.0428 -0.0083
15038TIP3    H266606   0.980   5.964   1.503 -0.6798 -0.5420  1.6915
15039TIP3   OH266607   3.778   4.666   3.087 -0.7884 -0.5844 -0.4015
15039TIP3    H166608   3.717   4.717   3.141  0.4731  1.0400 -0.4385
15039TIP3    H266609   3.752   4.575   3.102 -0.4314 -0.2437  3.1046
15040TIP3   OH266610   5.074   6.465  11.684 -0.1136  0.2692 -0.7578
15040TIP3    H166611   4.995   6.419  11.713  0.1398  0.0495 -0.4159
15040TIP3    H266612   5.144   6.431  11.740  0.1271  0.8687 -0.6902
15041TIP3   OH266613   0.415   0.761   5.253 -0.5981  0.2395  0.4556
15041TIP3    H166614   0.346   0.748   5.188 -0.1784  0.3491 -0.0205
15041TIP3    H266615   0.431   0.855   5.253 -0.7189  0.2626  0.8525
15042TIP3   OH266616   2.459   6.730   3.554  0.0284  0.3197 -0.0473
15042TIP3    H166617   2.545   6.714   3.513  0.3747  0.1780  0.7231
15042TIP3    H266618   2.480   6.775   3.635 -0.6329  0.2531  0.1621
15043TIP3   OH266619   0.763   0.909  17.149 -0.6854  0.0752  0.0765
15043TIP3    H166620   0.672   0.880  17.161 -1.3984  2.2691  0.4263
15043TIP3    H266621   0.760   0.962  17.069 -0.1889  1.8335  1.1701
15044TIP3   OH266622   2.451   0.750   0.366  0.2400 -0.2383 -0.6982
15044TIP3    H166623   2.432   0.672   0.315 -2.6020  0.3384 -0.6795
15044TIP3    H266624   2.414   0.732   0.453 -1.3526  1.4433 -0.9729
15045TIP3   OH266625   3.577   2.245   1.310 -0.5856  0.4029 -0.5464
15045TIP3    H166626   3.585   2.310   1.241  0.7856  1.9051  0.9352
15045TIP3    H266627   3.665   2.208   1.318 -0.6846  0.3523  0.4602
15046TIP3   OH266628   4.468   2.250   2.731  0.3535 -0.3714 -0.7107
15046TIP3    H166629   4.430   2.196   2.800  0.5068 -0.2100 -0.4964
15046TIP3    H266630   4.422   2.225   2.651  2.0190 -2.5285 -1.0767
15047TIP3   OH266631   2.363   0.530  15.394 -0.0344 -0.1182  0.5734
15047TIP3    H166632   2.397   0.584  15.323 -1.3817  0.7540  0.5438
15047TIP3    H266633   2.398   0.570  15.474  0.3819 -0.2723  0.4690
15048TIP3   OH266634   3.586   3.288   4.468  0.2557 -0.4259 -0.2051
15048TIP3    H166635   3.605   3.196   4.485 -0.4070 -0.3373  1.0517
15048TIP3    H266636   3.503   3.287   4.421 -0.2829 -0.4127  0.7445
15049TIP3   OH266637   3.607   1.606  11.683  0.3845  0.2908 -0.3218
15049TIP3    H166638   3.683   1.635  11.734  1.8903 -2.2743 -0.8751
15049TIP3    H266639   3.534   1.605  11.745  1.9249 -1.7785  1.6474
15050TIP3   OH266640   3.010   4.469  13.109  0.6110 -0.0963  0.6114
15050TIP3    H166641   3.017   4.536  13.176 -0.3017  1.6887 -0.9966
15050TIP3    H266642   2.922   4.433  13.119  0.0939  0.8818 -0.2117
15051TIP3   OH266643   5.870   3.299  15.966  0.3858  0.7737  0.6721
15051TIP3    H166644   5.864   3.324  15.874  1.1586 -0.2128  0.3348
15051TIP3    H266645   5.799   3.236  15.979 -0.4728  1.7937  1.0772
15052TIP3   OH266646   0.755   3.066   0.840 -0.0522  0.3612 -0.4101
15052TIP3    H166647   0.817   3.078   0.912 -0.4421  0.4692 -0.0875
15052TIP3    H266648   0.809   3.059   0.761  0.4875 -1.5226  0.0863
15053TIP3   OH266649   2.420   1.567  12.284  0.3402 -0.1661  0.0318
15053TIP3    H166650   2.351   1.600  12.227 -1.6798 -2.3127  1.0568
15053TIP3    H266651   2.433   1.476  12.257  2.7930  0.1430 -0.0817
15054TIP3   OH266652   0.243   1.166  14.338  0.3349 -0.5690  0.0286
15054TIP3    H166653   0.263   1.114  14.260  0.4757 -0.3743 -0.0639
15054TIP3    H266654   0.286   1.250  14.324 -0.0556 -0.3544  0.0888
15055TIP3   OH266655   3.598   5.304   0.927 -0.3255 -0.7045 -0.1933
15055TIP3    H166656   3.693   5.293   0.932  0.1051  1.4304 -2.1011
15055TIP3    H266657   3.572   5.250   0.851 -0.6526 -1.2416  0.2930
15056TIP3   OH266658   3.693   5.839  13.972  0.4710 -0.0444 -0.2961
15056TIP3    H166659   3.686   5.844  14.067 -2.0955 -0.3619 -0.3892
15056TIP3    H266660   3.611   5.798  13.944  0.9152  0.5193 -2.6753
15057TIP3   OH266661   1.706   0.118   4.805  0.3714  0.3859 -0.3531
15057TIP3    H166662   1.767   0.173   4.855 -0.9083 -0.0996  1.9288
15057TIP3    H266663   1.685   0.046   4.864 -1.3742 -0.1573 -1.5420
15058TIP3   OH266664   2.235   1.365  16.096  0.3094  0.4492  0.4412
15058TIP3    H166665   2.221   1.326  16.182 -2.7344 -0.0623 -0.1816
15058TIP3    H266666   2.268   1.453  16.115  0.1154  0.2023  2.0963
15059TIP3   OH266667   1.064   6.453   0.394  0.2219 -0.4373  0.0144
15059TIP3    H166668   1.135   6.501   0.438 -0.7353  0.2955  0.7917
15059TIP3    H266669   1.062   6.491   0.306 -1.1116  1.6832  0.8743
15060TIP3   OH266670   6.028   3.578  15.443  0.6046 -0.0760 -0.4457
15060TIP3    H166671   6.070   3.568  15.358  2.1705  0.0990  0.2855
15060TIP3    H266672   6.081   3.525  15.503 -2.0575 -2.5493 -0.0194
15061TIP3   OH266673   4.874   3.066   0.329 -0.0787  0.0075 -0.3401
15061TIP3    H166674   4.802   3.053   0.267  0.2850 -0.4561 -0.6728
15061TIP3    H266675   4.889   2.979   0.366 -1.7360  0.6517  2.0257
15062TIP3   OH266676   0.017   5.564   1.517 -0.0283 -0.4130  0.3822
15062TIP3    H166677   0.081   5.590   1.583 -1.0839  1.8170  0.6234
15062TIP3    H266678  -0.067   5.565   1.563 -0.8342  1.4805 -1.0009
15063TIP3   OH266679   4.876   4.379   2.131 -0.4092  0.0630  0.1536
15063TIP3    H166680   4.867   4.297   2.179 -3.0718  0.8812  1.2440
15063TIP3    H266681   4.951   4.422   2.172 -0.3550 -0.8609  1.0828
15064TIP3   OH266682   2.415   5.390  11.513 -0.9151 -0.2569 -0.0039
15064TIP3    H166683   2.492   5.333  11.520 -0.5723  0.2339  0.2570
15064TIP3    H266684   2.381   5.372  11.425  0.6065  0.8863 -0.8760
15065TIP3   OH266685   4.761   5.498   1.189  0.6173 -0.3910 -0.2546
15065TIP3    H166686   4.695   5.444   1.234 -1.2843  0.1769 -2.1691
15065TIP3    H266687   4.772   5.574   1.246 -1.3352  0.0712 -0.4023
15066TIP3   OH266688   5.147   6.509  15.762 -0.2299 -0.4378  0.7506
15066TIP3    H166689   5.217   6.573  15.777 -1.3289  1.1291 -0.5438
15066TIP3    H266690   5.146   6.457  15.843  0.1030  1.7741  2.2900
15067TIP3   OH266691   0.268   3.472   4.746  0.0981 -0.2431  0.1061
15067TIP3    H166692   0.224   3.551   4.712 -1.0444  0.0585  2.1027
15067TIP3    H266693   0.356   3.501   4.768  0.2108  0.0518 -0.7156
15068TIP3   OH266694   6.578   6.226   3.243  0.0562  0.5641 -0.4552
15068TIP3    H166695   6.539   6.140   3.223  0.4495  0.9358 -3.1854
15068TIP3    H266696   6.621   6.213   3.327  0.7910 -2.1990 -1.1298
15069TIP3   OH266697   4.928   5.689   4.255  0.8050  0.4117  0.7812
15069TIP3    H166698   4.886   5.641   4.184  1.1403  1.0263  0.1558
15069TIP3    H266699   5.007   5.726   4.216  1.3287  0.2385  1.6381
15070TIP3   OH266700   0.465   3.682   6.259  0.0991  0.3959 -0.2741
15070TIP3    H166701   0.415   3.713   6.184 -1.8509  0.1354  0.8407
15070TIP3    H266702   0.540   3.636   6.222 -1.6360 -1.1119 -2.1069
15071TIP3   OH266703   4.412   0.756   2.369  0.2374  0.2062  0.1568
15071TIP3    H166704   4.375   0.776   2.455 -1.5916 -1.1269 -0.2509
15071TIP3    H266705   4.495   0.712   2.388 -0.8647 -1.4883  1.3447
15072TIP3   OH266706   4.785   2.219   0.684 -0.2517  0.1134  0.1708
15072TIP3    H166707   4.834   2.139   0.666 -0.3528 -0.0395  0.5471
15072TIP3    H266708   4.851   2.287   0.693 -0.1745  0.1021 -0.2970
15073TIP3   OH266709   2.113   4.708  12.774  0.4143 -0.6739 -0.1671
15073TIP3    H166710   2.085   4.691  12.684 -0.6784  0.6022 -0.1028
15073TIP3    H266711   2.064   4.646  12.827  0.3723 -0.8151 -0.3726
15074TIP3   OH266712   5.748   6.343   1.426 -0.1907  0.3332  0.0300
15074TIP3    H166713   5.814   6.326   1.494  1.7639  0.6866 -1.6617
15074TIP3    H266714   5.686   6.403   1.467  1.8172  1.8455  1.0618
15075TIP3   OH266715   2.501   0.752  15.347  0.2558  0.5259  0.3911
15075TIP3    H166716   2.513   0.770  15.254  0.3058 -1.7767 -0.1043
15075TIP3    H266717   2.583   0.780  15.388  1.9411 -2.0918 -0.9164
15076TIP3   OH266718   4.308   5.507  15.884  0.4080  0.5564 -0.0475
15076TIP3    H166719   4.282   5.460  15.964 -2.0361  1.3132 -0.3241
15076TIP3    H266720   4.249   5.473  15.816 -0.1070  2.6020 -0.6787
15077TIP3   OH266721   4.353   0.504  17.075 -0.0592 -0.1728 -0.4791
15077TIP3    H166722   4.393   0.534  17.157 -3.0689  0.8955  0.7314
15077TIP3    H266723   4.309   0.422  17.099 -0.8460  0.0806 -1.0220
15078TIP3   OH266724   0.203   2.046   0.100 -0.2635  0.2186 -0.1997
15078TIP3    H166725   0.258   2.062   0.023 -0.3554  1.8898  0.0387
15078TIP3    H266726   0.211   2.126   0.153 -1.5646 -0.1837  0.6766
15079TIP3   OH266727   1.254   2.507   3.869 -0.4724  0.5766 -1.0448
15079TIP3    H166728   1.220   2.590   3.900 -0.2265  0.0270  0.8796
15079TIP3    H266729   1.285   2.463   3.949  2.0281 -0.1656 -2.3036
15080TIP3   OH266730   6.110   2.066   5.270 -0.7466  0.4573  0.0623
15080TIP3    H166731   6.062   2.040   5.348 -0.9214  0.4886 -0.0335
15080TIP3    H266732   6.165   1.990   5.249 -2.4064 -0.4773 -1.1286
15081TIP3   OH266733   1.553   4.555   3.844 -0.0284  0.3505  0.2956
15081TIP3    H166734   1.586   4.525   3.760  0.3629  0.8474  0.2661
15081TIP3    H266735   1.627   4.549   3.904 -0.1199  0.6303  0.4438
15082TIP3   OH266736   4.221   0.299   3.004  0.8955 -0.6926  0.4009
15082TIP3    H166737   4.158   0.264   3.066  0.2569 -1.0514 -0.4357
15082TIP3    H266738   4.172   0.364   2.953  1.6561  0.2987  0.8815
15083TIP3   OH266739   6.014   0.604   6.298  0.4828  0.3801 -0.2526
15083TIP3    H166740   5.983   0.688   6.332 -0.0311  0.6222 -1.2788
15083TIP3    H266741   6.059   0.564   6.372 -2.2710  0.0167  1.3860
15084TIP3   OH266742   3.303   4.741  12.988  0.8713 -0.0095  0.5886
15084TIP3    H166743   3.262   4.719  13.072 -0.0778  2.4295  0.8587
15084TIP3    H266744   3.235   4.726  12.923  1.3363 -1.0909  0.3300
15085TIP3   OH266745   0.072   2.823  13.421 -0.2712  0.2126  0.1196
15085TIP3    H166746   0.136   2.797  13.487  1.2225  1.4669 -0.7503
15085TIP3    H266747   0.111   2.794  13.338 -1.0764  0.5582 -0.3919
15086TIP3   OH266748   2.542   6.353  12.859  0.2048  0.4033 -0.2504
15086TIP3    H166749   2.496   6.408  12.797 -1.5261 -0.7266 -0.0257
15086TIP3    H266750   2.557   6.271  12.812 -0.2784 -0.1269  0.4911
15087TIP3   OH266751   5.267   2.559  11.679 -0.2628 -0.1492  0.2560
15087TIP3    H166752   5.290   2.651  11.669  1.4241 -0.6866 -1.4347
15087TIP3    H266753   5.254   2.548  11.773 -0.3535  1.7575  0.5105
15088TIP3   OH266754   1.145   1.385  15.832 -0.3255 -0.1454 -0.0777
15088TIP3    H166755   1.130   1.358  15.741 -1.4194  0.9738 -0.2559
15088TIP3    H266756   1.110   1.474  15.837  0.5351  0.1454  1.2231
15089TIP3   OH266757   6.446   5.964  14.568  0.3882 -0.1438 -0.2478
15089TIP3    H166758   6.397   5.924  14.496  1.3752 -0.3214 -0.8312
15089TIP3    H266759   6.530   5.918  14.569 -0.3083 -1.5656  2.3062
15090TIP3   OH266760   2.234   2.536   6.608  0.5309 -0.1786  0.6413
15090TIP3    H166761   2.141   2.556   6.601  0.5046 -0.4247  0.2704
15090TIP3    H266762   2.237   2.444   6.633  0.6794 -1.1897 -2.6643
15091TIP3   OH266763   5.214   4.494  10.582  0.1800 -0.2451  0.3056
15091TIP3    H166764   5.176   4.551  10.649  2.3510  0.3024  1.1596
15091TIP3    H266765   5.139   4.449  10.543 -1.2128 -0.5229  3.0419
15092TIP3   OH266766   2.279   1.210  14.138 -0.7559 -0.1049 -0.6212
15092TIP3    H166767   2.193   1.247  14.116 -1.3938 -0.0861  1.5915
15092TIP3    H266768   2.312   1.267  14.207  0.8478 -0.3922 -1.1167
15093TIP3   OH266769   3.727   6.063  15.108  0.1862 -0.5602  0.0503
15093TIP3    H166770   3.677   6.138  15.141  0.1006  0.3822 -2.0545
15093TIP3    H266771   3.667   6.017  15.051  0.6762 -1.4495  0.2393
15094TIP3   OH266772   4.645   6.537   4.587  0.1145  0.6084  0.5918
15094TIP3    H166773   4.637   6.498   4.500  0.7785  0.0967  0.7508
15094TIP3    H266774   4.616   6.627   4.576 -1.7805 -0.0023  0.2876
15095TIP3   OH266775   3.685   6.035  12.584  0.5805 -0.0357 -0.3017
15095TIP3    H166776   3.665   5.960  12.529  0.2045  0.6716 -1.1560
15095TIP3    H266777   3.734   5.999  12.658  0.5965 -1.0777 -0.8118
15096TIP3   OH266778   5.606   4.653   2.355 -0.1747  0.3770 -0.0995
15096TIP3    H166779   5.557   4.733   2.373  0.5420  0.6711  0.5898
15096TIP3    H266780   5.626   4.658   2.261  0.7105  1.5125  0.1240
15097TIP3   OH266781   5.283   5.400  12.575 -0.1877  0.1560 -0.0629
15097TIP3    H166782   5.330   5.344  12.637 -3.8491 -0.2510  2.7354
15097TIP3    H266783   5.273   5.345  12.497 -1.5986 -2.3815  1.7228
15098TIP3   OH266784   4.662   4.794  11.751 -0.4905  0.1996  0.2309
15098TIP3    H166785   4.749   4.753  11.749 -0.8780 -0.7561  1.7030
15098TIP3    H266786   4.633   4.793  11.660  0.7566 -0.0727 -0.1875
15099TIP3   OH266787   1.681   0.744  12.456  0.0744  0.2549  0.0411
15099TIP3    H166788   1.771   0.772  12.472  0.4913 -1.7560  1.6304
15099TIP3    H266789   1.689   0.657  12.418 -1.2164  0.1772 -0.1218
15100TIP3   OH266790   4.730   4.037   2.038 -0.5426 -0.3087  0.2884
15100TIP3    H166791   4.726   4.049   1.944  0.1113 -0.5036  0.2305
15100TIP3    H266792   4.729   4.126   2.074  1.2440 -0.1167 -0.0020
15101TIP3   OH266793   0.635   2.759   0.425  0.1304 -0.1251  0.5697
15101TIP3    H166794   0.599   2.843   0.395 -0.0578 -0.4264 -0.0644
15101TIP3    H266795   0.610   2.697   0.357 -1.4975 -1.1209  2.0000
15102TIP3   OH266796   2.563   1.177  17.146 -0.1311  0.0440  0.2915
15102TIP3    H166797   2.485   1.155  17.196  1.9920 -3.0669  2.6406
15102TIP3    H266798   2.563   1.115  17.073  0.3445 -0.3742  0.6313
15103TIP3   OH266799   6.563   1.655  16.276 -0.1073 -0.1605  0.3180
15103TIP3    H166800   6.578   1.706  16.356  0.1346  0.4473 -0.1086
15103TIP3    H266801   6.569   1.563  16.305  2.2258  0.0107  0.6242
15104TIP3   OH266802   6.709   4.765   3.547  0.7978  0.6618  0.1231
15104TIP3    H166803   6.643   4.732   3.607  0.1869  0.0557 -0.8501
15104TIP3    H266804   6.792   4.747   3.589  0.3681  0.8718  1.0854
15105TIP3   OH266805   6.337   0.409  12.190  0.3417  0.2200  0.2433
15105TIP3    H166806   6.276   0.413  12.264 -0.8738  3.2400 -0.7629
15105TIP3    H266807   6.422   0.388  12.230 -0.4047  1.0482  2.4210
15106TIP3   OH266808   5.607   4.519   6.581 -0.1058  0.4828  0.2610
15106TIP3    H166809   5.673   4.492   6.645  2.3336  0.2333 -2.1950
15106TIP3    H266810   5.569   4.437   6.550 -0.2688  0.5207  0.3588
15107TIP3   OH266811   3.846   4.617  17.460  0.2379 -0.4942  0.3680
15107TIP3    H166812   3.941   4.619  17.467  0.2260  0.9265  0.3739
15107TIP3    H266813   3.815   4.624  17.551  0.1528  2.7439  0.1902
15108TIP3   OH266814   4.778   0.577  11.228  0.0717  0.0957 -0.0502
15108TIP3    H166815   4.705   0.632  11.198  0.1540 -0.2411 -0.8932
15108TIP3    H266816   4.819   0.545  11.147  0.6049 -0.4448  0.4234
15109TIP3   OH266817   4.904   5.184   1.657 -0.5214 -0.0384  0.3425
15109TIP3    H166818   4.906   5.255   1.593  0.5771  0.9725  1.4430
15109TIP3    H266819   4.996   5.167   1.676 -0.7941 -1.3948  0.5054
15110TIP3   OH266820   1.096   1.928  15.092  0.0037 -0.1701  0.2987
15110TIP3    H166821   1.161   1.989  15.128 -0.5780  0.1340  0.8420
15110TIP3    H266822   1.145   1.847  15.077  0.2541 -0.3135  1.7950
15111TIP3   OH266823   1.090   6.388  15.349 -0.4078  0.3733 -0.0835
15111TIP3    H166824   1.067   6.306  15.306 -2.1075  0.8869 -0.2362
15111TIP3    H266825   1.070   6.456  15.285  1.7008  0.9126 -0.2422
15112TIP3   OH266826   0.353   2.314  14.230 -0.3357  0.1807  0.2956
15112TIP3    H166827   0.399   2.342  14.151 -0.4017  0.2478  0.2808
15112TIP3    H266828   0.297   2.242  14.201  0.4343 -0.5126  0.4893
15113TIP3   OH266829   4.660   0.594  14.833  0.2481  0.3340 -0.6486
15113TIP3    H166830   4.753   0.596  14.857 -0.0164 -0.2666  0.4851
15113TIP3    H266831   4.656   0.643  14.751  1.2413  2.3194  0.4009
15114TIP3   OH266832   0.182   6.719  14.179  0.4462  0.8676 -0.3513
15114TIP3    H166833   0.106   6.671  14.145  0.2748 -0.9837  2.3586
15114TIP3    H266834   0.256   6.660  14.166  0.8997  1.4080 -0.2777
15115TIP3   OH266835   4.025   6.229   5.418  0.7289 -0.3994 -0.2154
15115TIP3    H166836   4.116   6.202   5.403  0.5648 -0.7481 -0.5994
15115TIP3    H266837   3.975   6.185   5.349  0.4197  0.6906 -0.7055
15116TIP3   OH266838   3.595   1.800  13.366 -0.2419 -0.4020 -0.2126
15116TIP3    H166839   3.527   1.860  13.337 -0.2684  0.5095  1.6141
15116TIP3    H266840   3.622   1.754  13.286 -2.6038 -0.4272 -1.0767
15117TIP3   OH266841   6.127   0.800  12.514 -0.2756 -0.1899 -0.1621
15117TIP3    H166842   6.048   0.847  12.484 -1.3507 -1.3742  0.7205
15117TIP3    H266843   6.115   0.792  12.609  0.6041 -0.9465 -0.1057
15118TIP3   OH266844   5.986   5.362  13.509  0.0461  0.1143  0.1122
15118TIP3    H166845   6.068   5.372  13.558 -0.2063  0.1399  0.5397
15118TIP3    H266846   5.919   5.356  13.577 -0.2465 -0.4738 -0.2170
15119TIP3   OH266847   0.568   5.912  10.815  0.2162  0.5992 -0.0612
15119TIP3    H166848   0.473   5.908  10.823 -0.1142  1.0204 -2.9101
15119TIP3    H266849   0.593   5.987  10.870 -1.5741  2.7709 -1.9881
15120TIP3   OH266850   3.804   1.304   0.787 -0.5767  0.4508 -0.6155
15120TIP3    H166851   3.792   1.248   0.864 -0.8667  0.8009 -0.4041
15120TIP3    H266852   3.804   1.393   0.822  1.0212  0.5525 -0.7951
15121TIP3   OH266853   1.893   4.581  13.247 -0.2917  0.4146 -0.0973
15121TIP3    H166854   1.871   4.652  13.186  1.7105  0.1930 -1.1399
15121TIP3    H266855   1.973   4.610  13.290 -0.3010 -0.5480  0.5905
15122TIP3   OH266856   1.381   3.029  13.004 -0.1169 -0.2490  0.1567
15122TIP3    H166857   1.322   3.038  13.078 -0.3193 -0.3447  0.0059
15122TIP3    H266858   1.412   3.118  12.987 -3.1700  0.5379 -2.2106
15123TIP3   OH266859   1.132   0.308   1.383 -0.5773 -0.0571 -0.1572
15123TIP3    H166860   1.097   0.389   1.347 -0.4927 -0.1672 -0.4874
15123TIP3    H266861   1.173   0.335   1.466 -1.7099  0.0117  0.3901
15124TIP3   OH266862   4.774   4.855  14.560 -0.3751 -0.4621 -0.4193
15124TIP3    H166863   4.812   4.933  14.521 -1.0255  0.2318  0.3004
15124TIP3    H266864   4.729   4.886  14.639 -1.2240 -1.4521 -0.4785
15125TIP3   OH266865   0.081   1.507   5.494  0.2499  0.2641  0.0140
15125TIP3    H166866   0.145   1.445   5.459  0.1073 -0.2493  0.6466
15125TIP3    H266867   0.031   1.456   5.557 -1.2796  0.4625 -0.9960
15126TIP3   OH266868   1.674   5.362  15.636 -0.0398  0.2855 -0.0695
15126TIP3    H166869   1.641   5.394  15.720 -0.2553 -0.1192  0.0038
15126TIP3    H266870   1.601   5.311  15.600  0.2293  0.0406 -0.2690
15127TIP3   OH266871   4.528   3.046  15.976 -0.1755 -0.1069 -0.2242
15127TIP3    H166872   4.469   2.972  15.963  0.0392 -0.1939 -0.7378
15127TIP3    H266873   4.601   3.010  16.026 -0.0411 -0.2556 -0.5300
15128TIP3   OH266874   4.545   3.512  12.720 -0.6849 -0.1593  0.2598
15128TIP3    H166875   4.605   3.506  12.646 -1.4502  1.7299 -0.5923
15128TIP3    H266876   4.601   3.532  12.795 -0.1725  1.1640 -0.4443
15129TIP3   OH266877   3.270   6.586  12.024  0.3875 -0.0985 -0.4776
15129TIP3    H166878   3.359   6.612  12.003  0.4934  0.8682  1.0552
15129TIP3    H266879   3.222   6.594  11.941  1.2181  1.5655 -0.8287
15130TIP3   OH266880   4.208   2.512  12.939 -0.2930  0.6308 -0.0491
15130TIP3    H166881   4.181   2.596  12.975 -2.3443  0.2549 -0.5784
15130TIP3    H266882   4.126   2.464  12.926  0.7054 -0.8654 -1.1991
15131TIP3   OH266883   2.272   1.282   2.938  0.9830  0.5793  0.2615
15131TIP3    H166884   2.280   1.361   2.884  0.1078  0.8444  0.4929
15131TIP3    H266885   2.215   1.224   2.886 -0.3388  1.0615  1.1112
15132TIP3   OH266886   2.105   1.321  10.948  0.5147  0.1457 -0.1420
15132TIP3    H166887   2.050   1.398  10.930  1.0591  0.4500 -0.5404
15132TIP3    H266888   2.054   1.247  10.914 -0.4956  0.1833  1.2007
15133TIP3   OH266889   1.556   0.600   1.661  0.6681 -0.3184 -0.2490
15133TIP3    H166890   1.607   0.520   1.652  0.2231 -1.3838  4.2942
15133TIP3    H266891   1.483   0.575   1.718 -0.3053  2.9877  0.1484
15134TIP3   OH266892   5.165   3.107  17.588  0.4250  0.0644 -0.0729
15134TIP3    H166893   5.192   3.091  17.497 -0.4956 -0.5473 -0.2474
15134TIP3    H266894   5.083   3.155  17.581  1.6703  2.4659  0.4650
15135TIP3   OH266895   3.752   2.033   0.288 -0.4467  0.3211 -0.2392
15135TIP3    H166896   3.825   1.993   0.336  0.7465  1.4883 -1.0233
15135TIP3    H266897   3.731   1.969   0.220  0.7785  0.5473 -0.8564
15136TIP3   OH266898   4.250   4.654  16.608  0.1333  0.4355  0.0227
15136TIP3    H166899   4.283   4.696  16.529  0.5097 -1.2499 -0.7695
15136TIP3    H266900   4.155   4.667  16.605  0.1855  0.7187 -0.4981
15137TIP3   OH266901   1.985   4.343   3.029 -0.6283 -0.4440  0.1031
15137TIP3    H166902   2.028   4.277   2.975  1.2277  1.7832 -1.3553
15137TIP3    H266903   1.937   4.398   2.968  3.0086  3.2648  0.0955
15138TIP3   OH266904   1.267   6.656  15.462  0.2270 -0.1584  0.3317
15138TIP3    H166905   1.217   6.639  15.382  0.9841 -0.0463 -0.1663
15138TIP3    H266906   1.222   6.730  15.503 -0.2470 -0.3052  0.0865
15139TIP3   OH266907   5.874   5.521   3.551 -0.2050 -0.0554  0.3918
15139TIP3    H166908   5.853   5.612   3.573 -0.7533 -0.2818  0.8307
15139TIP3    H266909   5.789   5.479   3.537 -0.0319 -0.8094  1.4499
15140TIP3   OH266910   1.660   5.882  14.124 -0.8281 -0.1593 -0.9115
15140TIP3    H166911   1.711   5.962  14.109  0.0291 -0.5649 -0.2498
15140TIP3    H266912   1.650   5.878  14.219  0.1810 -1.4574 -0.8339
15141TIP3   OH266913   5.635   0.035  12.010 -0.1020 -0.5876  0.3648
15141TIP3    H166914   5.703   0.097  11.984  0.2113 -1.1339 -0.1479
15141TIP3    H266915   5.603  -0.001  11.927 -0.9097 -0.4551  0.6070
15142TIP3   OH266916   6.178   3.425  13.007  0.7276 -0.2519 -0.3168
15142TIP3    H166917   6.119   3.432  12.933  2.6524  1.7243 -1.7985
15142TIP3    H266918   6.239   3.498  12.997  2.6382 -1.4009  1.7954
15143TIP3   OH266919   4.063   4.181   2.027  0.3260  0.0369  0.1171
15143TIP3    H166920   3.987   4.239   2.020 -0.0061 -0.3227  0.6684
15143TIP3    H266921   4.136   4.239   2.049  0.3476  0.4697 -1.0423
15144TIP3   OH266922   3.634   6.040   6.350  0.4622 -0.5441  0.1415
15144TIP3    H166923   3.626   6.135   6.338  2.0319 -0.2040  1.3603
15144TIP3    H266924   3.685   6.031   6.430  1.2461 -2.4019 -0.5112
15145TIP3   OH266925   2.904   3.370   0.687  0.1415 -0.4935  0.0653
15145TIP3    H166926   2.839   3.436   0.662  2.7841  1.5149 -2.1640
15145TIP3    H266927   2.876   3.291   0.642 -2.3951 -0.6257  1.7208
15146TIP3   OH266928   4.057   2.797  11.176 -0.3754  0.3195  0.0075
15146TIP3    H166929   4.098   2.714  11.199  1.8823  1.1257 -0.7843
15146TIP3    H266930   4.066   2.852  11.254 -2.2875 -0.2538  0.6967
15147TIP3   OH266931   6.311   5.854  14.370  0.8986 -0.1365 -0.6169
15147TIP3    H166932   6.295   5.911  14.295  1.0371  0.4226 -0.2245
15147TIP3    H266933   6.321   5.766  14.332 -2.7050 -0.5570 -0.9838
15148TIP3   OH266934   4.823   6.252   4.044 -0.0501  0.4896  0.7290
15148TIP3    H166935   4.754   6.216   3.988 -1.2027  0.9582  1.7985
15148TIP3    H266936   4.830   6.343   4.017  1.0143  0.1670 -0.1763
15149TIP3   OH266937   2.727   0.828  15.935 -0.0128  0.0470 -0.4379
15149TIP3    H166938   2.637   0.795  15.935 -0.1711  0.4725 -0.4806
15149TIP3    H266939   2.757   0.817  16.025 -0.6170  1.2679 -0.0679
15150TIP3   OH266940   1.832   1.799  17.454  0.2779 -0.4863  0.0060
15150TIP3    H166941   1.866   1.819  17.367  1.0827 -0.3777  0.3321
15150TIP3    H266942   1.821   1.703  17.454 -0.0753 -0.4471 -0.3352
15151TIP3   OH266943   3.376   3.081   5.172  0.3810 -0.9373  0.5626
15151TIP3    H166944   3.301   3.091   5.232  0.5228 -2.4808  1.0475
15151TIP3    H266945   3.451   3.110   5.224  0.4160 -1.6416  0.9173
15152TIP3   OH266946   2.957   1.786   5.276  0.1630  0.2679 -0.6815
15152TIP3    H166947   2.926   1.857   5.219 -0.6430  0.7464  0.3074
15152TIP3    H266948   2.880   1.729   5.286  0.7421 -0.6358 -1.2885
15153TIP3   OH266949   2.894   5.655  14.268 -0.2880  0.4635 -0.1982
15153TIP3    H166950   2.858   5.740  14.295 -1.2142  0.5218 -1.5411
15153TIP3    H266951   2.866   5.645  14.177  3.1051  0.5101 -1.3941
15154TIP3   OH266952   2.628   2.040  15.824 -0.3240  0.1041 -0.1683
15154TIP3    H166953   2.627   1.977  15.752 -0.4397 -1.7370  1.3656
15154TIP3    H266954   2.550   2.094  15.810  0.3626  0.6722 -2.1042
15155TIP3   OH266955   3.373   1.076  17.204  0.2705 -0.2590 -0.4091
15155TIP3    H166956   3.310   1.031  17.260  0.2100 -0.8207 -0.9281
15155TIP3    H266957   3.441   1.011  17.187  2.7980  1.2286  2.8362
15156TIP3   OH266958   6.715   1.995   5.873  0.1050  0.1215 -0.4721
15156TIP3    H166959   6.650   2.064   5.886 -1.8897 -2.0800  2.7093
15156TIP3    H266960   6.785   2.016   5.935 -0.8482 -0.9591  1.0418
15157TIP3   OH266961   3.666   0.583   2.874 -0.6045  0.1280  0.3043
15157TIP3    H166962   3.657   0.512   2.810 -1.5226  1.1859 -0.7789
15157TIP3    H266963   3.685   0.661   2.822 -1.1775  0.9846  1.3262
15158TIP3   OH266964   3.422   2.824  13.808  0.1186 -0.1685  0.1941
15158TIP3    H166965   3.352   2.863  13.756  1.1646  0.7556 -0.5593
15158TIP3    H266966   3.424   2.732  13.780 -1.6529 -0.5694  1.2009
15159TIP3   OH266967   4.617   2.747   5.541 -0.6761  0.2109 -0.2990
15159TIP3    H166968   4.556   2.732   5.612 -1.8893  0.6193 -1.2271
15159TIP3    H266969   4.690   2.688   5.559 -0.6765  0.7392  1.5832
15160TIP3   OH266970   4.169   4.413  12.716  0.3305 -0.5129  0.0170
15160TIP3    H166971   4.248   4.443  12.670  0.6901 -0.2327  0.7954
15160TIP3    H266972   4.183   4.440  12.806 -1.0106  0.2265  0.0223
15161TIP3   OH266973   1.176   0.370   5.562 -0.3364  0.2871  0.1965
15161TIP3    H166974   1.173   0.377   5.466 -1.2496  0.6146  0.2457
15161TIP3    H266975   1.240   0.435   5.589  0.1578 -0.0223 -0.2091
15162TIP3   OH266976   3.176   1.473  12.337  0.1399 -0.2183 -0.0177
15162TIP3    H166977   3.097   1.453  12.389 -0.2456  0.5039 -0.3105
15162TIP3    H266978   3.223   1.538  12.390  0.9523 -1.2274  0.5296
15163TIP3   OH266979   1.573   6.047   5.020  0.4085  0.7638 -0.3890
15163TIP3    H166980   1.651   5.998   5.049 -1.3607 -2.0992 -0.0952
15163TIP3    H266981   1.536   6.083   5.100  1.0029  1.5646 -0.4531
15164TIP3   OH266982   5.583   3.916  14.576  0.2960 -0.2416  0.0281
15164TIP3    H166983   5.596   3.990  14.634  0.6369  0.5614 -1.0376
15164TIP3    H266984   5.627   3.843  14.619  0.4431  0.3049  0.8211
15165TIP3   OH266985   0.632   2.571   1.405  0.2125  0.1702  0.0293
15165TIP3    H166986   0.556   2.548   1.351  0.0503  0.5343  0.1054
15165TIP3    H266987   0.635   2.666   1.404  2.2280  0.1650 -2.1668
15166TIP3   OH266988   1.202   6.074  14.679 -0.3137 -1.2042  0.0352
15166TIP3    H166989   1.184   5.992  14.725  1.6173 -0.0485  3.1294
15166TIP3    H266990   1.297   6.078  14.672 -0.3690  0.6713 -0.1997
15167TIP3   OH266991   3.765   2.534   5.261 -0.1746 -0.2629 -0.2584
15167TIP3    H166992   3.751   2.628   5.252  0.6135 -0.1197 -0.0706
15167TIP3    H266993   3.723   2.496   5.184  0.9289  0.3828 -1.1954
15168TIP3   OH266994   4.273   4.008  15.374  0.4044  0.3246  0.8064
15168TIP3    H166995   4.355   4.008  15.423  0.9659 -0.3607 -0.0961
15168TIP3    H266996   4.281   4.082  15.314 -0.1526  0.9773  1.5201
15169TIP3   OH266997   4.866   5.603   2.609  0.2221  0.6679  0.1761
15169TIP3    H166998   4.828   5.519   2.638  0.3112  1.0118  1.3521
15169TIP3    H266999   4.855   5.603   2.514 -0.4943 -0.3314  0.2434
15170TIP3   OH267000   5.853   4.380   0.396  0.2807 -0.1598 -1.1627
15170TIP3    H167001   5.770   4.428   0.393  0.6047  0.5637  0.2939
15170TIP3    H267002   5.920   4.448   0.387  0.7493 -0.3209  0.6953
15171TIP3   OH267003   6.453   1.883  14.616 -0.4876  0.1864 -0.5216
15171TIP3    H167004   6.403   1.802  14.601 -0.7340  0.4486 -1.1831
15171TIP3    H267005   6.544   1.859  14.599 -0.5858  0.0959 -0.9331
15172TIP3   OH267006   0.361   2.542   1.820  0.5140  0.1589  0.1268
15172TIP3    H167007   0.374   2.637   1.813 -0.8989  0.6082  2.4284
15172TIP3    H267008   0.447   2.508   1.844  0.6931  1.0928  0.8633
15173TIP3   OH267009   0.346   1.790   5.271  0.0569 -0.1980  0.2892
15173TIP3    H167010   0.260   1.790   5.230 -1.1509 -0.4014  2.6177
15173TIP3    H267011   0.348   1.871   5.322  1.4407  0.0214 -0.0833
15174TIP3   OH267012   2.817   5.954  13.179 -0.7007  0.5698  0.2725
15174TIP3    H167013   2.904   5.915  13.166 -0.7283  0.7464 -0.4978
15174TIP3    H267014   2.833   6.048  13.182 -1.0065  0.7106 -1.3674
15175TIP3   OH267015   0.406   4.320  12.291 -0.2502 -0.2634  0.6252
15175TIP3    H167016   0.343   4.264  12.336 -2.4198 -1.9149 -3.9106
15175TIP3    H267017   0.464   4.259  12.245 -0.4429  1.1257 -1.6423
15176TIP3   OH267018   5.942   5.344   0.744  0.5252  0.3131 -0.7326
15176TIP3    H167019   5.975   5.413   0.801  2.4029 -0.3821 -0.9283
15176TIP3    H267020   5.900   5.282   0.804  2.0882 -0.1896 -0.1053
15177TIP3   OH267021   5.875   1.873  11.841  0.1023 -0.1704 -0.2420
15177TIP3    H167022   5.783   1.882  11.866  0.4209 -1.9698  1.8965
15177TIP3    H267023   5.877   1.799  11.781  0.0357  0.5976 -1.2073
15178TIP3   OH267024   6.545   5.633   1.677 -0.9628  0.0601 -0.2150
15178TIP3    H167025   6.508   5.628   1.765 -1.8825  0.5610 -0.5639
15178TIP3    H267026   6.494   5.701   1.633  0.3215  0.7232 -0.7413
15179TIP3   OH267027   3.208   0.604  17.378 -0.6247  0.0081  0.3313
15179TIP3    H167028   3.156   0.593  17.458 -1.3345  0.3817 -0.0650
15179TIP3    H267029   3.253   0.688  17.391 -0.8716  0.1523  0.2742
15180TIP3   OH267030   4.053   1.756  15.614 -0.1641  0.2609  0.2179
15180TIP3    H167031   4.131   1.806  15.638  0.2859  0.4806 -1.5659
15180TIP3    H267032   4.044   1.770  15.520 -3.2528  1.4905  0.5866
15181TIP3   OH267033   4.912   0.493   3.012  0.3390  0.4011 -0.2587
15181TIP3    H167034   4.893   0.512   3.104 -0.7688 -1.4138 -0.0582
15181TIP3    H267035   4.864   0.412   2.994  0.9631  0.4281 -2.2985
15182TIP3   OH267036   1.510   4.585  15.702  0.1557  0.0333 -0.6973
15182TIP3    H167037   1.454   4.658  15.675  1.4717  0.3071 -2.9875
15182TIP3    H267038   1.451   4.511  15.712 -0.9393  0.9288 -0.3721
15183TIP3   OH267039   3.528   0.864  17.210 -0.1352  0.0251 -0.0872
15183TIP3    H167040   3.487   0.869  17.296 -1.5621  1.0470 -0.7926
15183TIP3    H267041   3.554   0.772  17.201 -1.1406 -0.3733  0.8938
15184TIP3   OH267042   3.792   3.657   6.380 -0.2682 -0.1350  0.1051
15184TIP3    H167043   3.805   3.594   6.451 -0.1954 -0.1877  0.0439
15184TIP3    H267044   3.809   3.742   6.421 -0.3166 -0.1580  0.1734
15185TIP3   OH267045   1.769   6.551   3.687  0.0214 -0.0852 -0.0262
15185TIP3    H167046   1.705   6.597   3.633  0.7011 -0.8592 -1.5509
15185TIP3    H267047   1.745   6.458   3.680  0.0882 -0.2051  1.0789
15186TIP3   OH267048   3.167   3.303  14.146  0.8106 -0.3156 -0.1689
15186TIP3    H167049   3.082   3.265  14.171  0.3918 -1.1452 -2.5945
15186TIP3    H267050   3.232   3.248  14.190  0.1321 -0.3039  0.8871
15187TIP3   OH267051   5.018   1.270   4.318  0.4229  0.2864  0.2726
15187TIP3    H167052   5.036   1.183   4.352 -0.4905 -0.1117 -0.2362
15187TIP3    H267053   4.990   1.256   4.227  0.5226  1.1289  0.0962
15188TIP3   OH267054   5.408   5.208   2.728  0.1615  0.4038 -0.1374
15188TIP3    H167055   5.338   5.219   2.664  0.1423  0.3850 -0.1195
15188TIP3    H267056   5.395   5.120   2.763  0.5933  0.1412 -0.6141
15189TIP3   OH267057   1.047   4.923  17.432  0.4824 -0.4017  0.0005
15189TIP3    H167058   0.975   4.900  17.491 -0.2486  0.2149 -0.6286
15189TIP3    H267059   1.109   4.852  17.442  0.3693 -0.3320  1.4962
15190TIP3   OH267060   5.729   1.746   5.439  0.0448  0.3142 -0.2065
15190TIP3    H167061   5.756   1.809   5.507  1.3356 -2.4849  2.0867
15190TIP3    H267062   5.794   1.755   5.370  1.4978  0.0523  1.0826
15191TIP3   OH267063   4.817   6.637  15.797 -0.0403  0.0252  0.4511
15191TIP3    H167064   4.781   6.723  15.818 -0.3755 -0.2648  1.1130
15191TIP3    H267065   4.882   6.620  15.866  1.9973  0.8819 -1.1678
15192TIP3   OH267066   1.696   2.993   6.323 -0.1482 -0.2186  0.1239
15192TIP3    H167067   1.631   2.982   6.392 -0.7324 -0.1805 -0.4039
15192TIP3    H267068   1.644   2.999   6.243  0.5053 -0.0492 -0.2932
15193TIP3   OH267069   0.074   1.640   3.971  0.1306 -0.0010  0.0160
15193TIP3    H167070   0.015   1.584   4.022  1.0166 -0.0197  1.0526
15193TIP3    H267071   0.021   1.668   3.896 -0.8390 -0.9076  0.3321
15194TIP3   OH267072   2.770   2.914  15.519 -0.1908 -0.6387 -0.1946
15194TIP3    H167073   2.724   2.992  15.549  0.4702  0.0143 -0.8540
15194TIP3    H267074   2.714   2.879  15.449  0.1584  0.0053 -0.8131
15195TIP3   OH267075   5.200   2.849   3.947  0.4987 -0.6191  0.8421
15195TIP3    H167076   5.269   2.784   3.957 -0.0760 -1.2315  0.8406
15195TIP3    H267077   5.187   2.855   3.852  2.2429  1.3091  0.6259
15196TIP3   OH267078   2.678   2.815  16.374 -0.0928 -0.6100 -0.4722
15196TIP3    H167079   2.629   2.897  16.379  0.4685 -0.2731 -0.4288
15196TIP3    H267080   2.632   2.757  16.435  0.2332  0.0642  0.4445
15197TIP3   OH267081   3.162   5.671  11.718 -0.2277  0.2177  0.3400
15197TIP3    H167082   3.249   5.633  11.708 -0.8335 -1.1608  0.1829
15197TIP3    H267083   3.164   5.749  11.662 -0.0266 -1.4302 -2.1321
15198TIP3   OH267084   1.785   5.807   1.181 -0.5416 -0.1765  0.4014
15198TIP3    H167085   1.866   5.843   1.218 -1.1751  0.6735  1.0203
15198TIP3    H267086   1.716   5.866   1.213 -1.2085  0.2497 -1.6449
15199TIP3   OH267087   0.453   6.253  12.417  0.3354 -0.5237  0.1672
15199TIP3    H167088   0.379   6.259  12.357 -0.2798  1.6646  1.0510
15199TIP3    H267089   0.450   6.164  12.449 -1.8111 -0.5566  0.0263
15200TIP3   OH267090   2.087   5.361   4.472  0.2198 -0.3993 -0.2208
15200TIP3    H167091   2.099   5.274   4.433 -0.6572  0.0033 -1.4490
15200TIP3    H267092   1.999   5.387   4.444  0.4345  0.8409  0.2351
15201TIP3   OH267093   3.449   0.082  12.220 -0.5744  0.5739  0.4190
15201TIP3    H167094   3.472   0.015  12.284  0.0444 -0.1244 -0.5106
15201TIP3    H267095   3.359   0.060  12.194 -0.1130 -0.3554 -0.4295
15202TIP3   OH267096   4.380   6.558   4.905  0.6418  0.0390 -0.3106
15202TIP3    H167097   4.298   6.574   4.953  1.2728 -0.4216  0.9624
15202TIP3    H267098   4.367   6.472   4.865  1.1264 -0.8479  1.3413
15203TIP3   OH267099   1.471   5.622   4.604 -0.6858 -0.0410 -0.4525
15203TIP3    H167100   1.494   5.659   4.519  2.1677  0.0759  0.2959
15203TIP3    H267101   1.532   5.661   4.666 -1.0913 -1.9423  1.2788
15204TIP3   OH267102   0.451   3.145  12.692  0.0233  0.9360  0.1916
15204TIP3    H167103   0.405   3.136  12.775  1.6142  0.6610  1.1003
15204TIP3    H267104   0.541   3.166  12.717  0.5731  0.7155 -1.4602
15205TIP3   OH267105   5.202   0.258   3.968  0.4313  0.1060 -0.6825
15205TIP3    H167106   5.223   0.180   4.019  1.2890  1.5762  1.3643
15205TIP3    H267107   5.259   0.326   4.004 -2.6060  2.5022 -0.0261
15206TIP3   OH267108   6.650   6.549  11.668 -0.1801 -0.1754 -0.3291
15206TIP3    H167109   6.580   6.486  11.687 -0.0984 -0.0181  0.5232
15206TIP3    H267110   6.618   6.631  11.706  1.0938 -0.4236  1.3619
15207TIP3   OH267111   6.368   4.620  12.290  0.2789 -0.2870 -0.0751
15207TIP3    H167112   6.420   4.701  12.290  1.6208 -1.1137  0.3609
15207TIP3    H267113   6.406   4.567  12.220 -0.4054 -0.6537 -0.1723
15208TIP3   OH267114   1.799   5.269   1.677  0.5130  0.3141 -0.1159
15208TIP3    H167115   1.730   5.248   1.613 -1.3437  1.9356  1.2460
15208TIP3    H267116   1.806   5.191   1.731 -1.6053  0.7166  0.8343
15209TIP3   OH267117   6.348   4.321  17.206  0.1261  0.1604 -0.5409
15209TIP3    H167118   6.386   4.334  17.293  1.2494 -0.1694 -0.9723
15209TIP3    H267119   6.413   4.358  17.146 -0.9015  0.9172 -1.2216
15210TIP3   OH267120   5.038   3.603  16.255  0.3910  0.2174  0.4415
15210TIP3    H167121   5.079   3.661  16.191  0.2966 -0.4651 -0.2580
15210TIP3    H267122   5.078   3.517  16.238 -0.9278 -0.3477  0.0864
15211TIP3   OH267123   5.069   4.638   3.971 -0.0246  0.5246  0.2763
15211TIP3    H167124   5.051   4.647   3.877 -0.1974 -2.3539 -0.0554
15211TIP3    H267125   5.148   4.691   3.985 -0.0392  1.0737 -1.4890
15212TIP3   OH267126   3.511   5.282  13.673  0.7742 -0.1654  0.0768
15212TIP3    H167127   3.497   5.188  13.661  0.5520 -0.1966  0.5518
15212TIP3    H267128   3.525   5.315  13.584  1.3889 -0.7265 -0.0466
15213TIP3   OH267129   3.080   3.745  14.049  0.2696  0.4439  0.1196
15213TIP3    H167130   3.119   3.831  14.063 -0.1106  0.7107 -0.4063
15213TIP3    H267131   2.987   3.759  14.066  0.3338 -0.0804  0.9339
15214TIP3   OH267132   2.939   4.899  12.832  0.8554 -0.1787 -0.3687
15214TIP3    H167133   2.853   4.856  12.837  0.7946 -0.0348 -0.1890
15214TIP3    H267134   2.971   4.900  12.922  0.0160  1.8786 -0.0517
15215TIP3   OH267135   0.159   0.874  16.353  1.1083 -0.3848  0.3105
15215TIP3    H167136   0.252   0.852  16.341  0.7670 -0.9957 -1.4663
15215TIP3    H267137   0.114   0.790  16.352  0.4601 -0.0438  0.4642
15216TIP3   OH267138   0.447   4.095  14.291  0.7440 -0.5012  0.5919
15216TIP3    H167139   0.508   4.027  14.262 -0.7551 -1.9540  0.7236
15216TIP3    H267140   0.384   4.049  14.347 -0.8211  0.8267 -0.0022
15217TIP3   OH267141   0.320   5.377   1.503  0.2253 -0.0989  0.2050
15217TIP3    H167142   0.246   5.408   1.554  1.3611  0.8227  1.3438
15217TIP3    H267143   0.306   5.412   1.415 -1.0082 -0.4970  0.2303
15218TIP3   OH267144   1.331   6.080  16.100  0.4507  0.2472  0.0382
15218TIP3    H167145   1.273   6.104  16.172 -0.9052  0.1674 -0.9667
15218TIP3    H267146   1.372   5.998  16.128  1.1822  1.0362  1.3588
15219TIP3   OH267147   3.828   6.229  13.475 -0.9670  0.3774 -0.3663
15219TIP3    H167148   3.798   6.140  13.496 -1.6516  0.5312 -0.6553
15219TIP3    H267149   3.899   6.216  13.412  0.1135 -0.0267  0.8684
15220TIP3   OH267150   4.352   4.789   0.431 -0.7619 -0.5388 -0.4044
15220TIP3    H167151   4.316   4.820   0.348 -0.3441 -0.5252 -0.5841
15220TIP3    H267152   4.398   4.708   0.409 -0.2667 -0.2991 -0.2713
15221TIP3   OH267153   3.373   6.094  17.169  0.6590  0.5225 -0.1188
15221TIP3    H167154   3.430   6.069  17.242 -0.2571 -0.4441  0.2727
15221TIP3    H267155   3.333   6.013  17.140 -1.4562  1.3309  0.3889
15222TIP3   OH267156   4.837   2.869   4.712 -0.0322  0.5302 -0.4191
15222TIP3    H167157   4.849   2.955   4.751 -2.3762  0.3669  0.8586
15222TIP3    H267158   4.814   2.887   4.621  0.9623  1.1602 -0.5556
15223TIP3   OH267159   0.949   1.485   0.250  0.1610  0.0484 -0.1049
15223TIP3    H167160   1.042   1.486   0.225  0.2535 -3.7321 -0.5136
15223TIP3    H267161   0.949   1.474   0.345  0.1179  0.1334 -0.0946
15224TIP3   OH267162   2.518   2.780   0.668  0.1201 -0.1187  0.0156
15224TIP3    H167163   2.608   2.801   0.691 -0.0026  0.6352 -0.1650
15224TIP3    H267164   2.505   2.818   0.581  0.1065 -1.5997 -0.6701
15225TIP3   OH267165   0.249   4.583   0.836  0.2527 -0.8195 -0.7656
15225TIP3    H167166   0.311   4.540   0.776 -1.2436 -2.2470 -1.3465
15225TIP3    H267167   0.261   4.538   0.919 -0.7089 -1.8334 -1.1525
15226TIP3   OH267168   3.477   4.033  17.574 -0.1542  0.2119  0.0011
15226TIP3    H167169   3.551   4.094  17.577  0.8790 -1.0316  0.3001
15226TIP3    H267170   3.401   4.089  17.557  0.7410  1.6047  0.4333
15227TIP3   OH267171   3.898   1.627  15.003  0.1014  0.1694  0.0958
15227TIP3    H167172   3.845   1.583  14.937  0.0806 -1.6158  1.2351
15227TIP3    H267173   3.958   1.559  15.035 -0.3546  0.7604  2.3777
15228TIP3   OH267174   5.217   6.562  12.985  0.3189  0.2646 -0.3468
15228TIP3    H167175   5.301   6.528  12.953 -0.6470 -0.0332 -2.8013
15228TIP3    H267176   5.184   6.615  12.913  0.0709  3.5869  1.9828
15229TIP3   OH267177   0.581   0.841   0.580 -0.4203 -0.5881  0.1227
15229TIP3    H167178   0.512   0.831   0.515 -0.3905  0.6933 -0.1201
15229TIP3    H267179   0.574   0.762   0.635 -0.0645 -1.9799 -1.7443
15230TIP3   OH267180   3.163   6.614   0.792 -0.7394 -0.1821  0.1605
15230TIP3    H167181   3.143   6.522   0.777 -0.2124 -0.4749  1.2158
15230TIP3    H267182   3.146   6.628   0.885 -0.1103  0.6062  0.1700
15231TIP3   OH267183   3.195   6.021  17.653 -0.0747 -0.3708  0.4403
15231TIP3    H167184   3.150   6.103  17.675 -0.0660 -0.1383 -0.3901
15231TIP3    H267185   3.140   5.981  17.585 -0.0477 -1.0325  0.7953
15232TIP3   OH267186   5.170   1.356   3.633  0.0604  0.2811  0.1651
15232TIP3    H167187   5.191   1.446   3.658 -0.9028  0.9484 -1.2551
15232TIP3    H267188   5.255   1.311   3.630  0.8892  1.8404 -1.6016
15233TIP3   OH267189   1.437   3.095   4.340  0.0625 -0.0025 -0.2791
15233TIP3    H167190   1.416   3.165   4.401  0.0214  0.3155 -0.6612
15233TIP3    H267191   1.533   3.096   4.335  0.3070 -1.9636  2.0768
15234TIP3   OH267192   4.958   1.515  11.410  0.1236 -0.0428 -0.5212
15234TIP3    H167193   4.891   1.451  11.386 -0.6327 -0.2182  1.7456
15234TIP3    H267194   5.018   1.516  11.336 -2.2254 -0.0429 -2.5481
15235TIP3   OH267195   2.992   5.412   1.921 -0.2129 -0.1424 -0.3214
15235TIP3    H167196   3.019   5.354   1.992 -0.7509  0.7521  0.6433
15235TIP3    H267197   2.910   5.450   1.952 -0.9623 -0.4444 -1.8389
15236TIP3   OH267198   2.862   5.641   4.319 -0.6573  0.2270 -0.5048
15236TIP3    H167199   2.804   5.594   4.378  0.3811  0.2366  0.5466
15236TIP3    H267200   2.820   5.634   4.233 -1.5870 -0.7900  0.0175
15237TIP3   OH267201   0.460   2.443   4.984  0.1536 -0.1421 -0.1621
15237TIP3    H167202   0.405   2.462   4.908 -0.9512 -0.1981  0.6029
15237TIP3    H267203   0.398   2.423   5.054  1.1525 -2.8241  0.0812
15238TIP3   OH267204   3.101   2.863   4.115 -0.3590  0.0624 -1.0883
15238TIP3    H167205   3.156   2.903   4.049  0.8031  1.7546  0.7901
15238TIP3    H267206   3.119   2.913   4.195  1.7758 -4.5289  1.7264
15239TIP3   OH267207   0.451   6.370  10.785 -0.2236  0.3704  0.1998
15239TIP3    H167208   0.450   6.421  10.704  0.6763  1.3191  0.7626
15239TIP3    H267209   0.535   6.323  10.782 -0.8443 -0.7669 -0.0997
15240TIP3   OH267210   5.199   3.899  16.500 -0.1419  0.1852 -0.2738
15240TIP3    H167211   5.116   3.851  16.501 -1.3717  1.9707 -2.9455
15240TIP3    H267212   5.254   3.851  16.438  0.3490 -0.2604  0.4953
15241TIP3   OH267213   4.686   6.407  10.953 -0.0296 -0.5476  0.2842
15241TIP3    H167214   4.724   6.422  11.040  0.0597 -0.0960  0.1679
15241TIP3    H267215   4.711   6.317  10.931  0.7063 -0.3656  0.3494
15242TIP3   OH267216   5.265   1.079   4.744 -0.4054  0.2009  0.5596
15242TIP3    H167217   5.266   0.997   4.794  0.6779  0.2595  0.6586
15242TIP3    H267218   5.196   1.067   4.680  0.9281 -1.5651 -0.6624
15243TIP3   OH267219   5.357   2.995   5.508  0.5830  0.0420  0.4607
15243TIP3    H167220   5.354   2.901   5.493  0.7625  0.0126  0.5997
15243TIP3    H267221   5.266   3.022   5.518  0.5086 -0.0600  0.0777
15244TIP3   OH267222   3.284   2.035  11.697 -0.0818 -0.0466 -0.2112
15244TIP3    H167223   3.206   1.985  11.721  1.7388 -2.3475  1.3834
15244TIP3    H267224   3.308   2.002  11.610  0.2512 -0.8478  0.1800
15245TIP3   OH267225   0.966   5.804  13.944 -0.4722  0.1909  0.0450
15245TIP3    H167226   0.985   5.877  14.003  1.9227 -0.7877  0.5994
15245TIP3    H267227   0.989   5.836  13.857  0.2307  0.2410  0.2427
15246TIP3   OH267228   2.828   0.143   1.342  0.0129  0.5620 -0.2390
15246TIP3    H167229   2.827   0.049   1.363 -1.3416  0.3974 -0.9184
15246TIP3    H267230   2.736   0.164   1.323  0.4334  1.8113 -1.0086
15247TIP3   OH267231   6.236   6.216   4.020 -0.4458  0.3612  0.7726
15247TIP3    H167232   6.206   6.294   3.974  0.5719 -0.4476 -1.3990
15247TIP3    H267233   6.301   6.177   3.961  0.9139 -0.7803  2.9213
15248TIP3   OH267234   3.344   0.916  14.543  0.3237  0.1107 -0.2487
15248TIP3    H167235   3.266   0.871  14.509  1.0632 -0.5547 -1.1382
15248TIP3    H267236   3.343   1.001  14.500  1.1769 -0.6711 -1.9405
15249TIP3   OH267237   1.233   3.191  15.788  0.0613 -0.2202  0.7220
15249TIP3    H167238   1.308   3.141  15.821  0.5038  1.6063  2.7230
15249TIP3    H267239   1.250   3.281  15.816 -1.4264  0.8089 -1.4406
15250TIP3   OH267240   3.585   2.254   4.468 -0.5961  0.0653 -0.4719
15250TIP3    H167241   3.617   2.341   4.491 -2.8020  0.7801  0.1284
15250TIP3    H267242   3.571   2.211   4.552 -0.1786 -0.6469 -0.7539
15251TIP3   OH267243   1.977   0.806   1.989 -0.0263  0.3264 -0.1239
15251TIP3    H167244   1.934   0.721   1.989  0.6230 -0.0215 -1.0063
15251TIP3    H267245   2.056   0.793   2.042  0.7016  0.0234 -1.2479
15252TIP3   OH267246   4.105   2.373   1.794  0.3511 -0.3788  0.2343
15252TIP3    H167247   4.194   2.365   1.828  0.0726  0.3143  1.1519
15252TIP3    H267248   4.113   2.346   1.702  1.5312 -0.1842  0.2547
15253TIP3   OH267249   1.051   0.434  15.412 -0.3534 -0.1939  0.0466
15253TIP3    H167250   1.002   0.354  15.427 -0.9572  0.3096  0.8664
15253TIP3    H267251   1.003   0.501  15.461 -0.4637  0.8862 -1.4577
15254TIP3   OH267252   5.787   1.707   5.796  0.2004 -0.4730  0.3973
15254TIP3    H167253   5.872   1.738   5.763  0.7829 -3.8028 -1.6195
15254TIP3    H267254   5.723   1.745   5.736  0.4159  0.5528  0.7989
15255TIP3   OH267255   3.607   3.858  11.706  0.3622 -0.2659 -0.7806
15255TIP3    H167256   3.522   3.888  11.675  0.9855  0.3462 -1.9275
15255TIP3    H267257   3.670   3.921  11.670  1.3577 -1.0115 -0.3904
15256TIP3   OH267258   4.862   6.567  13.431  0.4929 -0.0910 -0.4767
15256TIP3    H167259   4.773   6.534  13.421  0.1251  0.5254  0.6781
15256TIP3    H267260   4.872   6.634  13.363  0.3437 -0.6782 -1.0889
15257TIP3   OH267261   4.515   2.932  16.257 -0.7494  0.7648 -0.3205
15257TIP3    H167262   4.593   2.922  16.203 -1.7334  1.2831 -1.9276
15257TIP3    H267263   4.544   2.982  16.334  0.7584 -0.2655 -0.1950
15258TIP3   OH267264   2.387   5.996  16.386 -0.1889  0.1892  0.7257
15258TIP3    H167265   2.323   6.015  16.455  0.6152 -0.1399  1.5973
15258TIP3    H267266   2.346   6.026  16.305 -0.8656  1.2826  1.4455
15259TIP3   OH267267   3.020   5.410  12.090  0.1962  0.2539 -0.4199
15259TIP3    H167268   3.014   5.316  12.077  0.7700  0.1438  0.0930
15259TIP3    H267269   3.021   5.447  12.001 -3.2586  0.0161 -0.6803
15260TIP3   OH267270   5.682   1.842  11.324 -0.4186 -0.4444 -0.4997
15260TIP3    H167271   5.750   1.909  11.332  0.2910 -1.1454 -0.5747
15260TIP3    H267272   5.689   1.811  11.234 -0.8470 -0.5145 -0.5118
15261TIP3   OH267273   2.022   2.710   1.005 -0.1631 -0.1476 -0.2188
15261TIP3    H167274   1.984   2.733   1.090 -4.2115  0.9782 -2.1044
15261TIP3    H267275   2.095   2.770   0.995 -0.2938  0.4743  1.9294
15262TIP3   OH267276   2.568   6.568  11.327  0.0710 -0.2178  0.5833
15262TIP3    H167277   2.624   6.616  11.265  0.0019 -0.3912  0.3873
15262TIP3    H267278   2.614   6.486  11.342  0.6741  0.2890  1.6606
15263TIP3   OH267279   3.110   3.367   2.316 -0.0821  0.5577  0.0113
15263TIP3    H167280   3.015   3.364   2.305 -0.3531  0.8751  1.8860
15263TIP3    H267281   3.123   3.393   2.408  1.7610 -3.0043  0.9369
15264TIP3   OH267282   5.550   0.236  15.677  0.0648 -0.3221  0.0471
15264TIP3    H167283   5.536   0.173  15.747 -1.7301 -0.7903 -0.6783
15264TIP3    H267284   5.636   0.275  15.696 -0.0559 -0.9503  2.0599
15265TIP3   OH267285   6.302   2.829   4.850 -0.7850  0.0968  0.0454
15265TIP3    H167286   6.362   2.764   4.887 -0.0599  1.0877  0.6735
15265TIP3    H267287   6.358   2.890   4.804 -1.2798  1.1341  0.7750
15266TIP3   OH267288   5.828   2.067   6.442 -0.0797  0.4553 -0.1842
15266TIP3    H167289   5.810   2.161   6.449 -0.3407  0.5671 -1.8595
15266TIP3    H267290   5.893   2.060   6.372 -1.3952 -0.7141 -1.3599
15267TIP3   OH267291   5.259   1.263  15.962  0.3867  0.3441 -0.3253
15267TIP3    H167292   5.250   1.257  15.867  0.9670  1.2746 -0.4509
15267TIP3    H267293   5.185   1.212  15.996 -0.2991  0.6780 -1.2666
15268TIP3   OH267294   2.493   3.769  14.916  0.3909 -0.1922  0.0057
15268TIP3    H167295   2.401   3.756  14.893 -0.1436 -0.1854  1.8929
15268TIP3    H267296   2.522   3.685  14.951  0.9231 -0.0430 -0.0653
15269TIP3   OH267297   4.523   2.001  16.451 -0.0793  0.0203 -0.3354
15269TIP3    H167298   4.580   1.952  16.510 -0.7546  0.1191  0.4280
15269TIP3    H267299   4.560   1.987  16.364 -0.2479 -1.8532 -0.1461
15270TIP3   OH267300   6.488   2.088  17.133 -0.5976  0.4610 -0.4917
15270TIP3    H167301   6.461   2.172  17.170 -0.9821  0.0553  0.1632
15270TIP3    H267302   6.545   2.050  17.200 -1.5677 -0.4314 -0.1456
15271TIP3   OH267303   0.201   6.032   4.148 -0.4161 -0.5515 -0.2336
15271TIP3    H167304   0.174   5.970   4.215 -1.6159  0.2834  0.0931
15271TIP3    H267305   0.289   6.005   4.124  0.2244 -0.6436  1.9693
15272TIP3   OH267306   1.693   5.824  10.626 -0.0101  0.5244  0.2629
15272TIP3    H167307   1.785   5.818  10.600 -0.2212 -1.8111 -0.0971
15272TIP3    H267308   1.644   5.813  10.545 -0.6050 -0.5801  0.7491
15273TIP3   OH267309   5.648   2.646   3.649  0.2422 -0.6278  0.3669
15273TIP3    H167310   5.683   2.735   3.657  0.0950 -0.6051  0.7448
15273TIP3    H267311   5.689   2.612   3.569  1.5752 -0.7990  1.0909
15274TIP3   OH267312   0.967   6.379  12.184  0.2864 -0.2873  0.7655
15274TIP3    H167313   0.897   6.426  12.138  1.5741  1.0761  0.1386
15274TIP3    H267314   0.967   6.292  12.144 -1.1912 -0.4070  0.9473
15275TIP3   OH267315   2.530   1.519  13.572  0.2610 -0.1438  0.1038
15275TIP3    H167316   2.590   1.500  13.645 -0.5163 -0.8617  0.5746
15275TIP3    H267317   2.588   1.532  13.497  0.9854 -2.3215  0.2093
15276TIP3   OH267318   4.879   4.366   4.799  0.1177 -0.1800  0.0060
15276TIP3    H167319   4.787   4.357   4.775  0.2509 -0.9968 -0.2448
15276TIP3    H267320   4.881   4.346   4.893  0.1859 -1.3191 -0.2222
15277TIP3   OH267321   4.523   2.090   3.783  0.3274 -0.0955  0.5137
15277TIP3    H167322   4.429   2.075   3.793  0.0898  1.2205  0.4017
15277TIP3    H267323   4.530   2.143   3.704  1.5231 -3.5901 -2.0002
15278TIP3   OH267324   3.606   1.348  11.570 -0.1223 -0.5184 -0.4611
15278TIP3    H167325   3.624   1.439  11.548 -1.0178 -0.5934 -1.6205
15278TIP3    H267326   3.650   1.298  11.501  2.4112 -1.1325  1.4681
15279TIP3   OH267327   0.492   4.440  16.510 -0.2010  0.1276 -0.2099
15279TIP3    H167328   0.422   4.408  16.453  0.0847  0.6586 -0.8758
15279TIP3    H267329   0.527   4.516  16.463  1.7039 -0.9167 -0.5623
15280TIP3   OH267330   6.265   3.714   4.881 -0.6806 -0.1967  0.2717
15280TIP3    H167331   6.307   3.764   4.812 -0.6586 -1.2395 -0.4892
15280TIP3    H267332   6.179   3.754   4.891  0.1817  1.5419  1.3950
15281TIP3   OH267333   0.782   6.450  11.652 -0.1995 -0.1129 -0.3484
15281TIP3    H167334   0.822   6.382  11.707  2.0072 -1.0714 -2.9465
15281TIP3    H267335   0.688   6.434  11.659 -0.0454 -0.2534  2.9469
15282TIP3   OH267336   3.882   4.153   1.720  0.0149  0.0586 -0.5592
15282TIP3    H167337   3.942   4.173   1.648  0.9359  0.1333  0.2270
15282TIP3    H267338   3.866   4.237   1.762  0.8333 -0.2420  0.3699
15283TIP3   OH267339   2.590   1.389  15.665 -0.3427  0.4540 -0.4353
15283TIP3    H167340   2.679   1.408  15.692  0.0411  1.4786 -2.2938
15283TIP3    H267341   2.555   1.333  15.735  2.4471 -1.8150 -0.6803
15284TIP3   OH267342   0.326   5.405   4.575 -0.6698  0.3509  0.2048
15284TIP3    H167343   0.405   5.350   4.584 -0.8287  0.0052 -0.4601
15284TIP3    H267344   0.293   5.414   4.665 -0.9011 -1.0504  0.2858
15285TIP3   OH267345   5.595   4.118   4.522  0.7270 -0.0445  0.4806
15285TIP3    H167346   5.639   4.034   4.536  0.8531 -0.2305 -0.9343
15285TIP3    H267347   5.661   4.173   4.481 -0.5928 -0.6981 -2.8319
15286TIP3   OH267348   6.635   0.946  16.766  0.2100  0.8824  0.2366
15286TIP3    H167349   6.581   1.025  16.760  1.1350  1.5715  0.6075
15286TIP3    H267350   6.712   0.974  16.816  0.6162 -0.2273  0.2582
15287TIP3   OH267351   6.591   5.711  11.452 -0.2405  0.3887 -0.2809
15287TIP3    H167352   6.589   5.795  11.406  2.4539  1.5461  1.4896
15287TIP3    H267353   6.546   5.728  11.534 -2.0483 -0.7384 -0.9730
15288TIP3   OH267354   6.463   6.260  15.316  0.2716 -0.4626  0.6714
15288TIP3    H167355   6.414   6.180  15.333 -0.5369  0.1127  1.1382
15288TIP3    H267356   6.398   6.330  15.325  1.2475  0.3505  1.6726
15289TIP3   OH267357   3.470   3.640   4.475  0.6053  0.4914  0.1883
15289TIP3    H167358   3.424   3.586   4.539  2.5770  0.5393  1.7418
15289TIP3    H267359   3.404   3.662   4.409 -1.3069 -0.2089  1.7980
15290TIP3   OH267360   0.217   6.228   5.001  0.4052 -0.1554 -0.0209
15290TIP3    H167361   0.230   6.307   4.949  0.9296 -0.0380  0.2893
15290TIP3    H267362   0.213   6.259   5.092 -0.7397 -0.3308  0.0125
15291TIP3   OH267363   2.735   0.217   4.974 -0.8434 -0.6122  0.0787
15291TIP3    H167364   2.764   0.126   4.975 -1.3433 -0.7795 -0.2939
15291TIP3    H267365   2.782   0.256   4.900  0.3562 -0.2287  1.0177
15292TIP3   OH267366   4.034   4.397  12.370 -0.2356 -0.3138  0.5905
15292TIP3    H167367   4.034   4.329  12.437 -3.1526 -1.1897 -0.1542
15292TIP3    H267368   4.096   4.365  12.304  0.0891 -1.1445  1.2783
15293TIP3   OH267369   6.027   1.481   1.484  0.3399  0.0889  0.1638
15293TIP3    H167370   6.033   1.417   1.555  0.9166  0.1072  0.1340
15293TIP3    H267371   6.081   1.445   1.414  1.8872  1.2850  0.6743
15294TIP3   OH267372   5.738   4.723  12.781  0.3544  0.1182  0.2468
15294TIP3    H167373   5.727   4.684  12.694 -0.1204  0.1845  0.2776
15294TIP3    H267374   5.650   4.725  12.818  0.1832  2.1670 -0.1552
15295TIP3   OH267375   2.039   0.751  17.046 -0.5161 -0.1355 -0.2300
15295TIP3    H167376   2.118   0.700  17.065  0.0302  0.7624 -0.0285
15295TIP3    H267377   2.072   0.839  17.028 -1.3801 -0.0236 -1.3041
15296TIP3   OH267378   0.866   4.614   5.571  0.4073  0.3529 -0.0303
15296TIP3    H167379   0.950   4.642   5.535  1.6098 -1.0883  1.4863
15296TIP3    H267380   0.841   4.683   5.632 -0.1351  1.3398 -1.3185
15297TIP3   OH267381   5.209   2.210  15.676 -0.2863  0.2157 -0.3369
15297TIP3    H167382   5.149   2.201  15.603  1.0370  2.8078 -1.8931
15297TIP3    H267383   5.294   2.226  15.635  0.7328  0.5447  1.7793
15298TIP3   OH267384   4.562   2.841   3.631 -0.5559  0.2621  0.2276
15298TIP3    H167385   4.543   2.925   3.673  0.0139  1.5681 -1.9479
15298TIP3    H267386   4.654   2.824   3.652 -0.7176  0.0887  0.8091
15299TIP3   OH267387   1.913   3.941  13.901  0.2154  0.8774  0.0401
15299TIP3    H167388   1.875   3.918  13.986  2.4823  2.0557  1.4638
15299TIP3    H267389   1.958   3.862  13.872 -1.1456  0.2465 -0.4908
15300TIP3   OH267390   3.050   1.911  12.792 -0.3062 -0.1731 -0.5250
15300TIP3    H167391   3.133   1.912  12.840 -0.0084  0.0171 -1.0426
15300TIP3    H267392   3.025   1.819  12.788  1.6499 -0.6967 -3.3921
15301TIP3   OH267393   6.139   1.088   1.511  0.9513  0.0385 -0.4771
15301TIP3    H167394   6.055   1.060   1.476  0.3574  0.3622  0.6336
15301TIP3    H267395   6.145   1.181   1.488  0.2296  0.4377  0.8366
15302TIP3   OH267396   0.582   3.023  15.373  0.4953 -0.5979  0.1669
15302TIP3    H167397   0.669   3.006  15.408  0.8869  0.5482 -0.2050
15302TIP3    H267398   0.595   3.036  15.279 -0.3387 -2.1522 -0.1927
15303TIP3   OH267399   4.046   3.335  13.527 -0.1671 -0.3832  0.2645
15303TIP3    H167400   4.053   3.427  13.503  2.4743 -0.9017 -1.4146
15303TIP3    H267401   4.050   3.335  13.622 -2.1547  1.2932  0.4197
15304TIP3   OH267402   0.371   5.404   2.437 -0.3756  0.4554  0.1581
15304TIP3    H167403   0.465   5.412   2.418 -0.2279  0.8867  0.9911
15304TIP3    H267404   0.349   5.314   2.412  0.4714  0.0610  0.7509
15305TIP3   OH267405   6.737   1.119  17.554 -0.5265  0.2409  0.1661
15305TIP3    H167406   6.659   1.066  17.569 -1.4533  1.7218  0.9029
15305TIP3    H267407   6.713   1.178  17.482  0.1307  0.2809 -0.0232
15306TIP3   OH267408   5.384   5.409   2.921 -0.2777 -0.3342  0.3090
15306TIP3    H167409   5.464   5.375   2.961  0.8832  1.1650 -0.6457
15306TIP3    H267410   5.365   5.347   2.851  1.9802  0.9630 -1.5956
15307TIP3   OH267411   5.843   6.202   4.389 -0.4098  0.2414  0.4505
15307TIP3    H167412   5.895   6.238   4.460  2.1747 -1.4928 -0.4199
15307TIP3    H267413   5.900   6.205   4.312 -2.7564  1.1439 -1.4111
15308TIP3   OH267414   2.979   3.221   6.516  0.8770  0.0054 -0.2550
15308TIP3    H167415   2.894   3.240   6.555  0.6273  0.1263 -0.8490
15308TIP3    H267416   3.038   3.214   6.591  0.6428  1.4067  0.0976
15309TIP3   OH267417   1.867   5.130  12.258  0.0343 -0.5453 -0.0555
15309TIP3    H167418   1.931   5.061  12.240  0.6123  0.5823 -3.0116
15309TIP3    H267419   1.916   5.196  12.306  0.5350 -0.5836 -0.5022
15310TIP3   OH267420   6.339   6.253  13.247  0.2112  0.0331 -0.5876
15310TIP3    H167421   6.348   6.204  13.165  2.5050  0.5484 -0.6925
15310TIP3    H267422   6.402   6.213  13.306 -1.6886 -0.5923  1.1249
15311TIP3   OH267423   2.063   2.332  17.168  0.1677 -0.5918 -0.5329
15311TIP3    H167424   2.079   2.360  17.258  0.8058 -0.9150 -0.5450
15311TIP3    H267425   2.091   2.241  17.166  1.2841 -0.2423 -1.3621
15312TIP3   OH267426   5.380   2.654   4.984  0.0067  0.1272 -1.4456
15312TIP3    H167427   5.402   2.701   4.904  0.3043  1.7692 -0.4559
15312TIP3    H267428   5.452   2.675   5.044 -0.9987  0.2850 -0.2448
15313TIP3   OH267429   1.197   3.881  10.985 -0.3064 -0.2430 -0.0611
15313TIP3    H167430   1.271   3.926  10.944  0.6724  0.5530  2.3862
15313TIP3    H267431   1.232   3.795  11.009 -0.4539 -0.2069  0.2837
15314TIP3   OH267432   5.153   2.411   4.158  0.0741  0.4561 -0.1393
15314TIP3    H167433   5.240   2.385   4.128  2.4975  3.1106  3.7534
15314TIP3    H267434   5.117   2.463   4.086  3.2314  2.1355 -0.6503
15315TIP3   OH267435   4.146   1.901  16.020 -0.2140 -0.4680  0.2526
15315TIP3    H167436   4.211   1.831  16.026  0.3194  0.0369  0.4672
15315TIP3    H267437   4.127   1.923  16.111  1.2672  1.1560  0.2116
15316TIP3   OH267438   3.676   2.377  14.773  0.5000  0.1448  0.1915
15316TIP3    H167439   3.736   2.303  14.760 -1.6408 -1.7437  0.4564
15316TIP3    H267440   3.625   2.353  14.850 -1.5115  1.0249 -0.8041
15317TIP3   OH267441   5.188   5.743   4.118  0.2088 -0.0611  0.3929
15317TIP3    H167442   5.280   5.727   4.139 -0.0976 -3.5524 -0.2926
15317TIP3    H267443   5.181   5.724   4.025 -1.0879  0.8727  0.2788
15318TIP3   OH267444   3.220   5.925   2.879 -0.0934 -0.5510 -0.6086
15318TIP3    H167445   3.275   5.997   2.909  0.5805 -0.4691 -1.9718
15318TIP3    H267446   3.262   5.846   2.914 -0.4045 -0.3479  0.2456
15319TIP3   OH267447   4.868   5.704  17.667  0.4404 -0.0618 -0.2159
15319TIP3    H167448   4.893   5.709  17.574  3.0602 -2.3470  0.2347
15319TIP3    H267449   4.778   5.672  17.666  0.9654 -1.6857 -2.0234
15320TIP3   OH267450   4.879   0.364   1.589 -0.0928  0.1326 -0.6016
15320TIP3    H167451   4.943   0.307   1.547 -0.6957 -0.4092 -0.7891
15320TIP3    H267452   4.909   0.453   1.567  2.0092  0.0110  1.3630
15321TIP3   OH267453   4.001   1.030   4.884  0.6395 -0.0252 -0.1654
15321TIP3    H167454   3.967   1.079   4.959  0.9491 -0.2426  0.1216
15321TIP3    H267455   4.039   1.096   4.827  0.6374  0.1161 -0.0038
15322TIP3   OH267456   2.687   0.232   3.338  0.2976 -0.0311 -0.2474
15322TIP3    H167457   2.769   0.281   3.335  0.3146 -0.0002  0.4408
15322TIP3    H267458   2.620   0.300   3.348  0.4867 -0.1884  3.0412
15323TIP3   OH267459   6.177   6.146   6.544 -0.1642 -0.1205  0.6224
15323TIP3    H167460   6.108   6.122   6.606 -0.2909 -1.9309 -0.1440
15323TIP3    H267461   6.135   6.206   6.483 -0.9748 -0.9172  0.3837
15324TIP3   OH267462   2.110   5.836   6.088  0.3905  0.3567  0.0830
15324TIP3    H167463   2.022   5.831   6.126  0.9797  0.4898  1.5423
15324TIP3    H267464   2.096   5.860   5.997 -1.1510 -1.0437 -0.0757
15325TIP3   OH267465   2.222   5.618   6.702 -0.2701 -0.0328 -0.7427
15325TIP3    H167466   2.157   5.558   6.738 -1.1331  0.8947 -0.7160
15325TIP3    H267467   2.293   5.618   6.767  0.2915 -1.8908 -1.2997
15326TIP3   OH267468   3.018   5.808   1.733 -0.8289  0.1506  0.3148
15326TIP3    H167469   2.951   5.743   1.710 -0.2547 -0.4997  0.4363
15326TIP3    H267470   3.016   5.870   1.660 -0.0215 -1.1040 -0.8251
15327TIP3   OH267471   2.759   0.522   1.812 -0.4933  0.5983 -0.1878
15327TIP3    H167472   2.784   0.608   1.779  1.0748  0.8219  1.4251
15327TIP3    H267473   2.841   0.478   1.830 -1.2654 -0.4280  1.0140
15328TIP3   OH267474   1.273   0.375  15.589 -0.4748 -0.0306  0.4409
15328TIP3    H167475   1.248   0.410  15.674  0.3215  1.6759  0.0032
15328TIP3    H267476   1.221   0.425  15.526  0.6321  0.3551 -0.1961
15329TIP3   OH267477   6.479   0.673   0.752 -0.0572  0.6671 -0.4043
15329TIP3    H167478   6.402   0.730   0.743  0.3813  0.9549 -3.2619
15329TIP3    H267479   6.534   0.696   0.677  1.7447 -1.1531  0.2944
15330TIP3   OH267480   1.102   5.921  14.185 -0.6852  0.0876 -0.5148
15330TIP3    H167481   1.098   5.955  14.275  0.7099 -0.0255 -0.3753
15330TIP3    H267482   1.172   5.855  14.188 -0.3540  0.3566 -1.7748
15331TIP3   OH267483   0.543   0.899   6.696  0.6373 -0.4337  0.3098
15331TIP3    H167484   0.578   0.810   6.702  0.3027 -0.6510 -0.8572
15331TIP3    H267485   0.619   0.956   6.706  0.9303 -0.8563  0.5168
15332TIP3   OH267486   3.435   5.772  13.834 -0.7086  0.6134 -0.1210
15332TIP3    H167487   3.343   5.761  13.812 -0.8480 -0.2482  0.8413
15332TIP3    H267488   3.464   5.847  13.780 -2.1190  1.3033  0.0472
15333TIP3   OH267489   0.854   0.410  14.792 -0.6659  0.7174  0.5359
15333TIP3    H167490   0.929   0.412  14.733 -1.3539  2.7966 -0.3806
15333TIP3    H267491   0.891   0.393  14.878  0.4607 -1.4817 -0.3183
15334TIP3   OH267492   3.079   3.000  15.315  0.3743 -0.3553  0.5619
15334TIP3    H167493   3.071   3.086  15.274  0.5155 -0.0805  1.1042
15334TIP3    H267494   3.122   3.017  15.398 -0.8364 -0.7847  1.2959
15335TIP3   OH267495   0.376   0.511  14.126 -0.0333 -0.0970  0.3258
15335TIP3    H167496   0.432   0.454  14.179 -0.8646  1.0480  2.5445
15335TIP3    H267497   0.294   0.517  14.175 -0.4275  1.9726 -0.4923
15336TIP3   OH267498   1.035   4.246  15.496 -0.2866  0.6014 -0.2314
15336TIP3    H167499   0.956   4.258  15.549 -0.7651 -0.6887 -0.6029
15336TIP3    H267500   1.004   4.199  15.418  0.7539  0.6031 -0.6531
15337TIP3   OH267501   1.565   3.150  13.572  0.1878  0.3067 -0.5217
15337TIP3    H167502   1.609   3.233  13.593 -0.8290  0.5025  0.9503
15337TIP3    H267503   1.578   3.096  13.650 -2.1055  0.3587 -0.0496
15338TIP3   OH267504   1.576   5.895   4.489  0.4039  0.0700  0.5267
15338TIP3    H167505   1.521   5.943   4.550 -0.3696 -0.0942 -0.0204
15338TIP3    H267506   1.641   5.851   4.543 -1.5541 -1.8122  1.4598
15339TIP3   OH267507   1.409   2.387  14.238 -0.8541  0.2605 -0.6821
15339TIP3    H167508   1.386   2.440  14.314 -0.9321  0.5775 -0.9210
15339TIP3    H267509   1.400   2.296  14.267  0.9172  0.3315  0.2443
15340TIP3   OH267510   5.663   4.764  12.334  0.1974 -0.2547  0.1956
15340TIP3    H167511   5.609   4.727  12.404  0.5343 -1.4023 -0.1146
15340TIP3    H267512   5.651   4.704  12.260  0.8716  0.1972 -0.3001
15341TIP3   OH267513   4.674   6.637  17.610  0.2502  0.4971  0.6395
15341TIP3    H167514   4.704   6.548  17.591  0.4323  0.4067  1.3214
15341TIP3    H267515   4.586   6.641  17.572  0.0724 -0.1160  0.9634
15342TIP3   OH267516   1.319   1.115   5.753 -0.7352 -0.7454  0.2062
15342TIP3    H167517   1.397   1.158   5.789 -2.3877  0.7571  2.1697
15342TIP3    H267518   1.317   1.030   5.797  0.2855 -1.2283 -0.6132
15343TIP3   OH267519   2.520   1.063  13.223 -0.4880  0.1511 -0.5411
15343TIP3    H167520   2.438   1.076  13.271  0.4693  0.3043  1.1277
15343TIP3    H267521   2.526   1.141  13.167 -0.4493  1.2731  0.9331
15344TIP3   OH267522   2.438   4.241   2.762 -0.2761  0.2209 -0.2656
15344TIP3    H167523   2.353   4.251   2.719 -0.9476  1.1997  1.1687
15344TIP3    H267524   2.423   4.276   2.850  1.7402  0.8320 -0.1313
15345TIP3   OH267525   6.019   3.633  16.798  0.3074 -0.1208 -0.0724
15345TIP3    H167526   5.982   3.615  16.884 -0.4276 -1.7306 -0.6847
15345TIP3    H267527   6.033   3.546  16.759 -0.3125  0.5732 -1.9606
15346TIP3   OH267528   5.851   1.215   3.243 -0.3576  0.2032 -0.1923
15346TIP3    H167529   5.756   1.213   3.252 -0.7029  0.1374 -2.9866
15346TIP3    H267530   5.883   1.165   3.318 -2.4444  0.7873  1.2016
15347TIP3   OH267531   0.422   5.979  17.222 -0.4376 -0.4919  0.3067
15347TIP3    H167532   0.377   5.981  17.137  1.9256 -1.6237 -1.0806
15347TIP3    H267533   0.400   5.893  17.259  1.1729 -1.4779 -0.8342
15348TIP3   OH267534   4.886   3.955  13.475  0.2714 -0.1816  0.5774
15348TIP3    H167535   4.882   3.984  13.566 -0.7365 -0.2377  0.5574
15348TIP3    H267536   4.974   3.917  13.466  0.1529 -0.7603  1.6965
15349TIP3   OH267537   4.519   4.231  15.873  0.2335  0.9764  0.3350
15349TIP3    H167538   4.443   4.216  15.930  0.0792 -0.6330 -0.2407
15349TIP3    H267539   4.588   4.260  15.933 -0.2772  0.5194  1.1722
15350TIP3   OH267540   1.602   3.866   0.706 -0.0822  0.3500 -0.4247
15350TIP3    H167541   1.668   3.806   0.670  0.5023  0.0620  1.0620
15350TIP3    H267542   1.545   3.886   0.632  0.1644 -1.4297 -1.1489
15351TIP3   OH267543   1.040   5.990  15.937  0.4550  0.4971 -0.1724
15351TIP3    H167544   1.100   6.061  15.960  0.3839  1.0673 -1.6607
15351TIP3    H267545   1.065   5.964  15.849  0.2706 -1.1454  0.2273
15352TIP3   OH267546   6.398   5.121   5.415  0.1905 -0.1133  0.3389
15352TIP3    H167547   6.323   5.138   5.358  0.5221  1.9443  0.4380
15352TIP3    H267548   6.425   5.032   5.392 -2.1772 -0.8806  0.2281
15353TIP3   OH267549   4.582   2.722   1.281  0.3541 -0.7882  0.2580
15353TIP3    H167550   4.517   2.656   1.305 -0.4135 -0.6288 -1.2458
15353TIP3    H267551   4.548   2.760   1.199  1.9842 -0.2063 -0.1815
15354TIP3   OH267552   6.345   5.060   5.676 -0.3112 -0.2196 -0.0395
15354TIP3    H167553   6.389   5.101   5.602  1.2318  0.9757  1.4717
15354TIP3    H267554   6.401   4.987   5.700 -0.7715 -0.5616  0.0155
15355TIP3   OH267555   2.242   0.657  12.612  0.0439 -0.0082  1.0067
15355TIP3    H167556   2.211   0.566  12.608 -1.8807  0.6339 -0.0287
15355TIP3    H267557   2.275   0.674  12.524  1.3534  0.0240  1.4818
15356TIP3   OH267558   6.137   4.894   5.611 -0.0542  0.1961  0.1826
15356TIP3    H167559   6.222   4.926   5.641  1.0187 -1.9781 -0.3178
15356TIP3    H267560   6.083   4.895   5.689  0.2900  1.9147  0.4458
15357TIP3   OH267561   1.743   0.820   1.706  0.3203  0.2225 -0.1763
15357TIP3    H167562   1.744   0.914   1.723  1.4040  0.1551  0.2601
15357TIP3    H267563   1.662   0.804   1.659  0.8003  1.5983 -1.5381
15358TIP3   OH267564   2.680   2.721   4.139  0.1900  0.3943 -0.2837
15358TIP3    H167565   2.597   2.737   4.183  0.9406  2.4423  0.5231
15358TIP3    H267566   2.706   2.807   4.105  2.6662  0.1242  0.7484
15359TIP3   OH267567   0.445   1.709  12.870 -0.4779 -0.2089  0.4174
15359TIP3    H167568   0.467   1.616  12.872  0.1236 -0.1587 -1.6164
15359TIP3    H267569   0.498   1.748  12.939 -0.3008 -1.2804  0.9017
15360TIP3   OH267570   1.381   2.983   2.945 -0.0571  0.0925 -0.1005
15360TIP3    H167571   1.345   2.915   2.888 -0.1498 -1.3062  1.5518
15360TIP3    H267572   1.307   3.040   2.965 -0.5625 -0.7100  0.3928
15361TIP3   OH267573   0.152   2.816  11.615 -0.0338  0.2936 -0.0972
15361TIP3    H167574   0.178   2.840  11.526  1.2612  0.4805  0.3104
15361TIP3    H267575   0.224   2.848  11.670 -1.0141  0.5557  1.0646
15362TIP3   OH267576   2.688   6.429   2.912 -0.2788  0.4301  0.2688
15362TIP3    H167577   2.730   6.382   2.984  1.1397  0.5686 -0.4183
15362TIP3    H267578   2.646   6.361   2.860  0.6475  0.0351  0.0013
15363TIP3   OH267579   5.455   1.937  17.161 -0.1283 -0.1108  0.2824
15363TIP3    H167580   5.493   1.886  17.232  0.7794  0.4188  0.1952
15363TIP3    H267581   5.501   2.021  17.164  0.2919 -0.2553 -1.2275
15364TIP3   OH267582   3.176   3.418   5.211  0.3828  0.2350  0.8691
15364TIP3    H167583   3.208   3.368   5.286  0.7967  1.0238  1.2210
15364TIP3    H267584   3.080   3.412   5.217  0.3834 -2.5307 -0.4516
15365TIP3   OH267585   2.723   1.672  14.576  0.6204  0.2343 -0.2139
15365TIP3    H167586   2.760   1.759  14.561 -0.7971  0.5814 -2.0871
15365TIP3    H267587   2.770   1.639  14.652  0.0382  3.3262  1.6871
15366TIP3   OH267588   6.737   2.960  10.887 -0.2697  0.2738 -0.3862
15366TIP3    H167589   6.758   3.000  10.971  1.5543 -2.2746  0.4613
15366TIP3    H267590   6.782   3.015  10.823  0.8228  0.5363  0.5802
15367TIP3   OH267591   0.567   5.213   1.101 -0.5084  0.1466  0.3896
15367TIP3    H167592   0.613   5.243   1.023 -2.1977  0.8177 -0.4037
15367TIP3    H267593   0.601   5.268   1.172 -0.3807  0.9050 -0.2490
15368TIP3   OH267594   0.778   1.828   5.839 -0.6061  0.0724 -0.0469
15368TIP3    H167595   0.732   1.750   5.871  1.1305 -1.8173 -1.8078
15368TIP3    H267596   0.711   1.895   5.833 -2.2245 -1.3141  1.4217
15369TIP3   OH267597   1.750   1.299  16.552  0.4557  0.3927 -0.2789
15369TIP3    H167598   1.657   1.276  16.552  0.0060  2.0686 -0.3980
15369TIP3    H267599   1.793   1.227  16.598 -1.0407  0.0772  0.6984
15370TIP3   OH267600   5.266   4.501   4.341  0.3010  0.0890 -0.1240
15370TIP3    H167601   5.247   4.592   4.363 -2.5960 -1.0683  3.0442
15370TIP3    H267602   5.357   4.488   4.366  0.6083  1.9528 -0.1662
15371TIP3   OH267603   6.474   1.435   1.507  0.3504  0.6568  0.1736
15371TIP3    H167604   6.407   1.433   1.575 -0.6754  1.5086 -0.7604
15371TIP3    H267605   6.532   1.507   1.531  1.0027 -0.1411  1.0359
15372TIP3   OH267606   4.693   3.899   1.075  0.2702  0.6727  0.9365
15372TIP3    H167607   4.717   3.928   0.986  0.6720  0.2936  0.9233
15372TIP3    H267608   4.653   3.813   1.062  0.3616  0.6023  1.1307
15373TIP3   OH267609   1.738   0.899   4.991 -0.5674  0.0220  0.4251
15373TIP3    H167610   1.811   0.908   4.930  0.1209  0.2690  1.2686
15373TIP3    H267611   1.746   0.811   5.026  0.2051  0.5411  1.6021
15374TIP3   OH267612   5.832   1.129  17.251  0.5398 -0.7460 -0.1351
15374TIP3    H167613   5.842   1.034  17.244 -0.7202 -0.7999 -2.0726
15374TIP3    H267614   5.760   1.141  17.313  0.1763 -1.1033 -0.4816
15375TIP3   OH267615   3.529   0.313   3.448  0.0618 -0.4304 -0.2164
15375TIP3    H167616   3.587   0.239   3.429 -2.3356 -2.0781 -1.7053
15375TIP3    H267617   3.504   0.301   3.539  0.2482 -1.0546 -0.2417
15376TIP3   OH267618   0.062   0.593  12.926 -0.3397 -0.0038  0.2814
15376TIP3    H167619  -0.009   0.622  12.983 -1.2575  2.3732 -1.8854
15376TIP3    H267620   0.125   0.665  12.928  0.3535 -0.5728 -0.4737
15377TIP3   OH267621   3.367   0.382   2.609  0.6475  0.3101 -0.1121
15377TIP3    H167622   3.275   0.357   2.619  1.2881 -1.6431  1.6340
15377TIP3    H267623   3.391   0.348   2.523  0.0164 -0.1909 -0.1033
15378TIP3   OH267624   0.758   6.374  17.021  0.0819 -0.1088 -0.3729
15378TIP3    H167625   0.737   6.460  16.984 -0.8858 -0.6182 -1.0541
15378TIP3    H267626   0.750   6.386  17.116  0.3520  0.6510 -0.4420
15379TIP3   OH267627   5.029   3.322   5.278  0.7256  0.7214  0.3245
15379TIP3    H167628   4.940   3.322   5.315  0.4535 -3.1002 -0.0077
15379TIP3    H267629   5.086   3.336   5.354 -0.0349 -2.0251  1.5080
15380TIP3   OH267630   4.643   6.455   1.494 -0.3306 -0.5493  0.0830
15380TIP3    H167631   4.599   6.375   1.524 -1.4447 -1.2554 -3.0291
15380TIP3    H267632   4.666   6.501   1.575 -0.5841 -3.4778  1.9929
15381TIP3   OH267633   0.242   0.066  14.815 -0.2523 -0.2134  0.3892
15381TIP3    H167634   0.271  -0.008  14.868  1.2640  0.5115  0.6303
15381TIP3    H267635   0.271   0.043  14.726  3.1860  1.3928  0.9102
15382TIP3   OH267636   6.097   1.805  11.121 -0.3322  0.3525  0.0255
15382TIP3    H167637   6.115   1.748  11.196  2.2485  1.1797  0.1250
15382TIP3    H267638   6.057   1.747  11.056 -2.5395 -0.4154  1.8994
15383TIP3   OH267639   3.590   0.521  16.547  0.4648 -0.7443  0.1056
15383TIP3    H167640   3.642   0.598  16.526  0.6945 -0.7722  0.5567
15383TIP3    H267641   3.591   0.468  16.467 -0.2773  0.0437 -0.4407
15384TIP3   OH267642   4.823   0.262  15.680  0.2464  0.4848 -0.6581
15384TIP3    H167643   4.769   0.203  15.732  1.0011 -0.8227 -1.3031
15384TIP3    H267644   4.840   0.336  15.737  0.1264 -0.4062  0.5720
15385TIP3   OH267645   0.647   6.464   1.642 -0.0672  0.1358 -0.4022
15385TIP3    H167646   0.575   6.456   1.705 -0.0478 -2.2934 -0.5700
15385TIP3    H267647   0.606   6.499   1.564 -0.8833 -0.2948 -0.1831
15386TIP3   OH267648   5.018   1.716   4.079  0.3323 -0.5264  0.4566
15386TIP3    H167649   5.013   1.765   4.162  0.6368 -0.7184  0.5924
15386TIP3    H267650   4.950   1.649   4.087  1.3767 -1.5431  1.2281
15387TIP3   OH267651   0.363   6.179  14.213 -0.2982 -0.1781  0.3667
15387TIP3    H167652   0.324   6.095  14.187  0.5964 -0.3009 -0.6413
15387TIP3    H267653   0.343   6.238  14.141 -0.9640  0.4990  1.0986
15388TIP3   OH267654   4.600   0.578  16.264  0.2028  0.4076  0.0925
15388TIP3    H167655   4.654   0.650  16.296  0.2769  1.5901 -2.4266
15388TIP3    H267656   4.552   0.616  16.190 -1.6881 -1.4800  0.2642
15389TIP3   OH267657   5.993   4.065  13.843 -0.9915  0.8331  0.1914
15389TIP3    H167658   5.993   3.970  13.834  2.7638  0.7303 -0.5456
15389TIP3    H267659   5.954   4.096  13.761  0.6052 -0.1770 -1.0368
15390TIP3   OH267660   1.158   4.989   5.984  0.1719 -0.4671 -0.0455
15390TIP3    H167661   1.149   5.081   5.962  1.7690 -0.5585 -1.2659
15390TIP3    H267662   1.174   4.945   5.900  0.1372 -1.7581  0.5913
15391TIP3   OH267663   4.032   1.701  16.648  0.1392 -0.5513  0.3507
15391TIP3    H167664   3.999   1.627  16.597 -0.5657 -0.1949  0.2621
15391TIP3    H267665   4.121   1.714  16.617  0.0865 -1.0331 -0.0123
15392TIP3   OH267666   0.460   2.982   6.533  0.2891  0.0924  0.3971
15392TIP3    H167667   0.532   2.922   6.555  0.7861  0.5407  0.0219
15392TIP3    H267668   0.475   3.058   6.589 -0.9045 -0.5109  1.5959
15393TIP3   OH267669   3.510   6.330   0.243  0.0557 -0.1776 -0.3594
15393TIP3    H167670   3.578   6.336   0.310  0.6824 -2.4982 -0.7108
15393TIP3    H267671   3.428   6.333   0.292  0.4457  0.3034  0.2853
15394TIP3   OH267672   5.924   2.947  10.642  0.1090  0.1131 -0.3150
15394TIP3    H167673   5.921   2.908  10.555  1.0290 -0.3785 -0.1411
15394TIP3    H267674   5.965   2.880  10.697 -2.3555 -0.4778  0.9900
15395TIP3   OH267675   5.326   0.675  14.486 -0.1605 -0.4912  0.4569
15395TIP3    H167676   5.376   0.756  14.478 -0.0380 -0.5925  0.1869
15395TIP3    H267677   5.318   0.661  14.581 -0.4701  0.0095  0.5112
15396TIP3   OH267678   4.036   4.881   3.583 -0.0651  0.4250 -0.2174
15396TIP3    H167679   3.979   4.926   3.520 -1.1658 -1.3254 -0.5434
15396TIP3    H267680   4.016   4.921   3.667 -0.3805  1.1140 -0.6096
15397TIP3   OH267681   3.546   0.029  13.691 -0.2826 -0.2988 -0.1148
15397TIP3    H167682   3.510   0.082  13.619  0.4470  0.6360  0.1855
15397TIP3    H267683   3.476   0.027  13.757 -0.1002  0.8325  0.1335
15398TIP3   OH267684   6.390   3.368  15.369 -0.3985  0.1471  0.4723
15398TIP3    H167685   6.454   3.409  15.428 -0.0076 -0.0577  0.1916
15398TIP3    H267686   6.415   3.276  15.366 -0.7803  0.0397  0.4509
15399TIP3   OH267687   6.240   2.602   4.316 -0.1422 -0.5351 -0.6231
15399TIP3    H167688   6.167   2.663   4.329 -0.6649 -1.2885  0.1481
15399TIP3    H267689   6.262   2.571   4.404  0.8340 -0.6420 -0.8881
15400TIP3   OH267690   2.127   2.690  17.312 -0.2300  0.4249 -0.5134
15400TIP3    H167691   2.185   2.625  17.273 -1.9493 -1.3731 -0.1988
15400TIP3    H267692   2.101   2.746  17.238  0.6538  0.2926 -0.9329
15401TIP3   OH267693   5.806   6.151  12.275  0.0183  0.4516 -0.0686
15401TIP3    H167694   5.840   6.088  12.340  0.4246  0.7552  0.0131
15401TIP3    H267695   5.786   6.097  12.198 -3.2738 -0.4650  1.2218
15402TIP3   OH267696   4.809   4.075  15.454 -0.6764 -0.6315 -0.4291
15402TIP3    H167697   4.773   4.103  15.370 -0.6486 -2.0401 -0.9406
15402TIP3    H267698   4.903   4.071  15.440 -0.5995 -0.1586 -0.0928
15403TIP3   OH267699   1.086   0.977  15.965 -0.0387 -0.1369 -0.3000
15403TIP3    H167700   1.109   0.967  16.057 -0.8434 -0.3733 -0.1125
15403TIP3    H267701   1.056   0.889  15.938  1.7395 -0.4887 -1.2482
15404TIP3   OH267702   1.166   2.986   0.330  0.1236 -0.1321  0.4146
15404TIP3    H167703   1.088   2.932   0.318  0.3285 -0.2829 -0.3032
15404TIP3    H267704   1.206   2.953   0.410  0.4053 -1.2611 -0.1740
15405TIP3   OH267705   6.227   5.783   4.476 -0.1259  0.3205 -0.4753
15405TIP3    H167706   6.228   5.793   4.571 -0.3638 -0.6275 -0.3664
15405TIP3    H267707   6.306   5.828   4.447  0.5370 -0.3398  0.2727
15406TIP3   OH267708   4.723   0.316   4.192 -0.4281 -0.4461 -0.0254
15406TIP3    H167709   4.754   0.374   4.261 -0.1965 -1.2271  0.5480
15406TIP3    H267710   4.629   0.306   4.210 -0.4898 -0.1599 -0.1911
15407TIP3   OH267711   4.538   1.283  13.464  0.0480  0.6002  0.3264
15407TIP3    H167712   4.608   1.271  13.399 -0.0353  1.0972  0.1391
15407TIP3    H267713   4.511   1.194  13.487 -0.0436  0.4172 -0.4503
15408TIP3   OH267714   2.484   5.961   1.197 -0.2373  0.1587 -0.0764
15408TIP3    H167715   2.528   5.882   1.228  0.3712  1.0550  1.4361
15408TIP3    H267716   2.554   6.020   1.172 -0.6905 -0.4862 -3.3012
15409TIP3   OH267717   5.139   3.172  16.666 -0.2940 -0.2289 -0.2550
15409TIP3    H167718   5.128   3.262  16.636 -2.1733 -0.0631  0.7609
15409TIP3    H267719   5.233   3.156  16.661 -0.1342  1.0320 -2.4928
15410TIP3   OH267720   1.069   1.708  17.432 -0.0636 -0.5844 -0.3505
15410TIP3    H167721   1.100   1.759  17.358 -1.2067  0.5574 -0.0788
15410TIP3    H267722   0.984   1.673  17.404 -0.6236  0.0611  0.4772
15411TIP3   OH267723   6.463   2.542   0.280 -0.1191  0.2768  0.0585
15411TIP3    H167724   6.511   2.512   0.357  0.8843  0.2009 -0.5746
15411TIP3    H267725   6.376   2.565   0.313 -0.2773 -1.3948  0.9130
15412TIP3   OH267726   0.411   2.585  14.120  0.3061  0.4714 -0.2429
15412TIP3    H167727   0.392   2.650  14.188  0.5103  0.3554 -0.0726
15412TIP3    H267728   0.470   2.631  14.060  1.9088 -0.0864  0.8197
15413TIP3   OH267729   6.264   5.346  16.038 -0.1573  0.0130 -0.0780
15413TIP3    H167730   6.179   5.388  16.034 -0.2229 -0.1004  0.0986
15413TIP3    H267731   6.255   5.280  16.107 -0.5893 -1.4730 -1.4934
15414TIP3   OH267732   6.620   6.207   6.119  0.3160 -0.1733 -0.0109
15414TIP3    H167733   6.709   6.222   6.151  0.0945 -2.3909  1.8786
15414TIP3    H267734   6.610   6.112   6.118 -1.9541  0.0159 -0.4130
15415TIP3   OH267735   3.166   1.873   6.020 -0.6541  0.2415 -0.0233
15415TIP3    H167736   3.183   1.898   6.111  4.3112 -2.6839  0.2353
15415TIP3    H267737   3.222   1.930   5.968  1.5899 -2.1245 -0.4459
15416TIP3   OH267738   1.920   3.164  11.506 -0.0973 -0.0143  0.4119
15416TIP3    H167739   1.864   3.096  11.543  0.7894  0.2543  2.3440
15416TIP3    H267740   2.004   3.121  11.492  0.3988  0.5914  1.4207
15417TIP3   OH267741   1.099   3.260   1.467 -0.8219 -0.8527  0.1679
15417TIP3    H167742   1.032   3.207   1.425 -0.3273 -0.4673 -1.1827
15417TIP3    H267743   1.181   3.233   1.425 -0.2862 -0.5517  1.0024
15418TIP3   OH267744   5.854   5.243   2.063  0.3007 -0.4313 -0.0020
15418TIP3    H167745   5.880   5.331   2.089  0.7360  0.0582 -1.9051
15418TIP3    H267746   5.798   5.212   2.134  0.0982  1.3987  0.6943
15419TIP3   OH267747   0.558   1.838  15.205 -0.2171  0.2718 -0.3271
15419TIP3    H167748   0.585   1.770  15.144 -1.7283 -0.4333 -0.2615
15419TIP3    H267749   0.467   1.816  15.227  0.0025  1.0053  1.4929
15420TIP3   OH267750   2.421   1.502  15.284 -0.1466 -0.0805 -0.4573
15420TIP3    H167751   2.397   1.441  15.354  0.6710  0.1878  0.0722
15420TIP3    H267752   2.394   1.458  15.204 -1.7386 -0.0991  0.0443
15421TIP3   OH267753   1.516   4.471   0.130  0.2763  0.0990 -0.2522
15421TIP3    H167754   1.532   4.377   0.139  0.3950  0.2595  1.4122
15421TIP3    H267755   1.447   4.477   0.063 -1.1135 -1.3110  0.9870
15422TIP3   OH267756   5.642   0.744   3.657 -0.0976 -0.2215  0.1160
15422TIP3    H167757   5.629   0.657   3.621  0.9492 -0.2404 -0.2637
15422TIP3    H267758   5.651   0.730   3.751  2.7122 -0.9139 -0.1566
15423TIP3   OH267759   1.453   0.667  15.980  0.9292 -0.3820 -0.1886
15423TIP3    H167760   1.473   0.718  16.058 -2.1102  0.0883  0.4077
15423TIP3    H267761   1.505   0.587  15.989  1.5790  0.2120  1.6641
15424TIP3   OH267762   3.804   5.886   1.711  0.2327  0.5564 -0.6697
15424TIP3    H167763   3.846   5.913   1.629  0.3723  0.8099 -0.5148
15424TIP3    H267764   3.838   5.947   1.777 -0.9996  1.2870 -0.6921
15425TIP3   OH267765   2.308   6.285  14.064  0.0525 -0.3969 -0.6412
15425TIP3    H167766   2.291   6.216  13.999  0.1284  0.2082 -1.3156
15425TIP3    H267767   2.247   6.355  14.040 -0.1097 -0.2758  0.1159
15426TIP3   OH267768   2.392   3.994  11.412  0.1813  0.1386 -0.3092
15426TIP3    H167769   2.484   3.977  11.428  0.4310  2.6462  1.5061
15426TIP3    H267770   2.389   4.082  11.376 -1.4884 -0.0094 -0.6426
15427TIP3   OH267771   3.756   3.697   5.558  0.1956  0.0409  0.0500
15427TIP3    H167772   3.777   3.737   5.642  0.1729  0.5443 -0.1732
15427TIP3    H267773   3.663   3.676   5.563 -0.2711  1.7723 -0.4956
15428TIP3   OH267774   3.305   3.485  15.201 -0.6561  0.6933 -0.0967
15428TIP3    H167775   3.344   3.460  15.117  0.0668 -0.7889  0.6385
15428TIP3    H267776   3.291   3.579  15.194 -2.4998  0.3341 -2.6305
15429TIP3   OH267777   5.742   1.994   1.432  0.1426  0.5652  0.3145
15429TIP3    H167778   5.670   1.932   1.444  0.1191  0.2719 -1.1476
15429TIP3    H267779   5.706   2.061   1.372  0.3107  1.7684  1.5080
15430TIP3   OH267780   2.681   5.209  13.494 -0.9175  0.2753 -0.5205
15430TIP3    H167781   2.648   5.143  13.433 -0.4328  0.0250 -0.5190
15430TIP3    H267782   2.606   5.266  13.511 -1.1350  0.1705 -1.1149
15431TIP3   OH267783   0.456   1.850  13.109 -0.1935 -0.0439  0.7242
15431TIP3    H167784   0.423   1.924  13.161 -0.8721 -1.1432  1.9116
15431TIP3    H267785   0.489   1.788  13.175 -0.4019 -1.1622 -0.2073
15432TIP3   OH267786   1.939   0.884   0.974  0.1450  0.0136  0.1082
15432TIP3    H167787   2.013   0.944   0.974 -1.1152  1.6524  0.7252
15432TIP3    H267788   1.876   0.925   1.033 -1.9879 -0.3838 -1.7701
15433TIP3   OH267789   5.854   5.492  12.009 -0.0955 -0.5548  0.8520
15433TIP3    H167790   5.762   5.506  11.987 -0.0088  1.0595  1.4343
15433TIP3    H267791   5.879   5.414  11.959 -1.9319 -1.3940  1.1732
15434TIP3   OH267792   5.569   3.867   3.515  0.6455  0.0868 -0.1206
15434TIP3    H167793   5.489   3.838   3.559  0.4624 -1.4313 -1.3862
15434TIP3    H267794   5.634   3.872   3.585 -0.2813  0.2786  0.7452
15435TIP3   OH267795   2.284   2.370  15.265 -0.2205  0.4624  0.3167
15435TIP3    H167796   2.270   2.444  15.323  0.1925  0.4577  0.4212
15435TIP3    H267797   2.199   2.356  15.222 -0.2921  1.0028  0.2853
15436TIP3   OH267798   6.645   6.439  14.233  0.0509 -0.6373 -0.0544
15436TIP3    H167799   6.608   6.489  14.306  0.3943  0.7539 -0.7921
15436TIP3    H267800   6.703   6.376  14.274 -1.7924 -1.7327  1.0347
15437TIP3   OH267801   5.446   1.130   5.478 -0.6770 -0.9371  0.1864
15437TIP3    H167802   5.460   1.145   5.571 -0.1292  2.0109 -0.2547
15437TIP3    H267803   5.501   1.195   5.434 -3.0317 -0.2696 -2.1003
15438TIP3   OH267804   1.665   2.279  12.662 -0.5515  0.1428 -0.2471
15438TIP3    H167805   1.690   2.356  12.610 -0.2801 -0.4931 -1.0807
15438TIP3    H267806   1.741   2.263  12.718 -0.4496  0.2454 -0.3536
15439TIP3   OH267807   1.248   1.134  15.222  0.6136 -0.6477  0.0782
15439TIP3    H167808   1.338   1.150  15.191  0.5324  1.0198  0.5763
15439TIP3    H267809   1.220   1.056  15.174  1.4627  0.2240 -1.9852
15440TIP3   OH267810   1.241   5.461  14.807 -0.2789  0.6141 -0.1275
15440TIP3    H167811   1.307   5.421  14.751  0.3140  1.1392  0.1819
15440TIP3    H267812   1.183   5.508  14.747  1.9056  3.4889 -0.2105
15441TIP3   OH267813   2.213   2.895   3.952 -0.5252  0.2039 -0.1370
15441TIP3    H167814   2.216   2.918   4.045  0.8477  0.0188 -0.1083
15441TIP3    H267815   2.304   2.904   3.923 -0.5098 -2.0159 -0.9122
15442TIP3   OH267816   0.493   1.178  16.736 -0.1934 -0.2704 -0.3249
15442TIP3    H167817   0.466   1.227  16.658  0.0133 -1.9552 -1.5103
15442TIP3    H267818   0.456   1.091  16.724 -0.7170 -0.4146  1.8160
15443TIP3   OH267819   3.762   0.912   2.645  0.5525  0.0351 -0.6015
15443TIP3    H167820   3.702   0.875   2.581  0.1763 -2.6184  1.1288
15443TIP3    H267821   3.847   0.911   2.601  0.0697 -0.3050 -1.5659
15444TIP3   OH267822   1.313   0.299   0.526 -0.2997 -0.5376 -0.1404
15444TIP3    H167823   1.348   0.374   0.478  0.1598  0.1746  1.2814
15444TIP3    H267824   1.347   0.223   0.478  1.0132  0.1468 -0.3376
15445TIP3   OH267825   6.260   3.341   1.595 -0.1050  0.3426  0.7725
15445TIP3    H167826   6.167   3.355   1.609 -0.3551 -0.3327 -0.0802
15445TIP3    H267827   6.266   3.313   1.503  1.0301  1.2600  0.5380
15446TIP3   OH267828   3.359   2.250  13.027 -0.7841 -0.0277 -0.4214
15446TIP3    H167829   3.402   2.216  12.949 -0.3222 -1.1731  0.3084
15446TIP3    H267830   3.399   2.336  13.041 -0.4416 -0.0719 -1.1004
15447TIP3   OH267831   1.063   0.894  11.975  0.4730 -0.7592 -0.7433
15447TIP3    H167832   1.020   0.883  12.060  0.7371  0.7965 -0.3903
15447TIP3    H267833   1.008   0.845  11.914  0.7676 -2.6744  0.4288
15448TIP3   OH267834   3.100   0.727  10.730  0.2037 -0.0123 -0.0775
15448TIP3    H167835   3.180   0.779  10.721 -1.0691  1.6890 -3.0998
15448TIP3    H267836   3.029   0.791  10.729 -1.2975 -1.5969 -0.2348
15449TIP3   OH267837   4.034   3.839  15.639  0.1806  0.2429  1.1290
15449TIP3    H167838   4.128   3.828  15.624 -0.3800 -2.7617 -1.1197
15449TIP3    H267839   4.017   3.799  15.724  0.7689 -0.4464  0.9268
15450TIP3   OH267840   0.586   1.703   5.154  0.2533  0.1825  0.3307
15450TIP3    H167841   0.501   1.714   5.196  0.5231 -2.2443  1.6601
15450TIP3    H267842   0.570   1.642   5.083  0.7105  0.4930 -0.0431
15451TIP3   OH267843   5.438   1.664   0.213  0.2960 -0.6764  0.4625
15451TIP3    H167844   5.361   1.717   0.236 -1.7231 -2.6548 -1.3000
15451TIP3    H267845   5.491   1.721   0.158 -1.0083  0.0405 -0.0929
15452TIP3   OH267846   2.084   0.383  12.148  0.3239 -0.0117 -0.0930
15452TIP3    H167847   2.128   0.298  12.150 -0.9461 -0.6825  1.0180
15452TIP3    H267848   2.068   0.399  12.056  2.0456 -0.1640 -0.4650
15453TIP3   OH267849   5.764   0.237  13.926 -0.0291 -0.3056 -0.4830
15453TIP3    H167850   5.857   0.256  13.926 -0.2449  0.8258 -1.0396
15453TIP3    H267851   5.730   0.278  14.006  0.3244 -2.9145  1.1301
15454TIP3   OH267852   4.290   6.127  11.286 -0.2622  0.1327  0.7577
15454TIP3    H167853   4.286   6.220  11.263 -2.0355  0.1088  0.8385
15454TIP3    H267854   4.281   6.081  11.202  1.8638 -0.0112  0.5587
15455TIP3   OH267855   2.724   4.517  17.020  0.1217 -0.3789  0.3810
15455TIP3    H167856   2.741   4.609  17.039  0.2843 -0.3021 -0.1222
15455TIP3    H267857   2.806   4.472  17.040  0.1218 -0.3778  0.3831
15456TIP3   OH267858   0.444   1.946   3.274 -0.2650 -0.3460  0.2019
15456TIP3    H167859   0.389   1.959   3.352  0.3163 -0.1232  0.5832
15456TIP3    H267860   0.452   1.851   3.266 -1.4310 -0.4151 -0.3821
15457TIP3   OH267861   4.888   5.288  14.305 -0.6632  0.4793 -0.2785
15457TIP3    H167862   4.917   5.299  14.214  1.7479  0.6494  0.4185
15457TIP3    H267863   4.801   5.327  14.308 -0.6372  0.8121 -2.4359
15458TIP3   OH267864   1.643   0.551   3.736 -0.0836  0.2465 -0.2736
15458TIP3    H167865   1.636   0.463   3.699 -1.7419  0.1813  0.1200
15458TIP3    H267866   1.704   0.541   3.809  0.9897 -0.2190 -1.1986
15459TIP3   OH267867   0.171   0.564  16.370  0.3255 -0.2057  0.5597
15459TIP3    H167868   0.077   0.564  16.357  0.1306 -0.7222  1.7933
15459TIP3    H267869   0.195   0.471  16.379  0.9959 -0.0999  0.0130
15460TIP3   OH267870   4.121   4.285   7.039  0.8196 -0.3547  0.0553
15460TIP3    H167871   4.124   4.329   7.124  0.8619 -0.7016  0.2352
15460TIP3    H267872   4.213   4.265   7.020  0.7068 -1.3113  0.4754
15461TIP3   OH267873   1.114   0.262  13.669 -0.0445  0.5697 -0.4414
15461TIP3    H167874   1.119   0.196  13.599 -1.3967  1.2689 -1.2395
15461TIP3    H267875   1.031   0.244  13.712  0.9705 -0.1193  1.3015
15462TIP3   OH267876   5.801   5.123  10.989  0.1740  0.2888 -0.1281
15462TIP3    H167877   5.884   5.153  10.952  0.2588  2.2446  1.4518
15462TIP3    H267878   5.787   5.037  10.950  2.4670  0.2960 -1.1399
15463TIP3   OH267879   6.196   1.066  13.869  0.0647 -0.2816 -0.1766
15463TIP3    H167880   6.201   1.162  13.864  3.2140 -0.3803 -0.5567
15463TIP3    H267881   6.216   1.036  13.780 -1.8886 -1.3450 -0.3179
15464TIP3   OH267882   1.663   5.889   1.534 -0.0458 -0.3317  0.2093
15464TIP3    H167883   1.591   5.861   1.591 -0.8446 -0.2072 -0.7110
15464TIP3    H267884   1.703   5.807   1.504  0.2796 -0.4001  0.8169
15465TIP3   OH267885   1.058   5.421  12.721  0.5190  0.0566 -0.1266
15465TIP3    H167886   1.032   5.343  12.769  0.5769 -0.5394 -1.0490
15465TIP3    H267887   1.118   5.467  12.781  0.0133 -0.2886  0.6554
15466TIP3   OH267888   4.852   4.735   1.865  0.0466  0.0275  0.0149
15466TIP3    H167889   4.837   4.735   1.960  0.6943  2.9002  0.2004
15466TIP3    H267890   4.788   4.797   1.831 -0.1284 -0.9225 -1.4667
15467TIP3   OH267891   4.535   0.098  15.522 -0.1228 -0.4716  0.2720
15467TIP3    H167892   4.622   0.095  15.483 -0.0266 -0.0701  0.4489
15467TIP3    H267893   4.542   0.044  15.601  0.1115 -0.0202  0.5645
15468TIP3   OH267894   0.325   6.586  14.961 -0.1511  0.0614  0.2082
15468TIP3    H167895   0.292   6.504  14.922  0.8564 -0.5185  0.5285
15468TIP3    H267896   0.289   6.587  15.049 -1.1304  0.5715 -0.1843
15469TIP3   OH267897   0.156   5.468   5.136  0.4796  0.0542  0.1704
15469TIP3    H167898   0.165   5.386   5.185 -1.0669 -0.3373 -0.1439
15469TIP3    H267899   0.225   5.464   5.069  1.3001 -0.3365  1.0066
15470TIP3   OH267900   2.866   3.780   4.391  0.1846  0.0138 -0.2326
15470TIP3    H167901   2.804   3.707   4.385  0.6579 -0.4988  0.8407
15470TIP3    H267902   2.937   3.757   4.331  0.9570 -1.0605  1.0527
15471TIP3   OH267903   0.980   2.438  13.676 -0.1680  0.6959 -0.2447
15471TIP3    H167904   1.017   2.357  13.711  1.0810  1.0743 -0.6317
15471TIP3    H267905   1.050   2.476  13.623 -1.4977  0.8882 -1.9540
15472TIP3   OH267906   2.090   1.557   3.879 -0.5566  0.4323 -0.5481
15472TIP3    H167907   2.165   1.502   3.857 -1.1136 -0.1287 -1.0901
15472TIP3    H267908   2.040   1.504   3.941  0.5111  1.6126  1.4458
15473TIP3   OH267909   1.826   2.028   5.999  0.3440 -0.3423 -0.4872
15473TIP3    H167910   1.864   2.010   6.084 -0.6375 -2.8659 -0.4974
15473TIP3    H267911   1.788   1.945   5.971 -1.9801  1.1212 -2.0627
15474TIP3   OH267912   5.411   1.546  13.827 -0.0689 -0.0479 -0.3419
15474TIP3    H167913   5.440   1.461  13.862  1.8422  0.6449 -0.1024
15474TIP3    H267914   5.474   1.566  13.758  0.0959  1.6062  0.2445
15475TIP3   OH267915   3.499   1.040   6.694  0.3439 -0.2607  0.0280
15475TIP3    H167916   3.487   1.110   6.758  0.4630  0.3764 -0.6373
15475TIP3    H267917   3.575   1.067   6.643 -0.2641 -0.3268 -0.9394
15476TIP3   OH267918   2.919   4.036   5.551  0.0048  0.0578 -0.3701
15476TIP3    H167919   2.909   4.094   5.476 -1.2376  1.0815  0.5557
15476TIP3    H267920   2.887   4.086   5.626  0.6176 -1.1636  0.7575
15477TIP3   OH267921   0.592   3.275   1.130 -0.3338 -0.3511 -0.6879
15477TIP3    H167922   0.542   3.226   1.196  1.3537 -1.6000 -0.2627
15477TIP3    H267923   0.674   3.296   1.174 -0.4959  1.7791 -1.3170
15478TIP3   OH267924   3.716   2.028   2.196  0.4142  0.2581 -0.1098
15478TIP3    H167925   3.746   2.118   2.207  0.2866  0.4717 -1.4024
15478TIP3    H267926   3.716   2.014   2.102 -0.6958 -0.7211  0.0176
15479TIP3   OH267927   5.672   3.850   0.712  0.3708 -0.0403  0.1156
15479TIP3    H167928   5.719   3.922   0.670 -1.2513 -0.2914 -2.3176
15479TIP3    H267929   5.740   3.797   0.753  1.9898  0.8016 -1.3470
15480TIP3   OH267930   4.483   0.319   0.102  0.1716  0.1362  0.5978
15480TIP3    H167931   4.534   0.251   0.145 -0.3042 -0.1668  0.6948
15480TIP3    H267932   4.526   0.332   0.017  0.3983 -0.1212  0.6735
15481TIP3   OH267933   0.945   0.228  12.887 -0.0818 -0.2175  0.2848
15481TIP3    H167934   0.926   0.223  12.794 -2.0664 -0.6128  0.6751
15481TIP3    H267935   0.880   0.290  12.922 -1.5721 -2.5169  1.8925
15482TIP3   OH267936   0.656   0.713   4.529  0.5398  0.3782  0.5062
15482TIP3    H167937   0.642   0.663   4.610  1.7952  0.6180  0.9083
15482TIP3    H267938   0.574   0.759   4.514 -0.4955 -1.4071  0.3840
15483TIP3   OH267939   4.586   2.752  13.554  0.6634  0.4460 -0.4875
15483TIP3    H167940   4.571   2.845  13.569  0.6054  0.4626 -0.6448
15483TIP3    H267941   4.509   2.723  13.504 -0.1067 -0.0379  0.9393
15484TIP3   OH267942   2.387   2.671  13.029 -0.2130  0.3610  0.2430
15484TIP3    H167943   2.406   2.758  12.995  0.1867  1.1399  2.3540
15484TIP3    H267944   2.325   2.685  13.100 -0.9307 -1.2069 -0.0139
15485TIP3   OH267945   1.428   0.133  11.468  0.1129  0.4885 -0.3557
15485TIP3    H167946   1.412   0.184  11.388 -1.0109  1.0137  0.1792
15485TIP3    H267947   1.364   0.167  11.531  0.2830 -0.6344  0.4474
15486TIP3   OH267948   5.078   0.248  11.853 -0.0599 -0.6398  0.2120
15486TIP3    H167949   5.038   0.333  11.872  0.2285 -0.0789 -1.4461
15486TIP3    H267950   5.028   0.185  11.905 -1.4821  0.3382  0.0814
15487TIP3   OH267951   1.417   6.538   2.493 -0.8966  0.2808 -0.5475
15487TIP3    H167952   1.335   6.562   2.535  0.2201  0.1529  1.9306
15487TIP3    H267953   1.393   6.512   2.404 -4.2275 -3.8965  1.2382
15488TIP3   OH267954   4.750   6.521   0.329 -0.0695 -0.1381  0.0250
15488TIP3    H167955   4.768   6.549   0.419 -2.5286  3.8271 -0.4849
15488TIP3    H267956   4.813   6.568   0.276 -1.4990  1.2297 -0.5516
15489TIP3   OH267957   2.227   2.866  15.674  0.0991 -0.6427 -0.3249
15489TIP3    H167958   2.244   2.937  15.735 -0.4581  0.3265 -1.2601
15489TIP3    H267959   2.308   2.814  15.676  0.8270  0.4481 -0.1809
15490TIP3   OH267960   6.184   6.543  13.011  0.4273 -0.1081  0.0457
15490TIP3    H167961   6.143   6.606  12.952 -0.8814 -0.3201  0.6812
15490TIP3    H267962   6.267   6.522  12.970 -0.4573 -0.3026 -1.7637
15491TIP3   OH267963   2.303   4.510   2.904  0.0275  0.6903  0.2600
15491TIP3    H167964   2.379   4.541   2.855  0.2176  0.3482  0.3309
15491TIP3    H267965   2.340   4.457   2.974 -0.2083  1.6899  1.1690
15492TIP3   OH267966   4.849   5.510  15.835  0.0599  0.2694 -0.2808
15492TIP3    H167967   4.776   5.477  15.888 -0.3250 -2.5016 -2.2760
15492TIP3    H267968   4.807   5.551  15.760  0.6103  1.6430  0.1300
15493TIP3   OH267969   3.027   5.189  11.368  0.9704 -0.1292 -0.1529
15493TIP3    H167970   3.019   5.271  11.320  0.1763 -0.5285 -0.7471
15493TIP3    H267971   2.937   5.168  11.395  1.4002  0.0939  1.5605
15494TIP3   OH267972   1.955   4.742  13.889 -0.4947 -0.3317 -0.4625
15494TIP3    H167973   2.042   4.713  13.918 -0.4357  1.1427  0.9614
15494TIP3    H267974   1.958   4.732  13.794  1.4050  0.0226 -0.4954
15495TIP3   OH267975   1.028   2.197  11.062 -0.1588  0.4645 -0.0986
15495TIP3    H167976   0.938   2.225  11.050 -0.1946  0.4728  0.1793
15495TIP3    H267977   1.035   2.179  11.156 -0.8781 -3.0344 -0.5879
15496TIP3   OH267978   0.519   1.632  12.288  0.3559  0.0548  0.1464
15496TIP3    H167979   0.461   1.597  12.220 -0.8180  1.5067  0.3540
15496TIP3    H267980   0.471   1.705  12.325  2.6805  1.8975 -0.2387
15497TIP3   OH267981   4.794   4.546   3.187  0.1686  0.6230  0.2440
15497TIP3    H167982   4.781   4.610   3.258 -2.9591  1.1482 -0.6570
15497TIP3    H267983   4.724   4.482   3.200  1.9670 -1.5369 -0.1178
15498TIP3   OH267984   4.784   1.821  16.043  0.0959 -0.0894  0.1205
15498TIP3    H167985   4.762   1.799  15.952 -1.2595  1.6872 -0.0468
15498TIP3    H267986   4.836   1.901  16.035  0.2821 -0.1316  0.9037
15499TIP3   OH267987   4.644   5.713   2.957 -0.4444  0.0317 -0.3327
15499TIP3    H167988   4.721   5.752   2.916  0.9231 -0.3000  1.7483
15499TIP3    H267989   4.584   5.695   2.884  1.3221  0.5420 -1.9979
15500TIP3   OH267990   2.674   0.841  15.661  0.5831  0.2839 -0.6966
15500TIP3    H167991   2.715   0.918  15.620  2.0037  0.0570  0.2272
15500TIP3    H267992   2.716   0.835  15.747 -0.4632 -0.7682 -0.2441
15501TIP3   OH267993   4.405   3.739   5.582 -0.1337  0.4974  0.6060
15501TIP3    H167994   4.465   3.805   5.547  2.1860 -2.5296 -1.6530
15501TIP3    H267995   4.353   3.711   5.507  1.3429 -2.5169  0.5647
15502TIP3   OH267996   0.567   3.315   0.565  0.1108  0.6811  0.5777
15502TIP3    H167997   0.662   3.315   0.573  0.0343 -0.0745  1.5176
15502TIP3    H267998   0.543   3.408   0.567  0.9408  1.0017 -1.4134
15503TIP3   OH267999   5.525   2.040  12.709 -0.1717 -0.2553 -0.0691
15503TIP3    H168000   5.445   2.076  12.669 -0.0127 -1.2972 -1.4004
15503TIP3    H268001   5.552   1.970  12.649  1.6091 -0.0868  0.4895
15504TIP3   OH268002   2.738   4.459  12.692  0.2729  0.0813  0.1736
15504TIP3    H168003   2.774   4.548  12.688 -0.3771  0.3884  0.7863
15504TIP3    H268004   2.645   4.473  12.713 -0.3272 -0.6513 -1.8176
15505TIP3   OH268005   0.050   1.858  14.130 -0.1215 -0.3366  0.2842
15505TIP3    H168006  -0.010   1.932  14.118 -1.0534 -0.8145  1.6743
15505TIP3    H268007   0.018   1.791  14.070  0.7237  0.3542 -0.9786
15506TIP3   OH268008   1.150   0.137  16.782 -0.3213 -0.0993  0.0927
15506TIP3    H168009   1.156   0.198  16.856 -0.0038  0.5934 -0.4918
15506TIP3    H268010   1.175   0.053  16.819  1.6995  0.5695  0.3840
15507TIP3   OH268011   1.010   2.736   5.017 -0.1450 -0.2784  1.0360
15507TIP3    H168012   1.019   2.706   5.107 -0.9745 -1.3102  0.7990
15507TIP3    H268013   1.074   2.807   5.008 -0.9490  0.7307  2.8075
15508TIP3   OH268014   5.584   3.566   4.767 -0.1050  0.1228  0.2388
15508TIP3    H168015   5.674   3.541   4.745 -0.6310 -0.7747 -1.0230
15508TIP3    H268016   5.552   3.494   4.820 -0.1694  0.3026  0.4419
15509TIP3   OH268017   1.702   5.404  16.758 -0.3641  0.3613  0.1795
15509TIP3    H168018   1.661   5.383  16.674 -2.5426 -1.6187  1.6077
15509TIP3    H268019   1.629   5.433  16.813  0.0927 -2.6388  2.6348
15510TIP3   OH268020   4.501   2.663   5.778 -0.4800  0.2713  0.1938
15510TIP3    H168021   4.459   2.744   5.807 -2.6254 -0.4454 -0.6895
15510TIP3    H268022   4.434   2.595   5.792  1.1379 -1.3176  0.6058
15511TIP3   OH268023   2.127   4.884  11.668 -0.3010  0.3948  0.0457
15511TIP3    H168024   2.074   4.813  11.632 -0.1173  0.8207 -1.1211
15511TIP3    H268025   2.080   4.964  11.644  1.2568  0.8448 -1.8233
15512TIP3   OH268026   0.762   2.516   0.586  0.1837 -0.4283  0.4209
15512TIP3    H168027   0.754   2.435   0.534 -0.8533  1.1478 -2.0660
15512TIP3    H268028   0.856   2.535   0.585  0.2283 -0.5887 -0.7334
15513TIP3   OH268029   2.127   5.162   1.403 -0.0566  0.6595 -0.0026
15513TIP3    H168030   2.059   5.106   1.441  0.0053  1.4738  1.4063
15513TIP3    H268031   2.081   5.214   1.338 -0.4430  0.0711 -0.2066
15514TIP3   OH268032   1.386   4.940   3.393 -0.7807  0.1213  0.1943
15514TIP3    H168033   1.345   4.862   3.428 -1.6197  0.1816 -0.6164
15514TIP3    H268034   1.471   4.911   3.361 -0.1734 -0.0165  1.8347
15515TIP3   OH268035   5.159   5.485  14.949 -0.3457  0.0360 -0.0126
15515TIP3    H168036   5.204   5.555  14.902  0.4198 -0.2625  0.2635
15515TIP3    H268037   5.069   5.489  14.917 -0.2049  0.8522 -0.3335
15516TIP3   OH268038   6.457   2.826  11.805 -0.9397  0.0341  0.2274
15516TIP3    H168039   6.545   2.788  11.803 -0.2377  1.5859  0.2607
15516TIP3    H268040   6.398   2.750  11.809  0.3651 -1.0496 -0.2917
15517TIP3   OH268041   2.822   1.521   2.041 -0.6372 -0.0347 -0.3518
15517TIP3    H168042   2.732   1.546   2.062 -0.9215 -0.6907 -0.7425
15517TIP3    H268043   2.858   1.489   2.124 -0.5079  0.9260 -0.0196
15518TIP3   OH268044   1.482   5.954   3.912  0.0280  0.6597 -0.2526
15518TIP3    H168045   1.440   5.884   3.962  1.7453 -0.8822 -0.8407
15518TIP3    H268046   1.572   5.954   3.944  0.4201  1.6081 -1.3200
15519TIP3   OH268047   6.042   6.058   3.358 -0.2869 -0.1283 -0.4505
15519TIP3    H168048   6.096   5.983   3.381 -1.4881 -0.9053 -0.0655
15519TIP3    H268049   6.105   6.127   3.337  0.8522 -1.3034 -1.0695
15520TIP3   OH268050   2.869   1.060   3.062  0.6869 -0.0755  0.2702
15520TIP3    H168051   2.964   1.068   3.054  1.1497 -1.4243  2.9801
15520TIP3    H268052   2.856   0.968   3.085 -1.2720  0.1135  0.0131
15521TIP3   OH268053   0.411   4.988   0.075  0.4649  0.3215 -0.4276
15521TIP3    H168054   0.388   4.978   0.167  0.7888  1.4678 -0.2075
15521TIP3    H268055   0.507   4.983   0.073  0.4293 -0.3061 -0.7854
15522TIP3   OH268056   2.026   6.350  12.818 -0.0387 -0.0554 -0.2162
15522TIP3    H168057   2.002   6.383  12.732  0.8709 -1.4120 -1.0394
15522TIP3    H268058   2.092   6.283  12.800 -0.6192 -1.1510  1.4463
15523TIP3   OH268059   6.237   2.432   0.518  0.1128 -0.1832 -0.5818
15523TIP3    H168060   6.240   2.527   0.530  0.0341 -0.3392  0.7849
15523TIP3    H268061   6.186   2.400   0.592  1.2735 -1.4135 -0.2776
15524TIP3   OH268062   5.344   2.400   1.999 -0.0067  0.6961  0.2894
15524TIP3    H168063   5.320   2.404   1.906  1.5178  0.7266 -0.1358
15524TIP3    H268064   5.354   2.307   2.017  0.8740  0.7351  0.0722
15525TIP3   OH268065   5.944   2.479   4.585  0.3142 -0.5959 -0.2242
15525TIP3    H168066   6.014   2.542   4.599  0.0672  0.1614 -2.1140
15525TIP3    H268067   5.865   2.532   4.574 -0.0452 -1.2595 -0.9603
15526TIP3   OH268068   4.246   3.069  12.607 -0.3326 -0.1461  0.0563
15526TIP3    H168069   4.324   3.086  12.659 -0.8406 -0.3158  0.8952
15526TIP3    H268070   4.274   3.082  12.516  0.8685 -0.9997  0.2858
15527TIP3   OH268071   6.664   5.049   3.864 -0.0681  0.1461 -0.0166
15527TIP3    H168072   6.732   5.110   3.835 -0.5154  0.7613  0.1883
15527TIP3    H268073   6.689   5.027   3.954 -0.2996  0.6292  0.1745
15528TIP3   OH268074   5.254   0.308  13.515  0.0035  0.2451 -0.1770
15528TIP3    H168075   5.252   0.218  13.548  0.7440  0.4780  0.5473
15528TIP3    H268076   5.342   0.339  13.537  0.2303  0.7066 -1.6332
15529TIP3   OH268077   4.629   2.065   4.874 -0.0966  0.0749  0.2056
15529TIP3    H168078   4.551   2.112   4.904  1.0126  0.4278  2.8422
15529TIP3    H268079   4.652   2.007   4.947  1.2328 -1.1763 -1.1336
15530TIP3   OH268080   2.308   1.904  14.985  0.4389  0.2473  0.1116
15530TIP3    H168081   2.322   1.900  15.079  0.8484  1.2242  0.1092
15530TIP3    H268082   2.391   1.874  14.947 -0.2609 -1.7066  0.0286
15531TIP3   OH268083   5.878   3.449   5.244 -0.2293  0.1237  0.3433
15531TIP3    H168084   5.828   3.375   5.210  0.0365 -0.0678  0.3716
15531TIP3    H268085   5.918   3.417   5.325  0.2752  0.1447  0.1085
15532TIP3   OH268086   2.870   1.990   5.096 -0.8447 -0.0379  0.0736
15532TIP3    H168087   2.836   1.949   5.017  0.2488 -0.5058 -0.1647
15532TIP3    H268088   2.854   2.084   5.083 -1.8232 -0.2202 -0.1229
15533TIP3   OH268089   0.594   3.965   0.724  0.7778  0.2074 -0.1548
15533TIP3    H168090   0.528   4.021   0.683 -0.0366 -0.1799  0.5850
15533TIP3    H268091   0.561   3.950   0.813  2.4149  0.8829  0.5959
15534TIP3   OH268092   0.615   3.135  13.273 -0.9318  0.1057  0.1582
15534TIP3    H168093   0.625   3.110  13.364 -2.0680 -0.3829  0.1640
15534TIP3    H268094   0.705   3.143  13.240 -0.4945 -2.1188  0.6515
15535TIP3   OH268095   2.589   1.750   0.105 -0.2407 -0.1071 -0.0103
15535TIP3    H168096   2.544   1.810   0.165 -0.5033  0.4233 -0.7275
15535TIP3    H268097   2.650   1.805   0.057 -0.4676 -0.4119 -0.6649
15536TIP3   OH268098   2.769   6.526   3.314 -0.0533  0.0267  0.0298
15536TIP3    H168099   2.862   6.512   3.301  0.1368  0.0868  1.1801
15536TIP3    H268100   2.728   6.444   3.287  0.3005  0.0908 -0.7217
15537TIP3   OH268101   0.162   1.143  12.676 -0.0844  0.1606  0.1133
15537TIP3    H168102   0.177   1.204  12.749  3.4439 -1.3344  0.8550
15537TIP3    H268103   0.181   1.195  12.598 -0.2414  0.8045  0.4873
15538TIP3   OH268104   0.748   5.296   5.919 -0.1477 -0.6864  0.1146
15538TIP3    H168105   0.663   5.265   5.888 -0.8397  0.1811  1.0579
15538TIP3    H268106   0.777   5.229   5.981 -0.3749 -0.7476  0.1555
15539TIP3   OH268107   6.222   6.575   0.751  0.1667  0.0387  0.0845
15539TIP3    H168108   6.146   6.520   0.733  0.2066  0.0107  0.0020
15539TIP3    H268109   6.191   6.637   0.817 -0.1141  0.4268 -0.3985
15540TIP3   OH268110   2.642   4.155  13.929 -0.6062 -0.4486 -0.0227
15540TIP3    H168111   2.562   4.120  13.968 -0.2037 -1.5130 -0.1304
15540TIP3    H268112   2.709   4.145  13.997 -0.1610 -1.2558 -0.5629
15541TIP3   OH268113   2.330   3.111  14.342  0.5390  0.7828  0.0716
15541TIP3    H168114   2.305   3.091  14.432 -0.9598  1.4444 -0.1521
15541TIP3    H268115   2.287   3.043  14.289 -0.4314  1.6343 -0.2831
15542TIP3   OH268116   4.735   2.159   2.146 -0.1728 -0.4282  0.1067
15542TIP3    H168117   4.708   2.070   2.168 -0.5990 -0.4730 -0.5521
15542TIP3    H268118   4.785   2.189   2.222 -1.6085 -0.5494  1.1392
15543TIP3   OH268119   5.067   0.942   3.693  0.1733  0.2650 -0.1695
15543TIP3    H168120   5.162   0.941   3.704  0.2489  1.1899 -0.6889
15543TIP3    H268121   5.052   0.897   3.610  0.0292 -1.2364  0.6286
15544TIP3   OH268122   3.503   4.519  15.543 -0.5964 -0.0744 -0.2987
15544TIP3    H168123   3.461   4.551  15.463  0.5745  1.2556 -0.4130
15544TIP3    H268124   3.582   4.474  15.512 -1.4261 -1.8240 -0.0282
15545TIP3   OH268125   4.114   0.035  11.826 -0.0037  0.2874 -0.9812
15545TIP3    H168126   4.048   0.037  11.757 -0.6920 -2.4962 -0.5032
15545TIP3    H268127   4.154  -0.052  11.819  1.2644  0.6588  0.9037
15546TIP3   OH268128   3.808   5.299   5.551  0.2867 -0.1824  0.3659
15546TIP3    H168129   3.878   5.253   5.596  1.3450  1.2573  0.2483
15546TIP3    H268130   3.847   5.329   5.469  0.3966  2.8148  1.3762
15547TIP3   OH268131   5.398   5.680  17.668 -0.6289 -0.1091  0.1952
15547TIP3    H168132   5.302   5.680  17.665 -0.6879 -0.7931  1.2945
15547TIP3    H268133   5.419   5.647  17.756  0.6126 -0.1532 -0.0979
15548TIP3   OH268134   2.241   4.474   2.075  0.2517 -0.0249  0.3190
15548TIP3    H168135   2.171   4.477   2.011 -1.2358 -0.8680  1.8413
15548TIP3    H268136   2.307   4.416   2.036 -0.1832  0.2381 -0.8333
15549TIP3   OH268137   1.585   0.850  15.603  0.0875 -1.2586 -0.0384
15549TIP3    H168138   1.559   0.923  15.547 -0.4083 -2.5319 -1.5581
15549TIP3    H268139   1.555   0.772  15.556  0.9782 -2.4714  1.3096
15550TIP3   OH268140   2.788   4.991   5.747 -0.2081 -0.2469 -0.4276
15550TIP3    H168141   2.760   4.906   5.713 -1.4302  0.2643 -0.7729
15550TIP3    H268142   2.884   4.988   5.743 -0.2007 -1.8240  0.1556
15551TIP3   OH268143   5.608   6.354  12.393 -0.0186 -0.1127 -0.1385
15551TIP3    H168144   5.639   6.419  12.330 -0.9712 -2.1422 -2.9214
15551TIP3    H268145   5.676   6.287  12.394 -1.3053 -1.5085 -1.3620
15552TIP3   OH268146   3.019   2.923  14.761  0.2294 -0.0428 -0.0351
15552TIP3    H168147   3.035   2.831  14.781  0.5964 -0.2999 -1.3901
15552TIP3    H268148   2.930   2.924  14.726  0.4720 -0.0097 -0.6715
15553TIP3   OH268149   4.184   4.665   0.940 -0.4318 -0.0218  0.8223
15553TIP3    H168150   4.156   4.648   1.030  0.1252 -1.4847  0.7553
15553TIP3    H268151   4.214   4.756   0.941 -1.1894  0.2389  1.9131
15554TIP3   OH268152   4.721   2.403   4.984  0.0039 -0.1764 -0.3324
15554TIP3    H168153   4.736   2.456   5.062 -1.1239  2.2893 -1.6514
15554TIP3    H268154   4.749   2.460   4.911 -2.7058 -0.7434 -1.9432
15555TIP3   OH268155   3.442   2.195  13.564  0.3208 -0.0127 -0.0545
15555TIP3    H168156   3.513   2.246  13.524  0.5077 -0.3371 -0.1374
15555TIP3    H268157   3.388   2.167  13.490  0.0229  0.3525  0.0204
15556TIP3   OH268158   6.562   4.419   5.776  0.6326  0.3774  0.5531
15556TIP3    H168159   6.608   4.498   5.803 -0.6234  0.4079  2.8448
15556TIP3    H268160   6.486   4.452   5.727  0.4335  0.5733  0.9881
15557TIP3   OH268161   4.085   3.594  15.390 -0.0890 -0.1251 -0.0938
15557TIP3    H168162   4.049   3.539  15.321 -0.0244 -0.4894  0.1602
15557TIP3    H268163   4.035   3.570  15.468  0.3709 -0.2779  0.1530
15558TIP3   OH268164   2.434   2.778  11.169  0.8466 -0.0407 -0.0977
15558TIP3    H168165   2.523   2.782  11.205 -0.4797 -0.0351  3.6905
15558TIP3    H268166   2.383   2.836  11.226 -1.5986  0.0032 -2.1675
15559TIP3   OH268167   0.729   2.333  14.168  0.2175  0.2458 -0.1302
15559TIP3    H168168   0.756   2.252  14.126  0.6983  1.0599 -1.4737
15559TIP3    H268169   0.635   2.339  14.152 -0.2353 -1.0085  1.7499
15560TIP3   OH268170   0.740   3.903   0.378  0.3215 -0.8996  0.2484
15560TIP3    H168171   0.732   3.812   0.409 -1.9341 -2.1350 -3.3314
15560TIP3    H268172   0.818   3.902   0.323 -0.2356 -0.9496 -0.5494
15561TIP3   OH268173   5.595   3.567  14.147  0.9760  0.4078 -0.2474
15561TIP3    H168174   5.505   3.599  14.132  1.5951  2.0908 -0.5929
15561TIP3    H268175   5.614   3.591  14.237  0.7152 -0.9467  0.1890
15562TIP3   OH268176   6.336   4.273   5.793 -0.9231 -0.6099 -0.1548
15562TIP3    H168177   6.290   4.258   5.876 -1.9361  2.0370 -0.1231
15562TIP3    H268178   6.421   4.307   5.819 -2.0898  2.5551 -0.0330
15563TIP3   OH268179   1.535   2.325   1.841  0.1255  0.3067 -0.4442
15563TIP3    H168180   1.451   2.344   1.801 -0.0662 -0.8284 -0.6075
15563TIP3    H268181   1.594   2.307   1.768  0.0971 -0.5039 -0.2743
15564TIP3   OH268182   4.340   0.299  12.659 -0.3664  0.0629  0.1859
15564TIP3    H168183   4.287   0.273  12.734  3.1595  0.1266  2.9994
15564TIP3    H268184   4.308   0.245  12.587 -3.4793 -0.5572  1.8752
15565TIP3   OH268185   5.374   0.275   4.828  0.3414 -0.6568 -0.0218
15565TIP3    H168186   5.346   0.355   4.873 -0.9086 -1.2765  0.3681
15565TIP3    H268187   5.353   0.291   4.736  0.5444 -0.3439 -0.0126
15566TIP3   OH268188   0.697   3.973   6.415  0.4491 -0.3998  0.6663
15566TIP3    H168189   0.658   3.903   6.468  0.4955 -0.5000  0.5691
15566TIP3    H268190   0.633   4.044   6.419  0.3919 -0.4550  0.7489
15567TIP3   OH268191   1.840   0.424   2.220  0.4351 -0.1868  0.1048
15567TIP3    H168192   1.919   0.374   2.200  0.3191 -0.1910 -0.3513
15567TIP3    H268193   1.777   0.396   2.153  0.7057  1.4030 -0.8738
15568TIP3   OH268194   2.321   5.125   4.405  0.0355  0.2325 -0.1926
15568TIP3    H168195   2.235   5.118   4.366 -0.1977 -0.9944  0.4816
15568TIP3    H268196   2.364   5.042   4.386  0.7302  0.4684  0.2613
15569TIP3   OH268197   3.299   5.924   3.931  0.2509  0.5357  0.2138
15569TIP3    H168198   3.303   5.912   3.836 -1.1740  0.6249  0.1273
15569TIP3    H268199   3.267   5.841   3.965 -0.7173  1.0037  0.4716
15570TIP3   OH268200   1.626   5.202  14.250  0.7059 -0.3638 -0.7547
15570TIP3    H168201   1.568   5.207  14.326 -0.7252 -0.8426 -1.7726
15570TIP3    H268202   1.683   5.128  14.269  0.5237 -0.3314 -0.0462
15571TIP3   OH268203   2.834   0.906  14.472 -0.0661 -0.6382 -0.3672
15571TIP3    H168204   2.859   0.991  14.508 -0.5083  0.1257 -1.7924
15571TIP3    H268205   2.819   0.850  14.549  2.4955 -0.1316  0.5986
15572TIP3   OH268206   1.377   4.739   6.107  0.1761  0.5006 -0.3394
15572TIP3    H168207   1.415   4.688   6.035 -1.5592  0.3936 -1.2245
15572TIP3    H268208   1.399   4.688   6.185  0.4164 -0.4285 -0.9871
15573TIP3   OH268209   6.059   3.682   2.994  0.5196  0.5340 -0.0081
15573TIP3    H168210   5.997   3.745   2.958  0.0444 -0.7944 -1.6326
15573TIP3    H268211   6.006   3.605   3.016  1.5175 -0.6733 -1.5477
15574TIP3   OH268212   2.859   2.537  15.508  0.1986  0.1458  0.3702
15574TIP3    H168213   2.783   2.562  15.560  0.8309  0.3390  1.2054
15574TIP3    H268214   2.828   2.542  15.417 -1.0240 -0.5859  0.7208
15575TIP3   OH268215   5.865   1.570  15.627  0.6782  0.1841  0.0539
15575TIP3    H168216   5.826   1.508  15.566  1.5248  0.4890 -0.8132
15575TIP3    H268217   5.838   1.656  15.594  1.4343  0.3639 -0.1117
15576TIP3   OH268218   2.784   3.574  11.078  0.4587  0.0303 -0.5221
15576TIP3    H168219   2.752   3.654  11.037  0.7555  1.2810  1.5674
15576TIP3    H268220   2.724   3.506  11.047  1.4592  0.5580 -4.0751
15577TIP3   OH268221   5.191   0.377   2.814  0.2478 -0.0932 -0.3910
15577TIP3    H168222   5.196   0.290   2.854  0.6271 -0.6754 -1.6624
15577TIP3    H268223   5.133   0.365   2.738 -0.5719  1.0159  0.0331
15578TIP3   OH268224   4.242   1.045  12.688 -0.1741  1.0594 -0.4398
15578TIP3    H168225   4.336   1.064  12.684 -0.0526  0.6544  0.2055
15578TIP3    H268226   4.237   0.963  12.738 -0.7545  0.0947 -2.0042
15579TIP3   OH268227   5.907   5.828  12.793 -0.2141  0.1037  0.0118
15579TIP3    H168228   5.989   5.878  12.788  0.2793 -0.7205 -0.4442
15579TIP3    H268229   5.870   5.851  12.878  0.9545 -0.1876  0.6270
15580TIP3   OH268230   3.292   2.921   4.815 -0.1114 -0.1035  0.7551
15580TIP3    H168231   3.216   2.912   4.758 -0.9182 -2.7413  2.0970
15580TIP3    H268232   3.364   2.880   4.766  0.2295  1.3011  0.0055
15581TIP3   OH268233   6.408   3.295  16.483 -0.1061  0.3225  0.1144
15581TIP3    H168234   6.380   3.361  16.546 -2.4697  0.6969 -1.1960
15581TIP3    H268235   6.405   3.341  16.398 -0.4323 -1.0802 -0.6601
15582TIP3   OH268236   1.720   2.693  14.281 -0.4841  0.0784  0.3433
15582TIP3    H168237   1.643   2.737  14.316  1.2116  0.5345  3.9767
15582TIP3    H268238   1.727   2.612  14.333  1.1654 -0.2182 -0.2775
15583TIP3   OH268239   6.435   0.947  13.977  0.0442 -0.4639  0.0075
15583TIP3    H168240   6.399   0.983  13.895  0.2628  0.1852  0.1863
15583TIP3    H268241   6.382   0.870  13.995  1.3131 -1.8510 -1.8564
15584TIP3   OH268242   6.428   5.012  13.215  0.8308 -0.3436  0.2517
15584TIP3    H168243   6.485   4.954  13.265 -2.7771 -2.1572  2.7335
15584TIP3    H268244   6.367   4.953  13.170 -0.2457  1.4632 -0.7965
15585TIP3   OH268245   0.995   3.721   0.977 -0.0635  0.6069 -0.2063
15585TIP3    H168246   1.009   3.635   1.017 -0.1637  0.5012 -0.3983
15585TIP3    H268247   0.926   3.707   0.912 -1.1227  1.1459  0.7686
15586TIP3   OH268248   2.306   0.392  13.094  0.6067 -0.2528  0.2150
15586TIP3    H168249   2.370   0.463  13.102  2.2551 -1.4884 -1.2188
15586TIP3    H268250   2.221   0.435  13.107  1.3768  2.3717 -2.2653
15587TIP3   OH268251   1.479   5.103   5.480  0.2934  0.3512 -0.3184
15587TIP3    H168252   1.398   5.144   5.511 -0.2185 -0.2006 -0.9170
15587TIP3    H268253   1.466   5.093   5.386 -0.9205 -4.0370  0.1242
15588TIP3   OH268254   2.267   6.615  17.183  0.2874  0.1348 -0.2020
15588TIP3    H168255   2.270   6.572  17.098 -1.4438  1.3655 -0.9320
15588TIP3    H268256   2.175   6.617  17.207  0.5693  1.2180  0.9514
15589TIP3   OH268257   3.132   6.316  12.925  1.0516 -0.0309 -0.5221
15589TIP3    H168258   3.037   6.325  12.925  0.7029 -2.7708 -1.4833
15589TIP3    H268259   3.155   6.304  12.833  2.1799 -0.4409 -0.2013
15590TIP3   OH268260   5.675   3.046   1.359 -0.3250 -0.0391 -0.2934
15590TIP3    H168261   5.663   3.140   1.347 -1.0427  0.1026  1.3176
15590TIP3    H268262   5.620   3.006   1.292  0.9814  0.6425 -1.8657
15591TIP3   OH268263   5.001   1.385  15.505 -0.4345 -0.5725  0.0988
15591TIP3    H168264   4.918   1.430  15.495  0.3326  0.9328  0.3142
15591TIP3    H268265   5.067   1.454  15.506  0.5673 -1.3284  3.6302
15592TIP3   OH268266   2.702   2.197  12.873  0.1076 -0.6962  0.0455
15592TIP3    H168267   2.792   2.223  12.892 -0.2886  0.2221  0.7702
15592TIP3    H268268   2.689   2.222  12.781  0.0301  0.9597  0.4622
15593TIP3   OH268269   0.112   2.145   6.233 -0.0915 -0.3679  0.7498
15593TIP3    H168270   0.077   2.138   6.322 -0.0820 -0.9347  0.7131
15593TIP3    H268271   0.035   2.165   6.179  0.2628  2.6170  1.1957
15594TIP3   OH268272   6.587   0.980  15.384  0.5089  0.0557 -0.2045
15594TIP3    H168273   6.555   0.892  15.405  1.7985 -0.2494  0.5956
15594TIP3    H268274   6.651   0.999  15.452  0.3877  1.5533 -0.4834
15595TIP3   OH268275   4.315   3.263   3.242 -0.0429  0.1967  0.0241
15595TIP3    H168276   4.245   3.299   3.187 -1.5531 -0.9593  1.1210
15595TIP3    H268277   4.307   3.310   3.325  0.7096  0.2794  0.0566
15596TIP3   OH268278   1.642   0.651   3.506  0.5958  0.6189 -0.3662
15596TIP3    H168279   1.650   0.637   3.601  0.5828  1.1800 -0.2771
15596TIP3    H268280   1.567   0.598   3.480 -1.5974  3.0729  0.5430
15597TIP3   OH268281   6.608   4.748  12.867 -0.0550  0.4101  0.2922
15597TIP3    H168282   6.525   4.701  12.856  1.3003 -1.7838 -1.6155
15597TIP3    H268283   6.645   4.714  12.948  0.7229 -1.7419 -0.8611
15598TIP3   OH268284   0.405   1.798  13.807 -0.2730  0.0421  0.1891
15598TIP3    H168285   0.465   1.803  13.733 -0.2372  0.4670  0.2417
15598TIP3    H268286   0.449   1.743  13.871  0.5392  1.1833  0.6513
15599TIP3   OH268287   4.268   3.976   7.096 -0.2799  0.2550 -0.6553
15599TIP3    H168288   4.314   4.057   7.074  1.3445  0.4906  2.8358
15599TIP3    H268289   4.188   4.005   7.139 -1.4814 -0.1160 -2.5450
15600TIP3   OH268290   3.497   3.290   0.116  0.1195 -0.2660 -0.0309
15600TIP3    H168291   3.439   3.243   0.176 -0.8365  0.2325 -0.5448
15600TIP3    H268292   3.582   3.291   0.160 -0.0913 -1.5592  0.4594
15601TIP3   OH268293   3.363   5.233   0.752 -0.0157 -0.3679 -0.1547
15601TIP3    H168294   3.359   5.328   0.754  0.0717 -0.3760  0.5963
15601TIP3    H268295   3.321   5.205   0.833 -1.8736 -1.0358 -1.2603
15602TIP3   OH268296   0.877   4.046  12.002 -0.7139  0.0680  0.3889
15602TIP3    H168297   0.903   4.082  12.087 -1.4552 -2.6053  1.8985
15602TIP3    H268298   0.782   4.059  11.999 -0.5822  0.9736 -0.5141
15603TIP3   OH268299   3.696   3.773  12.087  0.1329 -0.5081  0.0958
15603TIP3    H168300   3.667   3.861  12.064 -0.7397 -0.3162  1.8379
15603TIP3    H268301   3.632   3.715  12.046 -1.2244 -0.1777  1.6567
15604TIP3   OH268302   1.002   4.019   1.777 -0.2493 -0.3658 -0.1864
15604TIP3    H168303   1.084   3.999   1.732 -0.5582  0.1314 -0.9955
15604TIP3    H268304   0.936   4.020   1.707 -1.0508 -1.3453  0.5308
15605TIP3   OH268305   1.158   2.204  14.420 -0.8451 -0.2341 -0.1231
15605TIP3    H168306   1.137   2.241  14.506 -0.9535  0.0738 -0.2850
15605TIP3    H268307   1.080   2.153  14.396 -1.7445  1.4689 -1.0426
15606TIP3   OH268308   0.259   3.752   2.684 -0.0818 -0.0539  0.0851
15606TIP3    H168309   0.350   3.762   2.655 -0.1590 -0.4308 -0.2933
15606TIP3    H268310   0.212   3.824   2.641 -0.0983 -0.3001 -0.3156
15607TIP3   OH268311   2.283   2.355  13.434  0.3513 -0.6623 -0.3123
15607TIP3    H168312   2.221   2.393  13.496  0.3156 -1.3009  0.0468
15607TIP3    H268313   2.334   2.430  13.402  1.0874 -0.4531  1.2935
15608TIP3   OH268314   4.930   6.548  16.060  0.5409 -0.2137 -0.7393
15608TIP3    H168315   4.980   6.560  16.141 -0.3923  1.5150 -0.3792
15608TIP3    H268316   4.955   6.461  16.030 -1.2413 -2.2780  2.9754
15609TIP3   OH268317   0.119   2.616  14.071 -0.0977  0.1422 -0.5381
15609TIP3    H168318   0.076   2.538  14.037 -2.0474  0.9728 -0.1158
15609TIP3    H268319   0.184   2.583  14.132 -1.2699 -1.1463  0.0721
15610TIP3   OH268320   6.736   0.004  10.985  0.2736  0.0199  0.0883
15610TIP3    H168321   6.673   0.045  10.926 -0.7713  0.7706  1.6710
15610TIP3    H268322   6.703  -0.085  10.997  0.3700 -0.0671 -0.2634
15611TIP3   OH268323   5.581   2.341  16.203 -0.1789  0.1379  0.0892
15611TIP3    H168324   5.492   2.308  16.215 -0.0324  0.1657  1.4513
15611TIP3    H268325   5.569   2.431  16.171 -0.6718  0.4770  1.1851
15612TIP3   OH268326   0.003   3.607   0.434 -0.8767  0.0144  0.5885
15612TIP3    H168327   0.073   3.621   0.497 -1.0314 -0.8962  0.9702
15612TIP3    H268328  -0.042   3.692   0.429 -0.4772  0.2679  1.2250
15613TIP3   OH268329   5.873   3.538   1.341  0.0395 -0.0500 -0.2780
15613TIP3    H168330   5.826   3.522   1.423 -0.3469 -0.8478 -0.6398
15613TIP3    H268331   5.963   3.558   1.368 -0.4020  1.0799  0.4002
15614TIP3   OH268332   1.468   6.190  16.776 -0.1185  0.2184 -0.8660
15614TIP3    H168333   1.489   6.271  16.729 -0.4111 -0.1858 -1.7183
15614TIP3    H268334   1.548   6.137  16.768  1.1012  1.4293  2.0160
15615TIP3   OH268335   5.530   6.609   2.825  0.1735 -0.0452  0.6389
15615TIP3    H168336   5.454   6.633   2.878  0.2121 -1.3666  1.3451
15615TIP3    H268337   5.503   6.528   2.781  0.5754  0.3898 -0.4308
15616TIP3   OH268338   2.853   2.632   5.353 -0.4646 -0.0955  0.1438
15616TIP3    H168339   2.904   2.640   5.272  0.4148 -0.6689  0.6207
15616TIP3    H268340   2.865   2.715   5.398  2.1158 -1.0220  1.3893
15617TIP3   OH268341   2.930   4.528   0.177 -0.1153  0.3927  0.0792
15617TIP3    H168342   3.017   4.555   0.148 -0.9723  0.9292 -2.1791
15617TIP3    H268343   2.895   4.477   0.104 -1.7211  0.2430  0.9125
15618TIP3   OH268344   2.376   3.988  12.592  0.2064 -0.6722 -0.7495
15618TIP3    H168345   2.369   3.990  12.496  0.7772  0.0669 -0.7861
15618TIP3    H268346   2.407   4.076  12.615  1.2554 -1.2214  0.0193
15619TIP3   OH268347   2.817   3.952   6.362 -0.0684  0.5155 -0.6540
15619TIP3    H168348   2.812   3.893   6.287  1.6541 -1.5754  0.7773
15619TIP3    H268349   2.884   4.016   6.337  1.2898 -0.8103 -0.5211
15620TIP3   OH268350   3.767   3.149   3.709  0.4430  0.2043  0.1678
15620TIP3    H168351   3.681   3.172   3.674 -0.7927 -2.3049  1.2834
15620TIP3    H268352   3.791   3.224   3.763 -2.1067  0.1428  1.5735
15621TIP3   OH268353   2.867   3.861   4.797 -0.2027 -0.2636 -0.4767
15621TIP3    H168354   2.903   3.915   4.727 -1.8897  0.3031 -0.9521
15621TIP3    H268355   2.778   3.893   4.809 -0.8717 -2.1692  0.0433
15622TIP3   OH268356   4.431   3.845   2.619 -0.3868 -0.4294 -0.0265
15622TIP3    H168357   4.476   3.917   2.575 -0.4960 -0.7247 -0.6239
15622TIP3    H268358   4.430   3.871   2.711  0.6497 -0.2380 -0.0600
15623TIP3   OH268359   5.326   6.100  11.975  0.6067 -0.3058  0.1865
15623TIP3    H168360   5.410   6.114  11.931  0.8416  0.3562  0.8232
15623TIP3    H268361   5.289   6.024  11.931  1.3152 -0.3101 -0.4361
15624TIP3   OH268362   2.157   6.567  14.157  0.3715  0.0083 -0.8027
15624TIP3    H168363   2.217   6.554  14.230  1.4171 -1.3813 -1.8556
15624TIP3    H268364   2.175   6.657  14.127  0.7608  0.1672 -0.1041
15625TIP3   OH268365   5.965   6.432   0.768 -0.2053 -0.1567 -0.2010
15625TIP3    H168366   5.964   6.351   0.717 -1.6104 -0.8416  0.8460
15625TIP3    H268367   5.878   6.469   0.756  0.4457  1.2763 -0.7270
15626TIP3   OH268368   5.763   5.832  13.754  0.1556  0.0400 -0.0145
15626TIP3    H168369   5.853   5.849  13.727  0.0313 -1.2644 -1.3907
15626TIP3    H268370   5.711   5.842  13.674 -0.8103 -0.0434  0.5771
15627TIP3   OH268371   0.039   0.367  13.281 -0.7428  0.0898  0.5962
15627TIP3    H168372  -0.021   0.314  13.229 -0.6928  0.5367  0.0671
15627TIP3    H268373  -0.015   0.439  13.314 -0.6739  0.0517  0.7957
15628TIP3   OH268374   4.699   0.457   3.921  0.1028  0.6174 -0.1016
15628TIP3    H168375   4.617   0.505   3.926  0.3567  0.9830  0.6098
15628TIP3    H268376   4.716   0.427   4.010 -1.0675 -2.5556 -0.8167
15629TIP3   OH268377   3.256   4.720   5.439  0.3069 -0.0721 -0.0558
15629TIP3    H168378   3.279   4.639   5.394 -3.2640 -1.9056  1.0723
15629TIP3    H268379   3.292   4.710   5.527 -1.6166 -1.3744  0.6462
15630TIP3   OH268380   3.554   1.718  11.274  0.1146  0.2886 -0.5247
15630TIP3    H168381   3.544   1.760  11.189  0.2630 -0.5029 -0.9413
15630TIP3    H268382   3.648   1.713  11.288  0.1326 -0.7232 -0.9065
15631TIP3   OH268383   5.070   6.145  13.661  0.1150  0.7128  0.1182
15631TIP3    H168384   5.121   6.159  13.582 -1.6076 -0.1093 -1.1975
15631TIP3    H268385   5.007   6.218  13.662  0.6881  1.2218  1.2414
15632TIP3   OH268386   2.756   1.914  15.632  0.0817 -0.0610  0.0152
15632TIP3    H168387   2.730   1.823  15.622  0.0251  0.0116 -0.5161
15632TIP3    H268388   2.843   1.910  15.671  1.5717 -0.4604 -3.0229
15633TIP3   OH268389   2.556   2.600  13.586  0.1619 -0.5400 -0.7145
15633TIP3    H168390   2.527   2.513  13.613 -1.5461  0.1773 -0.1037
15633TIP3    H268391   2.622   2.625  13.650 -0.4712 -0.7603  0.0304
15634TIP3   OH268392   5.678   1.732   1.915 -0.0438  0.4745  0.2951
15634TIP3    H168393   5.735   1.716   1.840  3.0013  1.0973  2.2821
15634TIP3    H268394   5.631   1.649   1.928  0.8555 -0.2876 -1.0841
15635TIP3   OH268395   3.183   4.250   2.379 -0.1972  0.4881  0.1228
15635TIP3    H168396   3.225   4.186   2.435 -0.7629  2.1098  2.5402
15635TIP3    H268397   3.091   4.223   2.376 -0.0524  0.0398 -0.6160
15636TIP3   OH268398   6.642   6.669   1.202  0.1608 -0.4032  0.0835
15636TIP3    H168399   6.594   6.692   1.281 -2.1930  1.3480 -1.6906
15636TIP3    H268400   6.704   6.742   1.190 -0.8551  0.3770 -0.6495
15637TIP3   OH268401   4.779   3.263  11.476 -0.4668 -0.4130  0.8103
15637TIP3    H168402   4.725   3.222  11.409  0.0913 -1.6566  1.0855
15637TIP3    H268403   4.780   3.356  11.454 -1.3166 -0.6246 -0.1617
15638TIP3   OH268404   6.082   5.172   5.011  0.4720 -0.0838 -0.4355
15638TIP3    H168405   6.000   5.219   4.995 -0.2085 -0.5110  1.6101
15638TIP3    H268406   6.059   5.079   5.001  0.6204 -0.2206  0.4721
15639TIP3   OH268407   5.606   2.234  17.162  0.7529 -0.1780  0.3166
15639TIP3    H168408   5.689   2.263  17.124  0.4479 -1.5171 -1.4885
15639TIP3    H268409   5.619   2.242  17.256  2.4967  0.7906  0.0340
15640TIP3   OH268410   2.827   0.891   7.046  0.2528 -0.2257 -0.0417
15640TIP3    H168411   2.903   0.948   7.043  0.2551 -0.2706 -1.2634
15640TIP3    H268412   2.752   0.949   7.037  0.2213 -0.3362 -0.5156
15641TIP3   OH268413   3.786   4.413  13.761 -0.3313 -0.0378  0.1374
15641TIP3    H168414   3.858   4.363  13.723 -0.0066  0.3569  0.2389
15641TIP3    H268415   3.742   4.351  13.820 -0.3379 -0.4036 -0.2496
15642TIP3   OH268416   3.539   2.572   1.418  0.4768 -0.3650 -0.0277
15642TIP3    H168417   3.549   2.482   1.447  0.5734 -0.5904 -0.7482
15642TIP3    H268418   3.629   2.604   1.408  0.4790  0.4180  2.0133
15643TIP3   OH268419   5.487   2.286  12.485 -0.1349  0.2806  0.0185
15643TIP3    H168420   5.501   2.347  12.412 -0.5274 -0.8468 -1.0454
15643TIP3    H268421   5.569   2.237  12.490 -0.5001 -0.3943 -0.4215
15644TIP3   OH268422   5.577   3.885   5.902 -0.1032 -0.0123  0.2085
15644TIP3    H168423   5.558   3.829   5.976  0.1070 -0.9370 -0.4219
15644TIP3    H268424   5.646   3.839   5.854  0.3775  0.9832 -0.0994
15645TIP3   OH268425   1.804   2.277   2.597  0.2496 -0.1004 -0.2335
15645TIP3    H168426   1.804   2.314   2.508 -0.7031  0.6157  0.0399
15645TIP3    H268427   1.890   2.238   2.607  1.0642  1.4455 -0.8227
15646TIP3   OH268428   5.587   2.762  15.212  0.5440 -0.0665 -0.3719
15646TIP3    H168429   5.494   2.748  15.191  0.8065 -0.1196 -1.6186
15646TIP3    H268430   5.612   2.837  15.159  1.2428 -0.1219 -0.1300
15647TIP3   OH268431   4.948   0.492  16.554 -0.0065 -0.3208  0.6524
15647TIP3    H168432   4.955   0.587  16.561  1.1733 -0.3228 -0.1530
15647TIP3    H268433   4.912   0.464  16.638 -1.5552  0.9290  0.4513
15648TIP3   OH268434   0.392   0.935   4.957  0.4606 -0.4713  0.2187
15648TIP3    H168435   0.372   0.842   4.972  1.1343 -0.3086  2.5798
15648TIP3    H268436   0.479   0.947   4.995  0.8110  0.9407 -0.9586
15649TIP3   OH268437   0.491   1.309  17.035  0.5264  0.2657  0.7968
15649TIP3    H168438   0.445   1.273  16.959 -0.0193  0.2454  1.1271
15649TIP3    H268439   0.430   1.374  17.071  0.8457  0.3902  1.1232
15650TIP3   OH268440   1.500   1.048  12.021  0.0717 -0.0960  0.0603
15650TIP3    H168441   1.467   1.050  11.932 -0.5107  1.9946  0.2603
15650TIP3    H268442   1.436   0.996  12.070  0.2392 -0.9938 -0.6571
15651TIP3   OH268443   4.719   2.074  12.737  0.1233 -0.3531  0.0632
15651TIP3    H168444   4.762   2.152  12.702 -0.1921  0.3327  1.1778
15651TIP3    H268445   4.770   2.050  12.814  1.8783 -2.8974 -1.7122
15652TIP3   OH268446   2.133   4.332   0.202  0.0781 -0.1476 -0.5261
15652TIP3    H168447   2.152   4.258   0.143  0.0042 -0.6267  0.0405
15652TIP3    H268448   2.052   4.369   0.168 -2.0715 -2.7306  1.4251
15653TIP3   OH268449   0.074   1.977   4.929  0.1807 -0.0448 -0.3484
15653TIP3    H168450   0.163   1.961   4.962 -1.1668 -0.1949  3.8349
15653TIP3    H268451   0.059   2.070   4.945 -1.0400 -0.4397  1.0196
15654TIP3   OH268452   4.206   2.404  11.169  0.2131  0.3219 -0.4888
15654TIP3    H168453   4.183   2.348  11.095 -0.7288  1.0461 -0.7715
15654TIP3    H268454   4.124   2.416  11.217  0.8930 -0.5073  0.9688
15655TIP3   OH268455   1.690   4.052   4.461  0.1322  0.4102 -0.1285
15655TIP3    H168456   1.726   4.055   4.372  2.7849  0.7464  0.8592
15655TIP3    H268457   1.717   4.134   4.501  0.6192 -0.5027  1.5333
15656TIP3   OH268458   1.895   6.140  17.672  0.1108  0.3250  0.4522
15656TIP3    H168459   1.927   6.119  17.585  1.0714  0.3014  0.8055
15656TIP3    H268460   1.812   6.092  17.680  0.8000 -0.9402  0.1453
15657TIP3   OH268461   4.929   0.746   0.719  0.1352  0.0096 -0.1603
15657TIP3    H168462   4.893   0.679   0.777  1.7341  1.2172  2.3734
15657TIP3    H268463   4.871   0.821   0.731  0.0050  0.0281 -0.8241
15658TIP3   OH268464   4.720   2.697   0.056 -0.9486 -0.1550 -0.5883
15658TIP3    H168465   4.806   2.736   0.041 -1.5402  0.1427 -3.8359
15658TIP3    H268466   4.709   2.699   0.151  1.6722  1.8239 -0.2279
15659TIP3   OH268467   3.590   0.386   3.153  0.0891  0.2392 -0.2239
15659TIP3    H168468   3.547   0.468   3.128 -0.1859  0.5503  1.1863
15659TIP3    H268469   3.567   0.374   3.245  0.1243 -1.4372 -0.4082
15660TIP3   OH268470   4.061   0.690   5.103  0.3648 -0.0850  0.1326
15660TIP3    H168471   4.082   0.752   5.173 -1.2588 -2.0329  2.5590
15660TIP3    H268472   3.990   0.731   5.054 -1.1318 -0.1459  2.0950
15661TIP3   OH268473   2.604   3.971   5.587 -0.2676  0.4361  0.1438
15661TIP3    H168474   2.639   4.054   5.554  1.2651 -0.4262 -0.5441
15661TIP3    H268475   2.609   3.978   5.682 -1.2347  1.5473  0.1348
15662TIP3   OH268476   3.015   0.824  15.550  0.4867  0.2287 -0.7948
15662TIP3    H168477   3.034   0.780  15.633 -0.0307  0.9058 -0.3103
15662TIP3    H268478   2.935   0.783  15.518  0.6260  0.0437 -0.9116
15663TIP3   OH268479   4.245   1.876   5.424  0.5681  0.1361 -0.0597
15663TIP3    H168480   4.156   1.886   5.388  0.5487 -1.9801 -0.7583
15663TIP3    H268481   4.231   1.861   5.518  0.2803  0.8622  0.0226
15664TIP3   OH268482   5.270   1.442  11.931 -0.3292  0.1649  0.7425
15664TIP3    H168483   5.211   1.372  11.962  0.3941 -0.0738  1.6158
15664TIP3    H268484   5.212   1.515  11.910 -1.2119 -1.0125 -1.1499
15665TIP3   OH268485   2.022   0.470  16.914 -0.1252  0.1513  0.8356
15665TIP3    H168486   2.089   0.458  16.847 -1.4778 -1.7251 -0.2849
15665TIP3    H268487   1.988   0.559  16.898  2.1552  1.2162  1.5681
15666TIP3   OH268488   5.251   1.497   1.885  0.1547 -0.3493  0.0227
15666TIP3    H168489   5.178   1.540   1.840  1.0089  0.1614 -0.9164
15666TIP3    H268490   5.258   1.544   1.969  0.4011  0.6639 -0.5452
15667TIP3   OH268491   5.019   3.829   4.048 -0.0391  0.2463  0.5768
15667TIP3    H168492   5.033   3.916   4.086 -2.7354  0.8402  0.3950
15667TIP3    H268493   4.936   3.836   4.001  0.8297 -1.8062 -1.4691
15668TIP3   OH268494   5.639   1.111  15.431  0.4910 -0.2233  0.1170
15668TIP3    H168495   5.631   1.084  15.340 -2.7777  1.9882 -0.4492
15668TIP3    H268496   5.601   1.038  15.481 -2.6136  0.5746 -0.8527
15669TIP3   OH268497   3.687   5.000  11.679  0.2467  0.3788 -0.0240
15669TIP3    H168498   3.664   4.920  11.633 -2.7191  0.3672  1.2334
15669TIP3    H268499   3.609   5.056  11.670  1.2679  2.1096  1.2501
15670TIP3   OH268500   5.278   5.800   2.227 -0.1003  0.0845 -0.1386
15670TIP3    H168501   5.253   5.826   2.138  1.7553  1.1288 -0.4159
15670TIP3    H268502   5.346   5.734   2.213  0.2491  0.3062  0.4957
15671TIP3   OH268503   3.940   5.860   0.149 -0.1861 -0.1440 -0.0808
15671TIP3    H168504   3.901   5.944   0.171  0.3953 -0.0843  0.7585
15671TIP3    H268505   3.999   5.879   0.076 -1.0084 -0.0616 -0.7256
15672TIP3   OH268506   0.328   6.495  14.093  0.9101 -0.1053  0.0385
15672TIP3    H168507   0.296   6.425  14.036  0.5898 -0.2179  0.3577
15672TIP3    H268508   0.406   6.527  14.049 -1.2286  2.2327 -2.3760
15673TIP3   OH268509   2.679   0.228   1.995  0.3792  0.3485 -0.1927
15673TIP3    H168510   2.704   0.226   1.903  1.1571 -1.0460  0.0177
15673TIP3    H268511   2.634   0.312   2.006  0.5626  0.6822 -1.7547
15674TIP3   OH268512   5.705   1.479  16.409 -0.4852 -0.0035  0.2730
15674TIP3    H168513   5.673   1.441  16.491  0.4260 -0.5061  0.4028
15674TIP3    H268514   5.800   1.477  16.416 -0.4002  0.5397 -0.5321
15675TIP3   OH268515   3.861   5.464  16.992  0.6884  0.8559  0.1027
15675TIP3    H168516   3.832   5.510  17.072 -3.4578  1.8675 -1.7194
15675TIP3    H268517   3.870   5.373  17.019 -3.8478  0.5167  1.3031
15676TIP3   OH268518   4.221   2.156   0.109  0.0724 -0.2451 -0.9571
15676TIP3    H168519   4.306   2.201   0.109 -0.1522  0.3179  1.3105
15676TIP3    H268520   4.158   2.224   0.084  0.0945 -0.1787 -0.8321
15677TIP3   OH268521   1.983   5.998  11.580  0.5286 -0.0273 -0.0033
15677TIP3    H168522   1.924   5.931  11.546 -1.1806  1.5595 -0.3458
15677TIP3    H268523   2.000   5.972  11.671 -0.2587 -0.8260 -0.0743
15678TIP3   OH268524   0.513   6.406   3.149 -0.3093  0.4853  0.4080
15678TIP3    H168525   0.481   6.480   3.202  0.5156 -0.4837  2.3694
15678TIP3    H268526   0.568   6.447   3.082 -1.6981  1.7958  0.0007
15679TIP3   OH268527   4.756   4.029   1.592  0.4724 -0.3627  0.5614
15679TIP3    H168528   4.679   3.990   1.633 -0.1563 -0.5547 -0.7403
15679TIP3    H268529   4.729   4.047   1.502  1.8396 -0.1058  0.1699
15680TIP3   OH268530   1.418   2.913   0.043  0.3682  0.1275 -0.1093
15680TIP3    H168531   1.486   2.859   0.084 -0.1078 -1.3849 -1.2428
15680TIP3    H268532   1.337   2.883   0.083  0.1871  0.8003  0.0463
15681TIP3   OH268533   3.005   5.896   5.037  0.0855 -0.1695 -0.3644
15681TIP3    H168534   2.916   5.892   5.004  0.2408 -0.8815 -0.7018
15681TIP3    H268535   3.058   5.850   4.972  0.7532  0.5053 -0.3253
15682TIP3   OH268536   2.697   0.648   3.251 -0.0903 -0.3271 -0.1900
15682TIP3    H168537   2.646   0.726   3.272 -1.6771 -0.8674 -1.7228
15682TIP3    H268538   2.663   0.580   3.310 -0.3100 -0.4001 -0.3995
15683TIP3   OH268539   5.989   3.145   0.568 -0.6932  0.0718 -0.3670
15683TIP3    H168540   5.930   3.166   0.641 -0.5430 -1.5848  0.2827
15683TIP3    H268541   6.016   3.230   0.533 -0.7923  0.9245  1.5095
15684TIP3   OH268542   4.726   6.106  16.558 -0.6421 -0.4908  0.4270
15684TIP3    H168543   4.695   6.087  16.469 -0.5965 -0.0486  0.3108
15684TIP3    H268544   4.759   6.023  16.590  1.9190 -0.1335 -0.9925
15685TIP3   OH268545   3.833   1.810   3.052  0.2858 -0.2064 -0.3894
15685TIP3    H168546   3.764   1.744   3.063 -0.9374  1.2705  1.4471
15685TIP3    H268547   3.898   1.786   3.118  1.2246 -1.1528 -1.6106
15686TIP3   OH268548   1.439   0.425  13.392 -0.2834  0.2505 -0.1197
15686TIP3    H168549   1.357   0.459  13.357 -0.4385  0.6623  0.6372
15686TIP3    H268550   1.441   0.455  13.482  0.4350 -0.2358  0.0324
15687TIP3   OH268551   4.772   4.640  13.474 -0.3860  0.5126  0.4437
15687TIP3    H168552   4.688   4.598  13.453  0.2417 -0.2778 -0.5434
15687TIP3    H268553   4.827   4.569  13.508  1.0839  0.1972 -2.3374
15688TIP3   OH268554   1.839   1.548  15.356  0.2135  0.5199 -0.1518
15688TIP3    H168555   1.842   1.644  15.351  2.6055  0.4515 -1.8032
15688TIP3    H268556   1.927   1.520  15.329  0.0609 -2.1262  1.7039
15689TIP3   OH268557   4.296   4.213   4.082 -0.2910  0.0922  0.5225
15689TIP3    H168558   4.256   4.202   3.996 -0.9597  1.4441  0.6299
15689TIP3    H268559   4.309   4.307   4.090 -0.1618 -0.0217  1.8656
15690TIP3   OH268560   4.678   6.585  14.678  0.1906 -0.0028 -0.4496
15690TIP3    H168561   4.693   6.525  14.605 -0.1820 -2.4081  1.3032
15690TIP3    H268562   4.599   6.551  14.720 -0.2210  1.9608  0.4538
15691TIP3   OH268563   0.645   0.823   1.526  0.0816 -0.4699  0.1240
15691TIP3    H168564   0.577   0.756   1.513  1.0974 -1.7538  1.1992
15691TIP3    H268565   0.724   0.783   1.490  0.4420  0.7268 -0.4526
15692TIP3   OH268566   3.017   0.204   3.623 -0.3636 -0.1340 -0.0222
15692TIP3    H168567   3.061   0.280   3.661  1.9331 -2.4304  2.2787
15692TIP3    H268568   2.951   0.179   3.688 -1.2777  0.0083 -0.8755
15693TIP3   OH268569   5.083   3.665  14.189  0.0141 -0.8063  0.0522
15693TIP3    H168570   5.089   3.629  14.277 -1.3038  2.2215  1.5254
15693TIP3    H268571   4.997   3.638  14.158 -0.4725 -0.0242  0.6684
15694TIP3   OH268572   1.315   4.884  13.372  0.6963  0.6611 -0.3942
15694TIP3    H168573   1.320   4.799  13.327 -1.2708  0.4923 -0.3527
15694TIP3    H268574   1.374   4.940  13.322  1.1722 -0.4307 -1.1052
15695TIP3   OH268575   2.831   0.832  15.147 -0.1747 -0.0235 -0.2367
15695TIP3    H168576   2.875   0.761  15.196 -2.6767 -2.4453 -1.2117
15695TIP3    H268577   2.802   0.893  15.215  2.9554  0.7405  0.5592
15696TIP3   OH268578   0.093   4.024   3.061  0.0578 -0.2269 -0.2765
15696TIP3    H168579   0.142   4.080   3.122  1.4446  0.0460 -1.5898
15696TIP3    H268580   0.141   3.942   3.060  0.5925  0.0788 -1.6612
15697TIP3   OH268581   0.027   0.533  15.492 -0.4845  0.7701  0.3491
15697TIP3    H168582   0.016   0.461  15.430 -1.0933  1.0321  0.1499
15697TIP3    H268583   0.045   0.610  15.437 -0.3859  0.8799  0.5332
15698TIP3   OH268584   6.183   2.468  12.064 -0.2075 -0.5301 -0.1154
15698TIP3    H168585   6.172   2.374  12.079 -0.3929 -0.0639  3.3554
15698TIP3    H268586   6.113   2.492  12.004 -0.9408 -2.3790 -0.0440
15699TIP3   OH268587   3.923   2.140   5.421  0.0025 -0.1284  0.1563
15699TIP3    H168588   3.980   2.181   5.486 -0.1348  0.2168  0.0599
15699TIP3    H268589   3.970   2.150   5.338 -0.8779  1.5483 -0.1890
15700TIP3   OH268590   2.363   0.819   4.923  0.1091 -0.1027  0.4043
15700TIP3    H168591   2.268   0.830   4.931  0.0960  0.7496 -0.6255
15700TIP3    H268592   2.376   0.790   4.833  0.8566  0.3955  0.3440
15701TIP3   OH268593   6.139   5.108   2.890  0.3060 -0.2726 -0.2274
15701TIP3    H168594   6.068   5.052   2.922  0.0777  0.6095  0.8581
15701TIP3    H268595   6.178   5.058   2.818 -0.2024 -1.6037  0.3901
15702TIP3   OH268596   1.697   5.285   5.885 -0.1287  0.5055 -0.0524
15702TIP3    H168597   1.792   5.274   5.894 -0.3770 -0.2171  2.8076
15702TIP3    H268598   1.673   5.233   5.809  1.5230 -1.0762  0.4395
15703TIP3   OH268599   2.777   0.843  17.009  0.6755 -0.7436  0.1518
15703TIP3    H168600   2.759   0.908  16.941 -1.4820 -1.4838 -0.0413
15703TIP3    H268601   2.825   0.892  17.076  2.5961  0.0899 -1.6741
15704TIP3   OH268602   1.255   5.326   4.328 -0.0794  0.0724 -0.2310
15704TIP3    H168603   1.319   5.371   4.384 -0.1014  0.0073 -0.1531
15704TIP3    H268604   1.207   5.270   4.388 -0.0481 -0.0592 -0.3303
15705TIP3   OH268605   4.205   3.850  17.609 -0.7583 -0.1444 -0.2509
15705TIP3    H168606   4.143   3.778  17.598 -0.5042 -0.0482 -3.0103
15705TIP3    H268607   4.290   3.808  17.613 -0.8055 -0.1358  1.0445
15706TIP3   OH268608   5.209   0.874   2.129  0.2632  0.1840  0.5077
15706TIP3    H168609   5.278   0.903   2.189 -0.5688 -0.0549  1.6088
15706TIP3    H268610   5.249   0.802   2.080  0.3530 -0.9880  2.2036
15707TIP3   OH268611   1.728   3.339  15.109 -0.1690 -0.3856  0.2336
15707TIP3    H168612   1.661   3.383  15.162 -0.8570  0.3477 -1.1983
15707TIP3    H268613   1.780   3.290  15.173 -1.6607 -0.4513  1.4594
15708TIP3   OH268614   0.590   2.931   2.430 -0.0928 -0.1180 -0.6104
15708TIP3    H168615   0.626   2.855   2.384 -1.8876 -2.3050  1.2920
15708TIP3    H268616   0.497   2.929   2.411 -0.2670  1.2598 -0.0212
15709TIP3   OH268617   1.390   0.248  11.224  0.1376  0.3645  0.2220
15709TIP3    H168618   1.450   0.199  11.167  1.6466  0.2684  1.7880
15709TIP3    H268619   1.440   0.326  11.248 -1.1504  1.2674  0.0335
15710TIP3   OH268620   3.578   3.866  15.359  0.6660  0.2618  0.2249
15710TIP3    H168621   3.539   3.839  15.276 -0.5406  0.7176  0.6274
15710TIP3    H268622   3.579   3.786  15.412  1.6173 -0.0769 -0.2664
15711TIP3   OH268623   1.101   1.910  15.852  0.4960  0.3712 -0.2064
15711TIP3    H168624   1.158   1.963  15.796  0.6475  0.0516 -0.3592
15711TIP3    H268625   1.014   1.920  15.813  0.3536  1.2612  0.3224
15712TIP3   OH268626   0.950   3.051   2.486  0.6262 -0.0225 -0.0121
15712TIP3    H168627   0.996   3.014   2.411 -0.2966 -0.5666 -0.3331
15712TIP3    H268628   0.879   3.103   2.447  0.6870  0.4261  0.4683
15713TIP3   OH268629   2.378   6.468   3.629  0.2491  0.2342  0.2710
15713TIP3    H168630   2.418   6.549   3.600  0.5227 -0.0103 -0.0473
15713TIP3    H268631   2.338   6.431   3.550 -0.0200  0.1445  0.4477
15714TIP3   OH268632   0.808   1.161   5.165 -0.4926  0.4246 -0.1494
15714TIP3    H168633   0.776   1.181   5.253  0.0814  1.0634 -0.0786
15714TIP3    H268634   0.897   1.128   5.178 -0.7095 -0.2785 -0.4278
15715TIP3   OH268635   2.133   4.270   5.027 -0.2623  0.6681  0.2215
15715TIP3    H168636   2.191   4.202   5.062 -0.8659  0.6376  1.1953
15715TIP3    H268637   2.137   4.257   4.932 -1.0271 -1.3149  0.3977
15716TIP3   OH268638   0.762   4.811   5.711 -0.2767  0.1054  0.2276
15716TIP3    H168639   0.802   4.897   5.722  0.0186 -0.2259  1.9817
15716TIP3    H268640   0.705   4.801   5.787 -0.0874 -1.3651  0.2031
15717TIP3   OH268641   0.319   6.654   0.579  0.3704  0.2147 -0.2592
15717TIP3    H168642   0.377   6.595   0.627  1.1985 -0.1611 -1.6355
15717TIP3    H268643   0.267   6.596   0.523  0.7210  0.7261 -1.1383
15718TIP3   OH268644   3.753   3.053   1.212  0.6596 -0.5598 -0.0899
15718TIP3    H168645   3.694   3.124   1.187  0.4336  0.2638  2.5391
15718TIP3    H268646   3.707   2.973   1.188 -1.1642  0.0913  1.0672
15719TIP3   OH268647   6.696   6.302   0.368 -0.0307 -0.0681  0.4337
15719TIP3    H168648   6.775   6.248   0.356  2.9707  4.0397 -0.7308
15719TIP3    H268649   6.641   6.280   0.293  3.2244  1.4105 -2.7497
15720TIP3   OH268650   1.193   4.496   0.576 -0.6167 -0.7581  0.6169
15720TIP3    H168651   1.234   4.412   0.551  0.2076 -0.6319  1.5130
15720TIP3    H268652   1.104   4.472   0.601 -1.5984 -0.8925 -2.4766
15721TIP3   OH268653   5.590   1.074   2.905  0.5351 -0.4000  0.2491
15721TIP3    H168654   5.635   0.997   2.941 -1.2200 -0.6071  2.1359
15721TIP3    H268655   5.505   1.040   2.878  0.1836  0.6677 -0.0055
15722TIP3   OH268656   0.868   2.940  16.312 -0.0209  0.3206 -0.3656
15722TIP3    H168657   0.817   2.980  16.242  1.4658  0.4572 -1.4204
15722TIP3    H268658   0.807   2.881  16.356 -1.0688  0.4545 -1.5872
15723TIP3   OH268659   0.443   4.738   4.537 -0.6821  0.0816 -0.4411
15723TIP3    H168660   0.397   4.773   4.613 -0.3311 -0.0025 -0.1900
15723TIP3    H268661   0.446   4.811   4.475 -3.1333 -0.5140 -1.3989
15724TIP3   OH268662   3.401   4.921   1.557 -0.6839  0.0680 -0.3501
15724TIP3    H168663   3.474   4.943   1.500 -1.6052 -0.3733 -1.7710
15724TIP3    H268664   3.374   4.834   1.528 -1.1845 -0.1596  0.7700
15725TIP3   OH268665   6.005   4.327   5.958 -0.2449 -0.4446  0.1245
15725TIP3    H168666   5.987   4.336   6.051  0.0104  0.1442  0.1217
15725TIP3    H268667   6.024   4.234   5.945  0.3861 -0.4126  0.7747
15726TIP3   OH268668   5.470   0.956   2.200 -0.0179 -0.6293 -0.3178
15726TIP3    H168669   5.514   0.949   2.116  1.1928  0.4133  0.1777
15726TIP3    H268670   5.541   0.973   2.263 -1.0981  1.1244  0.5265
15727TIP3   OH268671   3.283   3.734  14.521  0.2709 -0.1269  0.2370
15727TIP3    H168672   3.291   3.746  14.616 -0.7944 -0.5203  0.3876
15727TIP3    H268673   3.301   3.641  14.508  0.7620  0.0007  0.0103
15728TIP3   OH268674   2.121   4.661  12.495  0.0078 -0.2993  0.1216
15728TIP3    H168675   2.216   4.655  12.482 -0.1682  0.0157 -1.3982
15728TIP3    H268676   2.085   4.584  12.452 -0.5525  0.4643 -0.8023
15729TIP3   OH268677   6.096   1.106  17.417  0.0606  0.0415  0.2606
15729TIP3    H168678   6.053   1.165  17.355  0.3503  0.5607  0.5431
15729TIP3    H268679   6.123   1.031  17.365  2.0231  1.3114 -0.6517
15730TIP3   OH268680   6.447   1.808  14.078 -0.0237 -0.1247  0.2333
15730TIP3    H168681   6.399   1.868  14.022 -0.2425  0.5049  1.0732
15730TIP3    H268682   6.490   1.865  14.143  2.4313 -0.5708 -0.8620
15731TIP3   OH268683   3.157   3.259   4.581  0.7685 -0.1178  0.2312
15731TIP3    H168684   3.167   3.209   4.500 -2.2570  0.3654 -0.5846
15731TIP3    H268685   3.222   3.223   4.640  1.0462 -2.6198 -1.4470
15732TIP3   OH268686   0.899   2.449  15.863  0.1775  0.2816 -0.4842
15732TIP3    H168687   0.807   2.433  15.884  0.3129 -1.1867 -0.9175
15732TIP3    H268688   0.944   2.369  15.891  1.6648  1.7341  1.6421
15733TIP3   OH268689   3.786   0.325  16.984  0.4558  0.3399 -0.2644
15733TIP3    H168690   3.695   0.329  17.013 -0.1618 -1.7813 -1.6951
15733TIP3    H268691   3.789   0.380  16.906 -0.3044 -1.6538 -1.7595
15734TIP3   OH268692   0.868   1.835   4.543 -0.0809  0.0635  0.0389
15734TIP3    H168693   0.843   1.924   4.516  0.0116  0.3718  0.9405
15734TIP3    H268694   0.895   1.845   4.634 -1.2232 -1.0988  0.5378
15735TIP3   OH268695   2.637   3.899  12.293  0.5381 -0.2065  0.5944
15735TIP3    H168696   2.596   3.836  12.352  0.2138 -1.6525 -1.1054
15735TIP3    H268697   2.608   3.984  12.326  0.3493 -0.9503  2.4705
15736TIP3   OH268698   6.078   4.321   5.217  0.5191 -0.1718 -0.0837
15736TIP3    H168699   6.173   4.310   5.217  0.7896  1.7424  0.1739
15736TIP3    H268700   6.044   4.236   5.243  2.2346 -0.5050  1.2918
15737TIP3   OH268701   3.207   1.409   0.440 -0.1760 -0.0056  0.6126
15737TIP3    H168702   3.212   1.341   0.508  0.4202 -1.2741 -0.6504
15737TIP3    H268703   3.134   1.382   0.384  0.8073 -0.2924 -0.5758
15738TIP3   OH268704   5.384   3.058   4.859  0.1105 -0.1913  0.8516
15738TIP3    H168705   5.291   3.052   4.841  0.4062 -0.5824 -0.7136
15738TIP3    H268706   5.421   2.980   4.819  1.3066  0.7670  0.0255
15739TIP3   OH268707   2.927   0.415   3.396  0.1736 -0.3959  0.1308
15739TIP3    H168708   2.882   0.467   3.463  1.4759  0.0941  0.6564
15739TIP3    H268709   2.992   0.365   3.445  1.2288  0.0571 -0.7711
15740TIP3   OH268710   0.495   2.069   6.096 -0.0331 -0.2529  0.2610
15740TIP3    H168711   0.448   2.144   6.132  0.0155  0.2189 -0.6303
15740TIP3    H268712   0.502   2.087   6.003 -1.0366 -1.9010 -0.1836
15741TIP3   OH268713   1.499   6.435   6.062  0.7831 -0.0104 -0.0438
15741TIP3    H168714   1.487   6.483   6.144  2.3866 -1.1065  0.9005
15741TIP3    H268715   1.581   6.470   6.026 -0.2026  0.8708 -1.5132
15742TIP3   OH268716   2.065   2.690  12.433 -0.0115  0.4514 -0.0810
15742TIP3    H168717   2.053   2.727  12.345 -1.0368  0.7936  0.1819
15742TIP3    H268718   2.144   2.637  12.427 -0.1092  0.4186 -1.2268
15743TIP3   OH268719   3.993   2.594   3.468 -0.4403  0.4327 -0.3725
15743TIP3    H168720   3.908   2.593   3.425  0.1179  2.2784 -1.6708
15743TIP3    H268721   4.038   2.671   3.431  1.3460  0.1968  1.1226
15744TIP3   OH268722   1.642   6.442  16.860  0.3489 -0.4102 -0.4501
15744TIP3    H168723   1.640   6.383  16.934  0.0812  1.2814  0.9638
15744TIP3    H268724   1.557   6.487  16.862  0.7261  0.3819 -1.1448
15745TIP3   OH268725   1.863   5.563   6.026 -0.0512  0.2399 -0.3086
15745TIP3    H168726   1.890   5.617   6.100 -0.9544  0.7588 -0.3421
15745TIP3    H268727   1.917   5.594   5.953 -0.3136  0.8634 -0.2455
15746TIP3   OH268728   3.298   5.298  16.811  0.2234  0.0471 -0.2651
15746TIP3    H168729   3.290   5.381  16.856  2.2763  0.0197  0.2856
15746TIP3    H268730   3.264   5.233  16.873 -0.3911  0.3685 -0.2640
15747TIP3   OH268731   4.107   6.493   5.033 -0.4471 -0.0504 -0.0673
15747TIP3    H168732   4.081   6.412   5.077 -2.0246  0.0402 -0.7498
15747TIP3    H268733   4.071   6.563   5.088 -1.4501  0.0892 -0.8686
15748TIP3   OH268734   3.865   4.959   5.733 -0.0935  0.3343  0.0859
15748TIP3    H168735   3.929   4.921   5.673 -0.3237 -1.0892  0.6960
15748TIP3    H268736   3.844   4.888   5.794 -1.2462  1.1776  0.7187
15749TIP3   OH268737   4.508   0.699  13.359  0.6845  0.0493 -0.7486
15749TIP3    H168738   4.592   0.659  13.335  1.4738  1.1132  0.1426
15749TIP3    H268739   4.481   0.653  13.438  0.2876 -0.4494 -1.1615
15750TIP3   OH268740   2.568   1.869  17.372 -0.6690  0.4615  0.4023
15750TIP3    H168741   2.513   1.859  17.294 -4.3306  1.0964  2.6821
15750TIP3    H268742   2.551   1.791  17.424 -1.5689  1.8973  2.3560
15751TIP3   OH268743   1.547   5.919  15.911 -0.2137 -0.3670  0.0395
15751TIP3    H168744   1.503   5.853  15.966  1.7962 -2.1846 -0.3666
15751TIP3    H268745   1.635   5.924  15.947  0.0643  1.1599 -0.7863
15752TIP3   OH268746   1.220   6.736  11.036  0.2313 -0.5864 -0.0094
15752TIP3    H168747   1.219   6.761  11.128 -1.2780 -0.3003 -0.0798
15752TIP3    H268748   1.127   6.727  11.013  0.5756 -0.3140 -1.5896
15753TIP3   OH268749   6.137   0.792   5.434  0.4224  0.4105 -0.6915
15753TIP3    H168750   6.047   0.806   5.402  1.0987  0.8983 -2.5205
15753TIP3    H268751   6.160   0.705   5.403  0.3379 -0.0380  0.4573
15754TIP3   OH268752   3.113   4.733  13.548 -0.1762  0.1228 -0.2125
15754TIP3    H168753   3.063   4.772  13.620  0.6307  0.6249  0.0874
15754TIP3    H268754   3.176   4.676  13.591 -0.7878 -0.8788 -0.6153
15755TIP3   OH268755   0.239   1.227   4.478 -0.3384  0.0344  0.0886
15755TIP3    H168756   0.234   1.181   4.394  0.0780  1.2607 -0.6324
15755TIP3    H268757   0.332   1.242   4.492 -0.5198  2.7525 -0.9321
15756TIP3   OH268758   1.548   5.258  12.732 -0.4821 -0.0710 -0.2470
15756TIP3    H168759   1.544   5.165  12.707 -0.2026 -0.3448  0.6927
15756TIP3    H268760   1.503   5.303  12.661 -2.6834 -1.1480  0.3575
15757TIP3   OH268761   2.229   5.025   1.686  0.2847 -0.3293  0.3329
15757TIP3    H168762   2.146   4.978   1.682 -0.0429  0.2307  0.3800
15757TIP3    H268763   2.268   5.013   1.599 -0.7361  0.9649 -0.3522
15758TIP3   OH268764   4.674   4.885  14.811  0.5510  0.4161 -0.4297
15758TIP3    H168765   4.601   4.844  14.858 -0.0481  0.4086 -1.3535
15758TIP3    H268766   4.717   4.939  14.877  0.3212 -0.3592  0.3751
15759TIP3   OH268767   6.687   1.525  15.600  0.2397 -0.1130 -0.4986
15759TIP3    H168768   6.694   1.460  15.530 -0.8724 -0.8195  0.0060
15759TIP3    H268769   6.633   1.595  15.563 -1.2201 -0.9583 -0.0687
15760TIP3   OH268770   4.934   5.366   5.039  0.2982  0.1042 -0.3605
15760TIP3    H168771   4.872   5.315   5.091 -1.2903  2.7128  0.5057
15760TIP3    H268772   5.020   5.335   5.068 -0.5739 -0.7543  1.4891
15761TIP3   OH268773   0.686   0.322  12.432  0.0938 -0.1165  1.2311
15761TIP3    H168774   0.603   0.289  12.397  0.4665 -0.5470  0.7289
15761TIP3    H268775   0.686   0.415  12.411  1.1234 -0.6582 -1.6836
15762TIP3   OH268776   6.263   0.492   1.591  0.3746  0.1575 -0.3625
15762TIP3    H168777   6.299   0.545   1.520 -1.2976 -0.1129 -1.4517
15762TIP3    H268778   6.217   0.554   1.647  2.3381  0.4922  0.9922
15763TIP3   OH268779   2.068   2.129  16.521 -0.0265 -0.3582 -0.3760
15763TIP3    H168780   2.076   2.206  16.578 -0.9579 -1.0346  0.7100
15763TIP3    H268781   2.157   2.094  16.516  0.5539  1.1754 -1.4889
15764TIP3   OH268782   0.077   4.755   1.706 -0.7689  0.2982  0.2861
15764TIP3    H168783   0.072   4.698   1.629  0.1274  0.8269 -0.1864
15764TIP3    H268784   0.089   4.696   1.780  1.4256 -0.1100 -0.3292
15765TIP3   OH268785   5.621   1.832  13.968  0.1242 -0.4792  0.6982
15765TIP3    H168786   5.537   1.869  13.944  0.5456  0.0862  0.0645
15765TIP3    H268787   5.606   1.792  14.054 -1.2700 -2.0670 -0.2109
15766TIP3   OH268788   6.471   0.757  12.880  0.6418  0.3147  0.1828
15766TIP3    H168789   6.437   0.843  12.856  0.5416  0.5637  1.1648
15766TIP3    H268790   6.472   0.708  12.798  1.1342  1.3934 -0.4769
15767TIP3   OH268791   5.202   1.678  13.994  0.5865  0.2108 -0.5705
15767TIP3    H168792   5.143   1.619  14.041 -0.1482  0.6439 -0.9287
15767TIP3    H268793   5.278   1.624  13.974  0.0875 -0.5143 -0.5567
15768TIP3   OH268794   1.576   0.952   5.618  0.2172  0.5237  1.0405
15768TIP3    H168795   1.651   1.006   5.593 -0.5111  1.0866  0.0219
15768TIP3    H268796   1.535   1.001   5.690 -1.1235  2.0033 -0.6413
15769TIP3   OH268797   4.453   4.498  15.827  0.2705 -0.3798  0.0369
15769TIP3    H168798   4.385   4.506  15.893  1.8018  1.6116  1.4891
15769TIP3    H268799   4.465   4.403  15.817 -2.9448 -0.8249 -0.6456
15770TIP3   OH268800   0.469   3.771  13.278 -0.3513  0.2680 -0.1955
15770TIP3    H168801   0.506   3.683  13.270 -0.0345  0.1490  2.0307
15770TIP3    H268802   0.376   3.761  13.256 -0.2172 -0.5200 -0.4082
15771TIP3   OH268803   3.566   4.720  15.241 -0.0977  0.0404 -0.3098
15771TIP3    H168804   3.608   4.635  15.249  0.6390  0.3998 -0.3443
15771TIP3    H268805   3.610   4.762  15.167 -0.9160  0.1920 -0.7279
15772TIP3   OH268806   4.285   2.532   5.319  0.3673 -0.4632  0.5971
15772TIP3    H168807   4.364   2.584   5.303 -0.1527  1.0493  2.4836
15772TIP3    H268808   4.253   2.509   5.232  1.7542  0.6622 -0.2598
15773TIP3   OH268809   0.603   4.659  11.733 -0.0460  0.0427  0.3331
15773TIP3    H168810   0.510   4.675  11.749  0.0389  1.0692 -0.1570
15773TIP3    H268811   0.641   4.653  11.821 -0.1454  2.3274  0.5870
15774TIP3   OH268812   4.927   6.506   4.710 -0.3613  0.5943  0.4417
15774TIP3    H168813   4.873   6.437   4.672 -0.4750 -0.1956  1.9693
15774TIP3    H268814   4.962   6.468   4.791  1.3340  1.5875  0.2237
15775TIP3   OH268815   2.576   3.392   3.178 -0.0869 -0.0228  0.2910
15775TIP3    H168816   2.583   3.456   3.108 -1.0665 -1.3403 -1.0773
15775TIP3    H268817   2.666   3.367   3.198  0.2504  1.1064  0.2454
15776TIP3   OH268818   3.191   5.908   5.652  0.2686  0.0471  0.1785
15776TIP3    H168819   3.226   5.954   5.576 -2.5926  2.6220  0.2361
15776TIP3    H268820   3.194   5.972   5.723 -3.6926  0.3480  0.3242
15777TIP3   OH268821   1.904   3.778   1.128  0.6263 -0.1726 -0.0432
15777TIP3    H168822   1.982   3.801   1.077 -0.1824  1.7495 -0.5191
15777TIP3    H268823   1.931   3.787   1.219  1.1890 -0.3454 -0.1911
15778TIP3   OH268824   5.574   6.406   3.966  0.2549  0.2098  0.9463
15778TIP3    H168825   5.626   6.329   3.941 -1.1144 -0.1413 -1.0332
15778TIP3    H268826   5.495   6.400   3.914  0.0748  2.9677  0.7415
15779TIP3   OH268827   5.817   0.122   4.587  0.2457  0.2683  0.3472
15779TIP3    H168828   5.868   0.172   4.651  0.8375  0.5857 -0.3631
15779TIP3    H268829   5.843   0.031   4.603  2.7563  0.5602 -1.4107
15780TIP3   OH268830   1.623   0.412   4.407  0.3092  0.5979  0.0659
15780TIP3    H168831   1.588   0.353   4.474  0.2909 -1.0633 -1.3422
15780TIP3    H268832   1.697   0.365   4.369 -0.2390  1.0737 -1.6864
15781TIP3   OH268833   6.609   2.978   1.914 -0.2401 -0.1096  0.1103
15781TIP3    H168834   6.566   3.001   1.831 -0.1327 -2.1991 -0.5849
15781TIP3    H268835   6.700   2.962   1.889 -0.1289 -0.4046  0.7083
15782TIP3   OH268836   2.147   6.651  16.378 -0.0594  0.5998  0.5631
15782TIP3    H168837   2.094   6.635  16.456 -0.3585  1.1804  0.4859
15782TIP3    H268838   2.116   6.587  16.314  0.0808  0.2248  0.8710
15783TIP3   OH268839   4.343   6.171   1.542  0.4366  0.0517 -0.3360
15783TIP3    H168840   4.261   6.156   1.590 -0.2757 -1.0310 -1.8205
15783TIP3    H268841   4.335   6.260   1.507  0.7218  0.6394  1.0154
15784TIP3   OH268842   4.426   4.472  14.419  0.0764 -0.5466  0.3907
15784TIP3    H168843   4.520   4.477  14.404  0.0315  0.1248  0.3307
15784TIP3    H268844   4.409   4.378  14.427  0.8944 -0.6430  1.3479
15785TIP3   OH268845   6.228   5.201  14.112 -0.4183 -0.1636  0.0708
15785TIP3    H168846   6.146   5.157  14.137 -1.2160  1.5998  0.7915
15785TIP3    H268847   6.199   5.275  14.058  0.9526 -1.0673 -2.0281
15786TIP3   OH268848   1.326   4.940  14.893  0.5837  0.1837  0.2868
15786TIP3    H168849   1.252   4.953  14.951  0.4808  0.0765  0.1789
15786TIP3    H268850   1.393   5.001  14.925 -0.0442  1.3123 -0.4709
15787TIP3   OH268851   1.172   5.348  17.345  0.3729 -0.1289  0.3805
15787TIP3    H168852   1.145   5.391  17.264 -2.2428  0.2207  1.3084
15787TIP3    H268853   1.192   5.421  17.404  2.2569 -0.3811  0.0975
15788TIP3   OH268854   2.871   4.672   6.408  0.0433 -0.3599  0.4932
15788TIP3    H168855   2.882   4.697   6.500 -1.0251 -0.9277  0.7866
15788TIP3    H268856   2.794   4.720   6.379  0.4927 -0.0312 -0.1708
15789TIP3   OH268857   0.296   0.503  15.080 -0.6376  0.3215  0.1911
15789TIP3    H168858   0.218   0.449  15.068  0.4172 -1.0575 -0.8390
15789TIP3    H268859   0.340   0.465  15.156 -0.8523  0.9730  0.6479
15790TIP3   OH268860   4.731   4.655  16.002 -0.4257  0.7050  0.4613
15790TIP3    H168861   4.758   4.624  15.916 -1.5686  0.2601  0.2362
15790TIP3    H268862   4.766   4.590  16.063 -0.4102  0.5112  0.2468
15791TIP3   OH268863   2.783   1.186  17.668 -0.0427  0.1393 -0.4595
15791TIP3    H168864   2.696   1.201  17.632 -0.3856 -1.6364 -0.4678
15791TIP3    H268865   2.818   1.114  17.616  2.5133  2.4241 -2.1970
15792TIP3   OH268866   3.453   4.006   6.278 -0.3689  0.0895  0.2746
15792TIP3    H168867   3.544   4.017   6.306 -0.5437 -0.7323  1.2643
15792TIP3    H268868   3.427   3.921   6.315 -0.9135 -0.6820 -1.7298
15793TIP3   OH268869   3.933   6.132   0.229  0.1149  0.0028 -0.5729
15793TIP3    H168870   3.841   6.158   0.227  0.2891  0.5775 -2.0426
15793TIP3    H268871   3.973   6.190   0.294 -0.8279 -1.3337  1.3114
15794TIP3   OH268872   6.599   0.886  12.129 -0.7222  0.1498  0.0045
15794TIP3    H168873   6.635   0.912  12.044 -1.0405  0.3822 -0.0595
15794TIP3    H268874   6.552   0.805  12.111 -0.9416  0.2930 -0.0799
15795TIP3   OH268875   1.801   5.352  14.390 -0.3145  0.6475  0.0300
15795TIP3    H168876   1.757   5.387  14.468 -0.7667 -0.9473  0.5167
15795TIP3    H268877   1.735   5.299  14.347 -0.2463  1.9719 -1.7987
15796TIP3   OH268878   1.413   2.795  11.600  0.3332 -0.3774  0.4999
15796TIP3    H168879   1.492   2.743  11.615  0.2665 -0.7740 -0.4190
15796TIP3    H268880   1.353   2.734  11.556  0.6552  0.7472 -1.6359
15797TIP3   OH268881   1.961   0.252  15.409  0.1810  0.1312  0.0547
15797TIP3    H168882   2.039   0.299  15.441  1.6912 -2.2416  0.1152
15797TIP3    H268883   1.911   0.318  15.362  1.2368  2.2100  1.6743
15798TIP3   OH268884   4.225   2.324  12.327  0.1294 -0.2429  0.5198
15798TIP3    H168885   4.211   2.395  12.391  0.5588 -0.5137  0.9196
15798TIP3    H268886   4.163   2.256  12.352  0.7051 -0.5926  1.0199
15799TIP3   OH268887   2.992   3.685   3.312  0.4394  0.3458 -0.2208
15799TIP3    H168888   3.081   3.655   3.293  0.8338  0.0805  1.8278
15799TIP3    H268889   2.955   3.707   3.226  1.4363 -2.3692 -1.4665
15800TIP3   OH268890   1.639   5.140   1.998  0.2896 -0.8739  0.1975
15800TIP3    H168891   1.624   5.132   1.904 -0.2925  2.7996 -0.1746
15800TIP3    H268892   1.577   5.078   2.037 -0.6769 -1.2706 -1.8095
15801TIP3   OH268893   6.321   0.507   3.881 -0.4617  0.0690  0.2831
15801TIP3    H168894   6.380   0.514   3.956 -1.0261 -2.0803  1.0126
15801TIP3    H268895   6.251   0.569   3.899 -1.0123 -0.9858  2.0018
15802TIP3   OH268896   1.240   0.184  15.200  0.0750  0.4754  0.1167
15802TIP3    H168897   1.209   0.128  15.271 -0.2428  1.7801  1.0553
15802TIP3    H268898   1.252   0.125  15.126 -2.6418 -0.4543  0.3081
15803TIP3   OH268899   2.047   5.571  11.099 -0.0413  0.2475  0.0808
15803TIP3    H168900   2.078   5.529  11.018  0.4137 -0.6802  0.7152
15803TIP3    H268901   2.126   5.577  11.153 -0.3425  0.8711  0.4476
15804TIP3   OH268902   0.835   6.087  14.470 -0.4904 -0.0217  0.0736
15804TIP3    H168903   0.926   6.109  14.448 -0.2144  0.9654  2.0222
15804TIP3    H268904   0.804   6.036  14.395  1.7011 -0.4882 -0.5754
15805TIP3   OH268905   0.920   1.643   6.071 -0.4952  0.5539 -0.2264
15805TIP3    H168906   0.826   1.647   6.051 -1.3762 -1.6373  2.7390
15805TIP3    H268907   0.932   1.703   6.144  0.3358  0.4788 -0.2924
15806TIP3   OH268908   3.300   2.944   3.899 -0.6377 -0.3622 -0.6215
15806TIP3    H168909   3.356   2.981   3.967  0.2607 -2.2111 -0.2695
15806TIP3    H268910   3.345   2.962   3.817 -1.3417  1.2121 -0.6917
15807TIP3   OH268911   6.576   2.688  17.596 -0.3995 -0.1346  0.0801
15807TIP3    H168912   6.508   2.723  17.654  0.2604 -0.4600  1.0674
15807TIP3    H268913   6.571   2.744  17.518 -2.8013 -1.0663 -0.5239
15808TIP3   OH268914   5.706   4.719  15.019  0.2770 -0.4370 -0.0940
15808TIP3    H168915   5.651   4.686  14.949  0.2276  1.3551 -0.9725
15808TIP3    H268916   5.786   4.667  15.014 -0.5291 -1.7103 -0.1081
15809TIP3   OH268917   5.028   3.589  15.930 -0.6482 -0.2436  0.5658
15809TIP3    H168918   4.942   3.589  15.889  0.1694 -0.1284 -1.2271
15809TIP3    H268919   5.056   3.497  15.927 -0.4889 -0.1991  0.6840
15810TIP3   OH268920   4.815   1.148  14.021 -0.0923  0.5022  0.3113
15810TIP3    H168921   4.743   1.108  14.069  0.1847  1.2106  1.3543
15810TIP3    H268922   4.864   1.074  13.985 -1.6100  0.0241 -0.8604
15811TIP3   OH268923   1.553   2.358  12.155 -0.8246 -0.4262  0.1496
15811TIP3    H168924   1.620   2.360  12.223 -1.5649  0.7415  0.8720
15811TIP3    H268925   1.524   2.266  12.152  1.5065 -1.1929 -0.9195
15812TIP3   OH268926   1.450   0.414  17.494  0.4763 -0.0976 -0.2064
15812TIP3    H168927   1.468   0.459  17.576  0.8495  1.0871 -0.9056
15812TIP3    H268928   1.435   0.485  17.431 -0.8661 -0.9862 -0.9328
15813TIP3   OH268929   4.818   6.369   6.158 -0.1533  0.3052  0.4258
15813TIP3    H168930   4.764   6.430   6.108  0.2387  1.0293  0.8698
15813TIP3    H268931   4.856   6.311   6.092  0.1263  1.0654 -0.0913
15814TIP3   OH268932   5.655   4.169   3.457  0.0750 -0.3786 -0.2921
15814TIP3    H168933   5.614   4.085   3.479 -0.3830 -0.1725 -0.3610
15814TIP3    H268934   5.718   4.147   3.388  0.1908 -0.7178 -0.0860
15815TIP3   OH268935   3.799   5.096  12.476  0.7840 -0.6506  0.0703
15815TIP3    H168936   3.878   5.052  12.443  0.5513 -0.2316 -1.1126
15815TIP3    H268937   3.769   5.040  12.548  1.1651 -1.7870 -0.6127
15816TIP3   OH268938   6.119   5.157   0.919  0.1818 -0.5794  0.4280
15816TIP3    H168939   6.024   5.155   0.926 -0.0608  2.3357 -0.6846
15816TIP3    H268940   6.136   5.157   0.825  1.2541 -0.3350  0.6145
15817TIP3   OH268941   6.546   5.144  13.529  0.2772 -0.1728  0.5772
15817TIP3    H168942   6.598   5.179  13.457 -1.6725 -0.1319 -0.8853
15817TIP3    H268943   6.550   5.212  13.597  1.0425  0.3950 -0.0212
15818TIP3   OH268944   0.264   4.963  16.774 -0.2561  0.1721  0.1640
15818TIP3    H168945   0.238   4.892  16.832 -0.1508  0.7695  0.9674
15818TIP3    H268946   0.349   4.936  16.739 -0.5485 -0.4141 -0.1141
15819TIP3   OH268947   4.840   6.662   1.867 -0.8454  0.4609 -0.2492
15819TIP3    H168948   4.768   6.620   1.820  0.9281 -3.1607 -0.0292
15819TIP3    H268949   4.906   6.680   1.799 -0.0314 -0.7991  0.1692
15820TIP3   OH268950   3.449   1.561  17.531 -0.5860 -0.2677  0.4977
15820TIP3    H168951   3.387   1.556  17.457 -0.3145 -0.6797  0.2923
15820TIP3    H268952   3.424   1.640  17.578  0.0297  0.7201 -0.7605
15821TIP3   OH268953   2.597   2.378   1.941 -0.2725 -0.0299 -0.5230
15821TIP3    H168954   2.562   2.319   1.875 -0.9961 -0.7578  0.4756
15821TIP3    H268955   2.554   2.462   1.923 -2.0955 -0.7351  0.2541
15822TIP3   OH268956   1.360   0.952   2.809 -0.0233 -0.3436  0.4370
15822TIP3    H168957   1.328   0.906   2.731  0.3156  0.0183  0.0815
15822TIP3    H268958   1.408   0.885   2.857  0.3877 -0.3886 -0.0306
15823TIP3   OH268959   4.241   3.706  15.908  0.0367  0.0671  0.1440
15823TIP3    H168960   4.146   3.697  15.901  0.1401 -2.9532  1.1213
15823TIP3    H268961   4.257   3.800  15.902 -3.2868  0.9695  2.6254
15824TIP3   OH268962   5.312   4.116   3.201  0.0082 -0.8330  0.4225
15824TIP3    H168963   5.259   4.196   3.201  0.6534 -0.3908  0.9519
15824TIP3    H268964   5.378   4.131   3.133  0.8136 -0.4236  1.2627
15825TIP3   OH268965   4.612   1.466   4.205 -0.3457 -0.1388 -0.0777
15825TIP3    H168966   4.690   1.485   4.153 -0.0203  2.6401  1.2226
15825TIP3    H268967   4.643   1.411   4.277 -0.0656 -0.9149 -0.7830
15826TIP3   OH268968   2.774   0.995   1.840 -0.3775 -0.3109  0.1101
15826TIP3    H168969   2.856   0.963   1.877 -0.0518  0.1949 -0.1550
15826TIP3    H268970   2.767   0.953   1.755 -1.3317 -1.7952  0.8721
15827TIP3   OH268971   0.010   3.240   0.668  0.1291  0.5851 -0.4321
15827TIP3    H168972   0.094   3.219   0.710 -0.3732  0.8088  0.7447
15827TIP3    H268973   0.023   3.218   0.576  1.0027 -0.7739 -0.0214
15828TIP3   OH268974   4.144   5.126   0.439  0.5752  0.0194  0.5528
15828TIP3    H168975   4.083   5.081   0.381 -1.0653  2.3543  0.3362
15828TIP3    H268976   4.210   5.162   0.380  0.9899 -0.7090  0.5612
15829TIP3   OH268977   5.758   0.890  13.739  0.3726 -1.0954  0.1010
15829TIP3    H168978   5.785   0.820  13.680  1.5944  0.7364 -1.6588
15829TIP3    H268979   5.836   0.910  13.791 -0.1951 -1.5166  1.1631
15830TIP3   OH268980   0.130   4.651   3.750  0.4997 -0.5588  0.5582
15830TIP3    H168981   0.193   4.635   3.821  1.0249 -1.3917 -0.0737
15830TIP3    H268982   0.117   4.566   3.710 -0.8976 -0.3577  0.5389
15831TIP3   OH268983   4.506   2.250  12.329 -0.3417 -0.1489 -1.0817
15831TIP3    H168984   4.435   2.306  12.297  0.0651  0.0846 -1.5980
15831TIP3    H268985   4.465   2.194  12.395 -0.9252  0.2258 -1.1210
15832TIP3   OH268986   2.236   0.225   1.412 -0.3559  0.0365  0.4814
15832TIP3    H168987   2.198   0.312   1.424  1.6061  1.1604 -0.8967
15832TIP3    H268988   2.270   0.226   1.323  1.7402 -1.3159  1.1919
15833TIP3   OH268989   0.192   2.843   1.374 -0.3367 -1.0257 -0.0161
15833TIP3    H168990   0.114   2.796   1.405 -0.7079  0.7319  1.9518
15833TIP3    H268991   0.219   2.896   1.449  0.7558  0.9723 -1.7256
15834TIP3   OH268992   3.457   1.149   0.995  0.1354  0.7065  0.3034
15834TIP3    H168993   3.441   1.243   0.998 -0.2520  0.6676 -0.3025
15834TIP3    H268994   3.506   1.136   0.914  0.5071  0.4260  0.5688
15835TIP3   OH268995   6.656   5.807  16.923  0.1146  0.1815 -0.0929
15835TIP3    H168996   6.724   5.806  16.990 -1.3280 -0.6930  1.4540
15835TIP3    H268997   6.599   5.879  16.947 -1.5066 -1.3283  0.8676
15836TIP3   OH268998   1.375   3.683   6.195 -0.0450  0.2389 -0.3753
15836TIP3    H168999   1.437   3.731   6.250  0.4424 -1.2030  0.3852
15836TIP3    H269000   1.409   3.593   6.193  0.0095  0.2206 -3.1070
15837TIP3   OH269001   2.615   6.356  17.053  0.5884  0.2907 -0.6676
15837TIP3    H169002   2.577   6.282  17.007  2.1594 -0.8024 -0.2865
15837TIP3    H269003   2.650   6.319  17.134  1.2997  1.4635 -0.4156
15838TIP3   OH269004   0.841   1.606   2.542  0.6868  0.0632 -0.3247
15838TIP3    H169005   0.756   1.578   2.574  1.1822 -0.5528  0.5044
15838TIP3    H269006   0.879   1.657   2.614  0.7424  0.9278 -0.9487
15839TIP3   OH269007   3.069   4.758   2.946  0.5275 -0.3813  0.1138
15839TIP3    H169008   3.101   4.844   2.975 -0.0041 -0.6796  1.7142
15839TIP3    H269009   2.977   4.773   2.923 -0.0025 -0.7485  1.8035
15840TIP3   OH269010   1.113   3.767  13.034  0.3227 -0.1019 -0.2145
15840TIP3    H169011   1.113   3.834  13.102  0.3144 -1.1979  0.9093
15840TIP3    H269012   1.198   3.775  12.991  0.5173  0.3044  0.2408
15841TIP3   OH269013   5.305   5.637   0.256 -0.1502 -0.5032 -0.3422
15841TIP3    H169014   5.362   5.602   0.325 -0.4435 -0.2905  0.0140
15841TIP3    H269015   5.227   5.666   0.303 -0.8396 -1.3989 -0.9115
15842TIP3   OH269016   2.516   5.353  13.059  0.1547 -0.0666  0.6356
15842TIP3    H169017   2.603   5.320  13.036  1.1722  0.2270  3.7152
15842TIP3    H269018   2.493   5.409  12.985  2.5938 -0.1014 -0.2680
15843TIP3   OH269019   3.768   1.050   2.216  0.0314  0.3494  0.1050
15843TIP3    H169020   3.736   1.109   2.285 -0.2037  0.2250  0.1033
15843TIP3    H269021   3.846   1.094   2.182 -0.7012  1.1704 -0.5778
15844TIP3   OH269022   1.809   3.935   6.519 -0.5833 -0.4619  0.0780
15844TIP3    H169023   1.814   3.839   6.520 -1.9664 -0.5606  1.6200
15844TIP3    H269024   1.834   3.961   6.608 -0.8441  0.5593 -0.1415
15845TIP3   OH269025   1.644   0.332  14.426  0.1052  0.2332  0.3097
15845TIP3    H169026   1.621   0.406  14.371 -2.2803 -1.8573 -1.8162
15845TIP3    H269027   1.599   0.349  14.509 -1.1983  0.7537 -0.4742
15846TIP3   OH269028   2.946   2.275  14.803  0.4060 -0.1272 -0.3700
15846TIP3    H169029   2.915   2.196  14.760  1.6349 -1.5415  1.2380
15846TIP3    H269030   3.038   2.282  14.780 -0.0788  2.0001 -2.0847
15847TIP3   OH269031   3.023   0.391  15.286  0.8813 -0.3277 -0.5304
15847TIP3    H169032   2.950   0.347  15.243  0.5995  0.5945 -1.0225
15847TIP3    H269033   3.101   0.352  15.248  0.6312 -0.2227 -1.1556
15848TIP3   OH269034   1.234   4.944   4.182  0.4310  0.1560 -0.1480
15848TIP3    H169035   1.263   4.948   4.091  0.4209  1.3350 -0.1160
15848TIP3    H269036   1.315   4.955   4.233  0.2702  0.8658 -0.0358
15849TIP3   OH269037   3.553   2.926   5.059 -0.7631 -0.0866  0.1087
15849TIP3    H169038   3.488   2.988   5.093 -1.0898 -0.2543 -0.2039
15849TIP3    H269039   3.602   2.976   4.993  0.3408  0.4572  1.2856
15850TIP3   OH269040   1.619   2.470   3.762 -0.0496  0.2954  0.5290
15850TIP3    H169041   1.665   2.527   3.701  1.0167  0.1338  1.1575
15850TIP3    H269042   1.689   2.422   3.807 -0.8770 -0.6515  0.8391
15851TIP3   OH269043   3.654   5.042   1.691  0.1497  0.4218 -1.1847
15851TIP3    H169044   3.670   5.022   1.599 -2.0439  1.2804 -1.8206
15851TIP3    H269045   3.605   5.124   1.690  0.3063  0.5918  0.7773
15852TIP3   OH269046   1.333   1.554   3.266  0.0457  0.8004 -0.2253
15852TIP3    H169047   1.258   1.516   3.220 -0.6810  0.9790  0.7762
15852TIP3    H269048   1.375   1.480   3.309  0.9874  0.5675 -1.5111
15853TIP3   OH269049   2.149   3.797   2.188 -0.0788  0.4046 -0.2073
15853TIP3    H169050   2.204   3.725   2.156 -0.0272  1.0384 -1.6342
15853TIP3    H269051   2.146   3.859   2.115 -0.6979  1.5281  0.7371
15854TIP3   OH269052   2.961   2.651  14.791  0.1914 -0.1069  0.2254
15854TIP3    H169053   2.903   2.660  14.867 -1.6374 -0.7231 -1.0148
15854TIP3    H269054   2.904   2.617  14.721  1.5180  1.5185 -1.7613
15855TIP3   OH269055   5.156   5.527  13.951 -0.3638 -0.3777 -0.2672
15855TIP3    H169056   5.080   5.577  13.920 -0.8239  0.5026  2.0201
15855TIP3    H269057   5.171   5.560  14.040  1.2429 -2.2088  0.2099
15856TIP3   OH269058   3.020   5.938   1.468  0.4826  0.0707 -0.1943
15856TIP3    H169059   3.010   5.986   1.386  0.1373 -0.0767 -0.2391
15856TIP3    H269060   3.051   5.851   1.442 -1.0108 -0.4623 -0.2952
15857TIP3   OH269061   5.557   6.406   2.423 -0.4226  0.6952  0.0351
15857TIP3    H169062   5.607   6.331   2.391 -1.5337 -0.9157  1.8448
15857TIP3    H269063   5.608   6.482   2.397  1.6637 -0.7520 -0.3507
15858TIP3   OH269064   3.557   3.962   7.038 -0.5669 -0.6995  0.0198
15858TIP3    H169065   3.630   3.982   7.096  0.8513 -2.4177 -1.0549
15858TIP3    H269066   3.489   3.928   7.095 -0.8254  1.5396  1.1243
15859TIP3   OH269067   4.212   3.962  14.219  0.3272 -0.5583 -0.3448
15859TIP3    H169068   4.121   3.972  14.189 -0.0917 -1.8600  0.4030
15859TIP3    H269069   4.264   4.008  14.153 -0.8544 -0.0867 -0.9768
15860TIP3   OH269070   0.696   5.194   6.828 -0.1288  0.1557 -0.2396
15860TIP3    H169071   0.719   5.279   6.790  0.7283  0.2130  0.3907
15860TIP3    H269072   0.776   5.142   6.822 -0.2769 -0.1749  0.5567
15861TIP3   OH269073   6.426   5.121  17.331  0.7254  0.1601 -0.0783
15861TIP3    H169074   6.494   5.099  17.394 -2.0072 -0.7296  2.8047
15861TIP3    H269075   6.397   5.036  17.297  0.8564  0.5126 -1.1039
15862TIP3   OH269076   0.182   5.588  16.271 -0.1241  0.3040  0.4065
15862TIP3    H169077   0.144   5.610  16.186  0.2371 -0.2385  0.1000
15862TIP3    H269078   0.111   5.543  16.318  0.0248 -0.3918 -0.0316
15863TIP3   OH269079   2.978   4.536  17.349  0.1483  0.0401  0.4396
15863TIP3    H169080   3.054   4.557  17.294 -0.3874  0.0818 -0.2906
15863TIP3    H269081   3.007   4.463  17.403  0.2569 -0.8853 -0.8369
15864TIP3   OH269082   5.698   5.916   1.610 -0.2718  0.1798  0.0646
15864TIP3    H169083   5.699   5.991   1.669  1.9369 -1.1993  1.8962
15864TIP3    H269084   5.778   5.925   1.558 -0.7934 -0.1173 -0.8143
15865TIP3   OH269085   2.061   1.835  14.888 -0.0454  0.0777 -0.1897
15865TIP3    H169086   2.140   1.869  14.928 -0.6386  0.8761  0.3171
15865TIP3    H269087   1.990   1.888  14.924 -0.6816  0.2742 -1.6512
15866TIP3   OH269088   3.602   2.137  14.340 -0.0523 -0.0300 -0.0276
15866TIP3    H169089   3.598   2.059  14.396 -0.7439  0.0093 -0.0190
15866TIP3    H269090   3.515   2.175  14.345  0.6385  1.5218  1.0619
15867TIP3   OH269091   4.358   4.160  16.429 -0.1013 -0.3793 -0.4075
15867TIP3    H169092   4.285   4.133  16.486  1.4327 -0.7479  1.4743
15867TIP3    H269093   4.321   4.231  16.377 -1.9552 -0.8662  0.1423
15868TIP3   OH269094   4.389   4.543   6.392 -0.0260  0.5017 -0.1927
15868TIP3    H169095   4.444   4.485   6.444 -0.4601 -0.2321 -0.5435
15868TIP3    H269096   4.308   4.494   6.377 -0.1815  0.9685 -0.9699
15869TIP3   OH269097   5.500   3.948   1.052 -0.3935 -0.6051 -0.0850
15869TIP3    H169098   5.588   3.978   1.032 -0.0104 -0.3673  1.8179
15869TIP3    H269099   5.498   3.939   1.147 -1.3686 -3.9173 -0.2990
15870TIP3   OH269100   6.224   1.610  14.033  0.3460  0.3712  0.3406
15870TIP3    H169101   6.225   1.564  13.950 -0.4070 -0.1425  0.6070
15870TIP3    H269102   6.271   1.692  14.016  2.3264 -0.7588  0.0345
15871TIP3   OH269103   0.924   5.482  11.467  0.1698  0.1654  0.2291
15871TIP3    H169104   0.982   5.414  11.434 -0.3282 -0.2633  0.2270
15871TIP3    H269105   0.906   5.537  11.392 -1.0112 -0.8421 -0.2491
15872TIP3   OH269106   4.936   1.593  13.370 -0.0186 -0.1024 -0.7541
15872TIP3    H169107   4.966   1.682  13.355 -1.0280  0.0020 -2.3968
15872TIP3    H269108   4.899   1.594  13.458 -0.2745  1.1845 -0.8560
15873TIP3   OH269109   2.380   3.303   6.047  0.0243  0.8981 -0.4526
15873TIP3    H169110   2.314   3.239   6.074  1.0322 -0.3749 -0.8791
15873TIP3    H269111   2.391   3.360   6.123 -2.7063  2.1738 -0.9154
15874TIP3   OH269112   3.038   1.150   3.532 -0.1575 -0.1043 -0.6667
15874TIP3    H169113   3.106   1.184   3.473 -0.5844  1.3801 -0.3567
15874TIP3    H269114   2.969   1.118   3.474 -1.3724  2.9502 -1.1131
15875TIP3   OH269115   2.070   4.255   6.580  0.1510  0.4934  0.5275
15875TIP3    H169116   2.152   4.269   6.531  0.3526  0.1014  0.7432
15875TIP3    H269117   2.071   4.161   6.600  1.1692  0.9759  3.1912
15876TIP3   OH269118   1.716   5.067   2.690  0.7278  0.2686  0.2382
15876TIP3    H169119   1.666   4.991   2.719  1.9140 -0.1703  1.2111
15876TIP3    H269120   1.783   5.031   2.632  1.8011  0.4336  1.3319
15877TIP3   OH269121   3.984   5.129   4.344  0.1600 -0.1631  0.4595
15877TIP3    H169122   3.989   5.071   4.268 -0.3597  0.7066 -0.2538
15877TIP3    H269123   3.895   5.118   4.376 -0.6410  1.7372 -0.9304
15878TIP3   OH269124   6.481   1.549  11.860  0.3788  0.1503 -0.1104
15878TIP3    H169125   6.443   1.627  11.902 -0.2279  1.0032 -2.1049
15878TIP3    H269126   6.470   1.479  11.924 -3.0991  0.7323  0.1286
15879TIP3   OH269127   1.849   5.661  13.742  0.0627  0.3057  0.0686
15879TIP3    H169128   1.796   5.622  13.673  0.2056  0.6869 -0.2597
15879TIP3    H269129   1.787   5.687  13.809 -0.1684  0.7761 -0.3266
15880TIP3   OH269130   4.850   6.351  12.981 -0.0266  0.1010 -0.1064
15880TIP3    H169131   4.921   6.399  12.937 -1.3499  0.8882 -1.4541
15880TIP3    H269132   4.831   6.278  12.923 -3.1496  2.2534 -2.0746
15881TIP3   OH269133   4.374   3.253   2.479  0.2899  0.0855 -0.5329
15881TIP3    H169134   4.447   3.242   2.418 -0.7927 -0.8546 -1.6973
15881TIP3    H269135   4.400   3.327   2.534  1.7816  0.2462 -1.3998
15882TIP3   OH269136   1.431   5.840   3.656 -0.2259 -0.3798  0.1660
15882TIP3    H169137   1.449   5.860   3.748  0.8064 -1.2368  0.1762
15882TIP3    H269138   1.336   5.840   3.649 -0.3072  0.1460  1.1296
15883TIP3   OH269139   5.157   0.520   0.989  0.1808 -0.3987  0.7729
15883TIP3    H169140   5.071   0.523   1.031 -0.6606  0.3291 -0.8911
15883TIP3    H269141   5.181   0.611   0.977 -0.1095 -0.5429 -1.2089
15884TIP3   OH269142   3.549   0.107  15.226 -0.4158  0.0537 -0.4717
15884TIP3    H169143   3.563   0.086  15.319  0.1213 -1.2959 -0.8231
15884TIP3    H269144   3.531   0.022  15.186 -1.1284  0.6888 -1.5271
15885TIP3   OH269145   2.957   2.294  12.901 -0.6130 -0.4123 -0.1380
15885TIP3    H169146   3.023   2.274  12.835  1.0247  0.0301  1.2921
15885TIP3    H269147   2.953   2.390  12.903 -1.0538 -0.4305  0.0323
15886TIP3   OH269148   2.237   4.298  13.790 -0.3087 -0.0581  0.1978
15886TIP3    H169149   2.271   4.210  13.777  0.7117  0.3741 -0.1385
15886TIP3    H269150   2.177   4.290  13.864  3.8513 -0.0643  3.9392
15887TIP3   OH269151   0.211   2.551  14.316  0.7386 -0.0046 -0.1494
15887TIP3    H169152   0.157   2.475  14.338  0.6952 -0.4333 -1.6142
15887TIP3    H269153   0.297   2.513  14.295  0.7487  0.3532 -0.7753
15888TIP3   OH269154   4.830   0.502   4.846  0.0509  0.0036  0.0291
15888TIP3    H169155   4.759   0.514   4.909 -0.1422  1.2927 -0.4148
15888TIP3    H269156   4.818   0.571   4.782  1.4035 -0.0836 -0.3535
15889TIP3   OH269157   5.126   1.066   4.490 -0.3386 -0.1769 -0.8569
15889TIP3    H169158   5.036   1.036   4.503 -0.3166  0.3656  0.8560
15889TIP3    H269159   5.171   0.993   4.449 -1.0465 -1.3053  0.3063
15890TIP3   OH269160   2.161   4.069   3.037 -0.2667 -0.0234  0.3418
15890TIP3    H169161   2.083   4.057   3.090 -0.7135 -0.7453 -0.4604
15890TIP3    H269162   2.142   4.023   2.955  0.9966 -0.2162  0.1378
15891TIP3   OH269163   1.323   0.461  15.300  0.8883 -0.1270  0.0379
15891TIP3    H169164   1.238   0.487  15.335  0.3331 -0.2545 -1.1691
15891TIP3    H269165   1.303   0.395  15.233  1.8891  0.1827 -0.5920
15892TIP3   OH269166   3.187   2.008   5.123  0.2673  0.2282  0.4363
15892TIP3    H169167   3.176   2.056   5.205 -1.1197  0.0656  0.3580
15892TIP3    H269168   3.105   2.022   5.075  0.0707 -1.6731  0.1360
15893TIP3   OH269169   4.696   4.320  14.997 -0.3425 -0.0144  1.0822
15893TIP3    H169170   4.752   4.255  14.954  0.4213 -0.6877  3.0118
15893TIP3    H269171   4.662   4.373  14.925  1.5863 -0.5156 -0.2707
15894TIP3   OH269172   2.034   3.637   1.563 -0.4434  0.7581  0.1754
15894TIP3    H169173   2.096   3.577   1.522 -2.7369 -0.4183 -1.8074
15894TIP3    H269174   2.008   3.594   1.644 -1.1691 -0.4034 -0.6485
15895TIP3   OH269175   0.631   0.354   4.648  0.6064  0.1448  0.1779
15895TIP3    H169176   0.659   0.333   4.559 -0.7238 -0.1455 -0.2025
15895TIP3    H269177   0.590   0.440   4.641  4.3824  2.2812  1.3919
15896TIP3   OH269178   6.644   6.037  17.310 -0.1055  0.2103 -0.0627
15896TIP3    H169179   6.644   6.079  17.223  0.9106  1.3970  0.4737
15896TIP3    H269180   6.674   5.948  17.293 -2.9232 -0.6034 -1.3214
15897TIP3   OH269181   0.781   4.718  15.107  0.4030  0.2368  0.4869
15897TIP3    H169182   0.807   4.801  15.066 -0.3935  0.0748 -0.3862
15897TIP3    H269183   0.836   4.653  15.064 -0.4623  0.0611 -0.3832
15898TIP3   OH269184   6.248   3.746  16.044 -0.1172 -0.6574 -0.3684
15898TIP3    H169185   6.191   3.670  16.052 -1.4165  0.4395  1.5885
15898TIP3    H269186   6.218   3.791  15.965 -1.0294 -0.8417 -0.1365
15899TIP3   OH269187   6.736   6.624   4.866  0.5228  0.0419 -0.0485
15899TIP3    H169188   6.783   6.644   4.785  2.2363  0.4816  0.9785
15899TIP3    H269189   6.721   6.709   4.907 -1.2938 -0.0893 -0.3676
15900TIP3   OH269190   0.464   3.403   5.231  0.0678  0.3085 -0.3329
15900TIP3    H169191   0.502   3.375   5.147 -0.4840  0.6074 -0.6898
15900TIP3    H269192   0.509   3.484   5.252  1.4885 -0.6761  0.5750
15901TIP3   OH269193   5.957   1.561  12.188 -0.2050 -0.5023  0.5043
15901TIP3    H169194   5.972   1.557  12.094 -0.7155 -0.9456  0.4364
15901TIP3    H269195   5.980   1.651  12.212  3.2746 -1.2631  0.5720
15902TIP3   OH269196   3.570   1.174   3.179 -0.7230  0.3622 -0.0366
15902TIP3    H169197   3.527   1.163   3.095 -0.1376  0.9686 -0.4196
15902TIP3    H269198   3.617   1.257   3.172 -0.2877  0.1887  0.7165
15903TIP3   OH269199   4.566   0.127  16.884  0.0083  0.1505 -0.0346
15903TIP3    H169200   4.588   0.210  16.841  2.3703 -0.6956 -0.5885
15903TIP3    H269201   4.587   0.060  16.819 -0.1017 -0.9805  1.0691
15904TIP3   OH269202   6.705   6.629  14.030 -0.1940  0.1252 -0.2251
15904TIP3    H169203   6.709   6.572  13.954 -0.9735 -1.2903  0.7500
15904TIP3    H269204   6.677   6.572  14.101  2.5665  0.9184  1.6354
15905TIP3   OH269205   4.759   1.428  14.033  0.1871 -0.2199 -0.1108
15905TIP3    H169206   4.669   1.403  14.055 -0.5768  0.7208 -1.9675
15905TIP3    H269207   4.808   1.346  14.035 -0.8053 -0.8156  0.5148
15906TIP3   OH269208   1.203   2.249  13.376 -0.3879 -0.1991  0.6271
15906TIP3    H169209   1.246   2.185  13.434 -0.2639  0.3727  1.1762
15906TIP3    H269210   1.116   2.213  13.362 -0.2273 -0.6340  0.6995
15907TIP3   OH269211   4.126   5.723  16.978  0.3608  0.1540 -0.6752
15907TIP3    H169212   4.165   5.795  17.027 -1.7968  0.9800 -0.0319
15907TIP3    H269213   4.084   5.765  16.903  1.4787 -0.8091 -1.8775
15908TIP3   OH269214   1.516   6.176   5.292  0.0513  0.2366  0.0264
15908TIP3    H169215   1.486   6.218   5.372 -0.0225  1.3436 -0.5615
15908TIP3    H269216   1.603   6.212   5.277 -0.0993  0.3461 -0.6135
15909TIP3   OH269217   3.261   1.853   0.909  0.4209 -0.3939 -0.0909
15909TIP3    H169218   3.314   1.879   0.834  0.9847  1.7013  0.9740
15909TIP3    H269219   3.323   1.816   0.972  0.2864 -0.0401  0.2530
15910TIP3   OH269220   3.301   0.078  16.157 -0.6112  0.8958  0.0226
15910TIP3    H169221   3.339   0.026  16.228  1.3437  1.3026 -0.6522
15910TIP3    H269222   3.233   0.131  16.198 -0.3411  0.2455  1.3450
15911TIP3   OH269223   0.525   1.612   4.573  0.2056  0.2944  0.4448
15911TIP3    H169224   0.600   1.629   4.630  0.5294 -1.0130  0.4429
15911TIP3    H269225   0.563   1.577   4.492 -0.3842 -0.2882  0.4091
15912TIP3   OH269226   1.728   5.537   5.596  0.0430  0.5110  0.1201
15912TIP3    H169227   1.719   5.587   5.676  0.5250 -0.5497  0.8694
15912TIP3    H269228   1.639   5.509   5.574  0.0336 -0.1064  0.9084
15913TIP3   OH269229   5.007   2.816  14.553  0.5187  0.2790  0.4309
15913TIP3    H169230   4.954   2.837  14.630 -0.0677 -0.9147  0.3833
15913TIP3    H269231   4.975   2.877  14.485 -0.9073 -0.4871  0.3723
15914TIP3   OH269232   4.779   3.132   2.130  0.4187 -0.6314  0.1549
15914TIP3    H169233   4.828   3.204   2.169 -2.7499  2.2926 -0.7703
15914TIP3    H269234   4.785   3.147   2.036 -1.7178 -0.4042 -0.0051
15915TIP3   OH269235   2.355   1.051  14.758 -0.5144  0.7377  0.3107
15915TIP3    H169236   2.399   1.126  14.717 -0.6463  1.7225  1.8813
15915TIP3    H269237   2.426   1.004  14.803 -0.8082  1.4331  1.5273
15916TIP3   OH269238   6.644   3.379  16.120 -0.3594 -0.0366 -0.1243
15916TIP3    H169239   6.632   3.464  16.077  0.2022  0.0733 -0.0639
15916TIP3    H269240   6.732   3.383  16.157 -0.1780 -0.7984 -0.4604
15917TIP3   OH269241   4.242   3.234  12.873  0.4559  0.3395  0.4683
15917TIP3    H169242   4.258   3.141  12.863  4.0317  0.9611 -1.0192
15917TIP3    H269243   4.262   3.252  12.965  0.6668 -0.2101  0.5340
15918TIP3   OH269244   2.026   4.006   5.462  0.0572  0.3218 -0.9356
15918TIP3    H169245   2.022   3.972   5.373  0.8594 -0.5476 -0.6588
15918TIP3    H269246   2.046   3.929   5.516 -1.8421  0.5304  0.1742
15919TIP3   OH269247   4.972   3.735  16.490  0.0018  0.2866 -0.0056
15919TIP3    H169248   4.888   3.774  16.516 -0.8523 -1.1155 -0.5339
15919TIP3    H269249   4.950   3.680  16.415  1.3838 -0.2046 -0.0712
15920TIP3   OH269250   2.498   5.675   1.294 -0.0869 -0.5540 -0.2868
15920TIP3    H169251   2.424   5.690   1.235  0.0377 -2.5714 -1.0356
15920TIP3    H269252   2.495   5.581   1.313  0.7995 -0.2255  1.7120
15921TIP3   OH269253   2.188   3.275   0.292 -0.7071  0.5959  0.0827
15921TIP3    H169254   2.180   3.194   0.343 -0.1666  0.3242 -0.2537
15921TIP3    H269255   2.169   3.345   0.355 -3.7615  0.1420 -0.1868
15922TIP3   OH269256   2.777   0.225  17.275  0.2328  0.7326 -0.1473
15922TIP3    H169257   2.709   0.218  17.208  0.6563  1.7632 -0.6973
15922TIP3    H269258   2.728   0.227  17.357 -0.3267  0.1409 -0.4545
15923TIP3   OH269259   0.140   3.760  13.806  0.0544  0.1555  0.0454
15923TIP3    H169260   0.046   3.778  13.793 -0.3620 -0.8264  1.4637
15923TIP3    H269261   0.159   3.689  13.745 -0.5237 -0.7005  0.8353
15924TIP3   OH269262   2.516   6.194  16.860  0.0561 -0.1928  0.2824
15924TIP3    H169263   2.607   6.186  16.833  0.0326  0.1862  0.0854
15924TIP3    H269264   2.481   6.105  16.855 -0.0923 -0.0681 -1.4236
15925TIP3   OH269265   5.463   1.233  12.143 -0.2781  0.2087 -0.2351
15925TIP3    H169266   5.458   1.246  12.238 -0.7717  0.3334 -0.2750
15925TIP3    H269267   5.371   1.224  12.115 -0.0470 -2.1236 -0.3962
15926TIP3   OH269268   4.044   5.645   4.690 -0.4354 -0.0321  0.6039
15926TIP3    H169269   4.131   5.636   4.652 -0.5318  2.0553 -0.2420
15926TIP3    H269270   4.044   5.586   4.765  1.9478  0.4415  1.0409
15927TIP3   OH269271   4.969   5.329  13.325 -0.5419 -0.5819  0.0456
15927TIP3    H169272   4.915   5.260  13.363 -0.1211  0.0632  1.9219
15927TIP3    H269273   5.049   5.328  13.378  0.2979  0.0631 -1.1559
15928TIP3   OH269274   6.286   2.233   3.066 -0.1616  0.1027  0.8079
15928TIP3    H169275   6.312   2.325   3.074 -2.7722  0.8516  2.0599
15928TIP3    H269276   6.239   2.229   2.982 -1.0930  0.2574  1.3018
15929TIP3   OH269277   2.267   5.750  10.924 -0.3925 -0.3407  0.1267
15929TIP3    H169278   2.304   5.676  10.973  0.3975  1.1024  1.8229
15929TIP3    H269279   2.232   5.808  10.991 -1.0319  0.8311 -1.1709
15930TIP3   OH269280   0.029   2.037  11.647 -0.5704 -0.0943  0.1276
15930TIP3    H169281   0.043   1.945  11.669  3.3407  0.1467 -0.5289
15930TIP3    H269282   0.033   2.040  11.551 -0.1810  0.7600  0.1573
15931TIP3   OH269283   2.910   4.450   2.598 -0.7331  0.0039  0.3911
15931TIP3    H169284   2.881   4.541   2.587 -0.2183  0.2906  1.3983
15931TIP3    H269285   2.864   4.419   2.676 -1.8656 -1.0163 -0.6228
15932TIP3   OH269286   1.888   5.312   6.210 -0.3428  0.3428 -0.5008
15932TIP3    H169287   1.867   5.344   6.122 -0.1145 -0.1178 -0.7283
15932TIP3    H269288   1.940   5.382   6.249 -2.1115  1.4371  0.0159
15933TIP3   OH269289   6.558   6.531  15.320  0.6010 -0.4800 -0.4859
15933TIP3    H169290   6.526   6.556  15.234 -2.9259  0.4974  0.9404
15933TIP3    H269291   6.543   6.436  15.325  1.0826 -0.5873 -1.0289
15934TIP3   OH269292   6.050   5.822  14.892 -0.0457  0.1874 -0.0102
15934TIP3    H169293   6.135   5.865  14.885  0.0797 -0.0835 -0.1573
15934TIP3    H269294   6.046   5.764  14.816 -0.8562  1.0667 -0.6581
15935TIP3   OH269295   5.728   1.501   3.541 -0.3149  0.7411 -0.2096
15935TIP3    H169296   5.733   1.483   3.447 -1.2158  0.8429 -0.2843
15935TIP3    H269297   5.800   1.563   3.557  0.2964  0.1661 -0.6871
15936TIP3   OH269298   1.958   6.342   4.235 -0.0725 -0.2344  0.3007
15936TIP3    H169299   1.894   6.312   4.300 -1.9463 -1.2853 -1.8743
15936TIP3    H269300   1.922   6.312   4.151  1.5574  2.1492 -1.3682
15937TIP3   OH269301   2.496   1.853  12.724 -0.9156 -0.2889 -0.0955
15937TIP3    H169302   2.526   1.944  12.726 -1.0256 -0.2566  1.0183
15937TIP3    H269303   2.469   1.835  12.814 -0.3757 -1.6082 -0.1759
15938TIP3   OH269304   1.501   1.202   6.314 -0.4771 -0.0278  0.2175
15938TIP3    H169305   1.561   1.130   6.298 -0.9133 -0.1833 -0.8004
15938TIP3    H269306   1.523   1.268   6.248 -1.4634 -0.1217 -0.2288
15939TIP3   OH269307   0.157   4.866  13.668 -0.5964  0.7468  0.1386
15939TIP3    H169308   0.107   4.838  13.592  0.2444  0.7646 -0.4411
15939TIP3    H269309   0.142   4.798  13.733 -0.7965  0.3844 -0.2807
15940TIP3   OH269310   3.661   5.965   1.068 -0.3723 -0.4210  0.3965
15940TIP3    H169311   3.693   5.986   0.980  1.2921  0.3925  1.1417
15940TIP3    H269312   3.649   6.050   1.110 -1.5562 -0.7906  0.8532
15941TIP3   OH269313   3.441   2.705   2.429 -0.3610 -0.0750 -0.0074
15941TIP3    H169314   3.500   2.704   2.354  1.3946  0.5814  1.2989
15941TIP3    H269315   3.460   2.623   2.476 -1.1860 -0.3140 -0.0708
15942TIP3   OH269316   2.847   0.568   5.493 -0.1308  0.1596  0.0460
15942TIP3    H169317   2.936   0.538   5.474 -0.0055  0.8439 -0.4781
15942TIP3    H269318   2.791   0.503   5.451  0.1346  0.4070 -0.7124
15943TIP3   OH269319   5.348   3.809   1.778 -0.5420  0.2328  0.1816
15943TIP3    H169320   5.335   3.759   1.859  0.0697 -0.6581 -0.2518
15943TIP3    H269321   5.353   3.742   1.709 -0.1853  0.9219 -0.4766
15944TIP3   OH269322   0.645   0.165   5.892 -0.6031  0.1463 -0.4911
15944TIP3    H169323   0.551   0.180   5.880 -1.1798 -2.1638  0.6833
15944TIP3    H269324   0.654   0.070   5.899  1.8704  0.2904 -0.7859
15945TIP3   OH269325   4.414   0.596   4.017 -0.5011  0.8386  0.3090
15945TIP3    H169326   4.348   0.566   3.955 -1.1795  2.1293  0.3636
15945TIP3    H269327   4.398   0.544   4.096 -0.1986 -0.1917 -0.2884
15946TIP3   OH269328   0.619   0.982   4.067 -0.1227 -0.8326 -0.0767
15946TIP3    H169329   0.609   0.986   3.972 -1.0678 -0.3153  0.0251
15946TIP3    H269330   0.651   1.069   4.091  1.1292 -1.3029 -0.0201
15947TIP3   OH269331   2.484   2.914   3.895 -0.0273  0.1685 -0.6497
15947TIP3    H169332   2.534   2.864   3.831 -0.3683 -0.2665 -0.5804
15947TIP3    H269333   2.508   3.005   3.878  0.3175  0.0139 -1.0183
15948TIP3   OH269334   3.977   3.594  11.959 -0.0513 -0.1374 -0.1938
15948TIP3    H169335   3.974   3.600  11.863 -2.3996 -1.4322 -0.2550
15948TIP3    H269336   4.054   3.540  11.977  1.2591  1.2836 -1.2141
15949TIP3   OH269337   3.594   0.606   6.257  0.5132  0.3105  0.6591
15949TIP3    H169338   3.524   0.574   6.199 -0.5071  1.6882  1.1023
15949TIP3    H269339   3.670   0.614   6.199 -0.7046  2.5159 -0.7658
15950TIP3   OH269340   3.847   5.360  13.412  0.3667  0.4342  0.6725
15950TIP3    H169341   3.797   5.295  13.461  0.9133  0.5250  1.3633
15950TIP3    H269342   3.813   5.354  13.322 -0.2759 -0.1008  0.9447
15951TIP3   OH269343   2.994   2.361   0.919  0.1837 -0.1922  0.6714
15951TIP3    H169344   2.912   2.410   0.920  0.6536  0.6235  0.2455
15951TIP3    H269345   2.972   2.279   0.875  0.1586  1.0924 -1.9163
15952TIP3   OH269346   4.614   0.082  12.266  0.4596  0.4722  0.6508
15952TIP3    H169347   4.616   0.122  12.179 -0.7615  0.5046  0.6163
15952TIP3    H269348   4.575  -0.004  12.252  0.6968  0.2906  1.0954
15953TIP3   OH269349   2.814   4.611  16.201 -0.4254 -0.1796 -0.3776
15953TIP3    H169350   2.813   4.601  16.105 -0.3308 -0.0990 -0.3861
15953TIP3    H269351   2.900   4.579  16.227  0.2004  1.3490 -0.4749
15954TIP3   OH269352   3.743   6.068  13.819  0.1698 -0.1014 -0.1840
15954TIP3    H169353   3.726   6.149  13.868 -2.1268 -1.3527  1.2626
15954TIP3    H269354   3.740   5.999  13.886  2.5897 -1.3924 -1.2934
15955TIP3   OH269355   0.005   0.958   2.194 -0.0287  0.5300 -0.3827
15955TIP3    H169356   0.054   1.028   2.151  0.3606 -0.0854 -0.9682
15955TIP3    H269357  -0.028   0.904   2.122 -0.7338  0.3806  0.0420
15956TIP3   OH269358   3.808   0.470   4.265 -0.1492 -0.6553 -0.0786
15956TIP3    H169359   3.754   0.534   4.220  0.8643  0.4018  0.1500
15956TIP3    H269360   3.886   0.460   4.210  0.3988 -0.5179  0.6513
15957TIP3   OH269361   0.402   3.705   5.282  0.2082 -0.2299 -0.0665
15957TIP3    H169362   0.390   3.611   5.298  0.0417  0.0788  1.9426
15957TIP3    H269363   0.326   3.746   5.323 -0.0910  0.7638 -1.5409
15958TIP3   OH269364   6.282   3.864  16.388 -0.3040  0.4443  0.4692
15958TIP3    H169365   6.341   3.789  16.394  0.0184  0.5408 -0.9941
15958TIP3    H269366   6.332   3.937  16.425  0.6688  0.5923 -1.0428
15959TIP3   OH269367   1.033   5.413  15.205 -0.1348 -0.0040 -0.0299
15959TIP3    H169368   1.107   5.371  15.161 -1.3983 -3.0091  0.4439
15959TIP3    H269369   0.956   5.365  15.173 -1.4409  0.0423  2.7454
15960TIP3   OH269370   1.938   6.059   2.498 -0.0729  0.3799 -0.5112
15960TIP3    H169371   2.021   6.015   2.519 -0.2880 -0.6096 -1.6193
15960TIP3    H269372   1.953   6.150   2.521  0.9659  0.0246  0.2950
15961TIP3   OH269373   5.065   1.152   1.943  0.5196 -0.5048 -0.5768
15961TIP3    H169374   5.090   1.143   2.035 -0.7034 -2.8484 -0.3934
15961TIP3    H269375   4.999   1.084   1.929  0.4144  0.0084 -3.1189
15962TIP3   OH269376   2.084   1.695  13.168  0.0634  0.0155  0.4863
15962TIP3    H169377   2.040   1.761  13.116  0.2093 -0.2778 -0.0163
15962TIP3    H269378   2.014   1.651  13.217 -0.3103 -0.9533 -0.8713
15963TIP3   OH269379   6.410   0.460  15.271  0.8096  0.2928  0.4409
15963TIP3    H169380   6.437   0.404  15.344 -0.5461 -0.9263  0.0690
15963TIP3    H269381   6.315   0.465  15.279  0.6960  0.6315 -0.8815
15964TIP3   OH269382   0.158   1.195   2.429 -0.0470 -0.0974  0.2173
15964TIP3    H169383   0.115   1.212   2.513  1.1201 -0.7884  0.9795
15964TIP3    H269384   0.147   1.276   2.380 -0.1702  0.5534  1.2925
15965TIP3   OH269385   3.114   1.810  15.593  0.1220  0.1703  0.0659
15965TIP3    H169386   3.104   1.781  15.683 -2.6842 -1.3748 -0.6136
15965TIP3    H269387   3.090   1.903  15.595 -1.0395 -0.1306  0.7762
15966TIP3   OH269388   4.164   0.620  15.736 -0.3407 -0.2494  0.0480
15966TIP3    H169389   4.074   0.602  15.762 -0.5493  1.3057  0.5114
15966TIP3    H269390   4.214   0.544  15.767 -1.6624 -1.8261 -1.4942
15967TIP3   OH269391   4.844   6.288  13.784  0.0090  0.4667  0.7253
15967TIP3    H169392   4.768   6.342  13.759 -0.2549  0.5321  1.6323
15967TIP3    H269393   4.919   6.334  13.746 -0.4646 -0.0830 -0.9684
15968TIP3   OH269394   0.335   4.995  16.489  0.7983  0.5160 -0.3231
15968TIP3    H169395   0.355   5.089  16.498  0.9595  0.6649 -1.8560
15968TIP3    H269396   0.273   4.976  16.559  0.2812  1.9232 -0.3707
15969TIP3   OH269397   4.432   5.443  16.965 -0.3047  0.4978 -0.1664
15969TIP3    H169398   4.459   5.517  17.020 -0.2215 -0.1622  0.6992
15969TIP3    H269399   4.337   5.452  16.959 -0.1868  1.3273 -1.0362
15970TIP3   OH269400   2.145   2.718  13.621 -0.2672 -0.1811 -0.2690
15970TIP3    H169401   2.137   2.755  13.533  0.6136 -0.6706 -0.5618
15970TIP3    H269402   2.134   2.624  13.609  0.0131 -0.2670  0.1294
15971TIP3   OH269403   4.015   4.541  14.321  0.1888 -0.0642  0.0014
15971TIP3    H169404   4.081   4.602  14.355 -0.2258  0.7005 -0.5319
15971TIP3    H269405   3.944   4.597  14.292 -0.7308 -0.8913  0.6148
15972TIP3   OH269406   4.936   6.527  17.237 -0.0616 -0.4635 -1.2676
15972TIP3    H169407   4.976   6.455  17.188  0.2450 -1.5655  0.5370
15972TIP3    H269408   4.842   6.510  17.231  0.0147 -1.0972 -0.7345
15973TIP3   OH269409   4.181   4.808  13.112 -0.4555  0.0860  0.4412
15973TIP3    H169410   4.237   4.877  13.075  0.8663 -1.6573 -1.0206
15973TIP3    H269411   4.104   4.807  13.056  0.4840 -0.9742 -0.8995
15974TIP3   OH269412   2.293   0.755  11.624 -0.4567 -0.1347 -0.5006
15974TIP3    H169413   2.273   0.720  11.710  0.0975  1.5151  0.3309
15974TIP3    H269414   2.207   0.772  11.584 -0.7209  0.1329  0.1718
15975TIP3   OH269415   1.562   6.377   3.041 -0.0756 -0.1891  0.2723
15975TIP3    H169416   1.641   6.430   3.050 -0.9412  1.2341 -0.2768
15975TIP3    H269417   1.577   6.302   3.099  1.1334  0.6870  1.1291
15976TIP3   OH269418   3.241   4.899   4.324  0.6292 -0.1136  0.1047
15976TIP3    H169419   3.188   4.845   4.383 -0.1520 -0.6907 -1.0866
15976TIP3    H269420   3.270   4.973   4.378 -1.2442  0.1235  0.8445
15977TIP3   OH269421   3.507   0.819   5.925  0.2370 -1.1818  0.2869
15977TIP3    H169422   3.544   0.731   5.932 -0.4975 -1.3796  2.2908
15977TIP3    H269423   3.450   0.815   5.849  0.5710 -2.2985  0.0744
15978TIP3   OH269424   4.897   2.194   4.946 -0.3596  0.0902  0.2890
15978TIP3    H169425   4.853   2.129   4.892  2.0721  0.5553 -2.5081
15978TIP3    H269426   4.839   2.270   4.946 -1.6418 -0.8644  0.6920
15979TIP3   OH269427   1.619   4.704  11.998  0.0674  0.0809 -0.0483
15979TIP3    H169428   1.671   4.747  11.930  1.0602 -1.5064 -0.3280
15979TIP3    H269429   1.666   4.624  12.018  0.3177  0.9110  3.2162
15980TIP3   OH269430   1.175   2.676   2.591  0.1096 -0.1079 -0.5713
15980TIP3    H169431   1.143   2.683   2.501 -1.9224 -1.1442  0.0005
15980TIP3    H269432   1.114   2.615   2.633  2.3297 -1.4296  0.9296
15981TIP3   OH269433   2.262   0.295  12.654 -0.2470 -0.2764  0.1263
15981TIP3    H169434   2.308   0.304  12.738 -1.0669  1.6447  0.4130
15981TIP3    H269435   2.328   0.263  12.594  0.8537  0.1389  1.0793
15982TIP3   OH269436   3.339   1.303  11.911  0.1242 -0.7136  0.0710
15982TIP3    H169437   3.258   1.255  11.894 -0.1655 -0.0904 -0.3552
15982TIP3    H269438   3.371   1.327  11.824 -0.5466  1.1564  0.2783
15983TIP3   OH269439   6.499   6.007   5.460 -0.5354  0.1828  0.6879
15983TIP3    H169440   6.518   6.041   5.547  0.4179  3.0764 -0.5163
15983TIP3    H269441   6.585   5.996   5.419 -0.9501  2.6882 -1.1122
15984TIP3   OH269442   1.891   1.303  16.301 -0.6880  0.2649 -0.0284
15984TIP3    H169443   1.910   1.209  16.307  1.4485  0.7097  1.2394
15984TIP3    H269444   1.839   1.321  16.380  0.0864  0.3748  0.4666
15985TIP3   OH269445   3.477   1.887  14.942 -0.7660 -0.1355  0.5072
15985TIP3    H169446   3.503   1.853  15.028 -0.7966 -1.7001 -0.0750
15985TIP3    H269447   3.551   1.940  14.913  0.4944 -1.9278  0.2682
15986TIP3   OH269448   3.397   4.373   5.763  0.0042  0.5871 -0.1809
15986TIP3    H169449   3.329   4.361   5.829 -1.0779  1.2034 -1.1263
15986TIP3    H269450   3.388   4.465   5.736  1.3384  0.7281 -0.2040
15987TIP3   OH269451   4.650   4.915  13.924 -0.1296 -0.3787  0.0273
15987TIP3    H169452   4.572   4.950  13.880  0.4657  0.6310 -0.2549
15987TIP3    H269453   4.661   4.970  14.001  0.2279 -0.5971  0.1324
15988TIP3   OH269454   3.012   3.739   6.592 -0.1886 -0.3926  0.2947
15988TIP3    H169455   2.971   3.746   6.678 -0.2938  2.1629  0.1122
15988TIP3    H269456   3.066   3.661   6.598 -0.7162 -0.6671  2.4543
15989TIP3   OH269457   3.516   2.874   1.874 -0.1675  0.5526 -0.6676
15989TIP3    H169458   3.547   2.812   1.808  1.5454 -0.3499  0.8986
15989TIP3    H269459   3.464   2.938   1.824  0.1224 -0.7094 -2.6961
15990TIP3   OH269460   0.257   1.465   1.791  0.0741  0.4955 -0.2286
15990TIP3    H169461   0.341   1.433   1.823 -0.1125 -1.4353 -1.5305
15990TIP3    H269462   0.279   1.515   1.712 -0.0061 -0.4506 -0.8689
15991TIP3   OH269463   4.490   6.377  13.446 -0.0960  0.2188 -0.5411
15991TIP3    H169464   4.479   6.332  13.362 -1.0562  0.8970 -0.7913
15991TIP3    H269465   4.566   6.335  13.486  0.9329  0.4590 -2.1501
15992TIP3   OH269466   4.385   2.271  17.362 -0.1988 -0.0805 -0.2522
15992TIP3    H169467   4.384   2.241  17.453  0.2107  2.3197  0.6408
15992TIP3    H269468   4.312   2.225  17.321 -0.9421 -0.5889  1.5308
15993TIP3   OH269469   2.726   4.615   3.159  0.9403  0.0621  0.0930
15993TIP3    H169470   2.665   4.678   3.196  0.4638 -1.1148  1.4053
15993TIP3    H269471   2.812   4.642   3.192  0.6622 -0.2888  1.1669
15994TIP3   OH269472   0.769   0.471   1.252  0.5548  0.0231  0.0885
15994TIP3    H169473   0.822   0.542   1.288  1.8955 -1.7466  1.8430
15994TIP3    H269474   0.792   0.467   1.160  1.9459  0.6061  0.3939
15995TIP3   OH269475   3.606   4.871   4.839  0.6706 -0.1497  0.5759
15995TIP3    H169476   3.608   4.837   4.929  0.6622  0.1388  0.6877
15995TIP3    H269477   3.515   4.898   4.826  0.8104  0.4069  0.7121
15996TIP3   OH269478   1.692   6.552  12.432 -0.5880  0.8168 -0.0288
15996TIP3    H169479   1.613   6.573  12.381 -0.7543 -0.9484 -0.5918
15996TIP3    H269480   1.707   6.459  12.415  2.0013  1.2289 -0.4436
15997TIP3   OH269481   6.228   0.528   0.620 -0.0980 -0.2674 -0.4802
15997TIP3    H169482   6.216   0.464   0.690  0.3002  1.2207  1.0086
15997TIP3    H269483   6.140   0.548   0.589 -0.2139 -1.6555 -1.1118
15998TIP3   OH269484   5.030   1.949  12.359 -0.1014  0.2304 -0.0259
15998TIP3    H169485   4.984   2.030  12.379 -0.0179  0.3932 -0.4829
15998TIP3    H269486   4.978   1.881  12.401 -0.6999  0.4243 -0.4407
15999TIP3   OH269487   1.941   1.341   3.056 -0.3222 -0.5900 -0.2914
15999TIP3    H169488   1.883   1.341   2.980 -0.2023 -0.5933 -0.3840
15999TIP3    H269489   2.000   1.267   3.041 -1.0579 -1.3334  0.3918
16000TIP3   OH269490   3.408   2.406   2.470  0.2966  0.3100 -0.6447
16000TIP3    H169491   3.339   2.339   2.468  1.2146 -0.7465  1.2318
16000TIP3    H269492   3.465   2.384   2.397 -0.9399  0.8137 -1.8194
16001TIP3   OH269493   5.441   3.427  13.059 -0.1309 -0.2529 -0.2946
16001TIP3    H169494   5.436   3.371  13.137  3.5784  2.2077  2.0234
16001TIP3    H269495   5.523   3.401  13.017 -0.3016  0.8503 -1.3405
16002TIP3   OH269496   6.326   1.746  10.791  0.1235  0.2843 -0.3959
16002TIP3    H169497   6.399   1.686  10.777  0.5276  1.0443 -1.7330
16002TIP3    H269498   6.345   1.821  10.735 -1.1949  0.9351 -0.0246
16003TIP3   OH269499   1.580   3.401  12.543  0.2337 -0.0840  0.0350
16003TIP3    H169500   1.614   3.349  12.617 -1.5985 -0.2800  0.7921
16003TIP3    H269501   1.485   3.397  12.553  0.0054  1.9413 -0.9419
16004TIP3   OH269502   1.131   0.826   4.579 -0.5577 -0.2673  0.2534
16004TIP3    H169503   1.121   0.780   4.662  1.5295  0.4052  0.9447
16004TIP3    H269504   1.177   0.763   4.522 -0.8157 -0.2630  0.0381
16005TIP3   OH269505   3.316   1.974   3.105 -0.1110  0.3181 -0.3412
16005TIP3    H169506   3.290   2.059   3.141 -1.5179  0.3120 -1.2304
16005TIP3    H269507   3.405   1.987   3.074 -0.2007  1.3925 -0.1847
16006TIP3   OH269508   3.118   1.196  11.757  0.1687  0.5107 -0.2539
16006TIP3    H169509   3.182   1.253  11.714  1.7750 -1.2488 -0.3374
16006TIP3    H269510   3.121   1.115  11.706 -0.1842 -0.5370  1.3379
16007TIP3   OH269511   5.905   1.663  16.144  0.4706 -0.0913 -0.6631
16007TIP3    H169512   5.875   1.573  16.135 -0.1310  0.2991 -3.1070
16007TIP3    H269513   5.999   1.655  16.159  0.4889 -1.1154 -1.2443
16008TIP3   OH269514   3.241   5.487   3.269  0.0640  0.0690 -0.1824
16008TIP3    H169515   3.206   5.574   3.249 -0.5584  0.0286  0.7127
16008TIP3    H269516   3.295   5.466   3.193 -1.2369  0.4540 -1.2482
16009TIP3   OH269517   4.518   2.821  11.323 -0.5020 -0.3368  0.4033
16009TIP3    H169518   4.426   2.796  11.314 -0.2590 -1.0061 -0.3427
16009TIP3    H269519   4.519   2.916  11.306 -0.9417 -0.4735 -0.4292
16010TIP3   OH269520   3.613   2.968   4.239  0.7120 -0.1010 -0.5197
16010TIP3    H169521   3.533   2.920   4.257  0.0131  1.7099  1.5973
16010TIP3    H269522   3.586   3.036   4.177  0.1970  1.3779  1.2372
16011TIP3   OH269523   6.499   3.048   5.297 -0.2870  0.1244  0.3748
16011TIP3    H169524   6.489   2.957   5.269  1.4855 -1.0069  3.0623
16011TIP3    H269525   6.586   3.073   5.266  0.3430 -0.0495  1.9596
16012TIP3   OH269526   3.544   3.151   0.572  0.1493 -0.5448  0.4073
16012TIP3    H169527   3.495   3.076   0.539  0.1851  0.0140 -1.0079
16012TIP3    H269528   3.486   3.226   0.559 -0.3121 -0.4186  2.7853
16013TIP3   OH269529   0.459   6.099   4.959  0.1261 -0.2546 -0.1997
16013TIP3    H169530   0.483   6.075   5.048 -1.0139 -3.7282 -0.6696
16013TIP3    H269531   0.365   6.118   4.964  0.6804  2.9441 -0.1652
16014TIP3   OH269532   1.354   5.221  17.200  0.5060  0.3584 -0.3135
16014TIP3    H169533   1.318   5.236  17.113 -0.0643  1.7079  0.1179
16014TIP3    H269534   1.293   5.267  17.259  2.0387  1.3010  0.6040
16015TIP3   OH269535   0.072   4.686  12.637 -0.1242  0.2563 -0.3362
16015TIP3    H169536   0.145   4.659  12.693 -1.4610 -3.2479 -0.0308
16015TIP3    H269537   0.005   4.716  12.698 -0.1022  0.3790 -0.3719
16016TIP3   OH269538   5.145   3.014   4.764 -0.3973 -0.5794  0.0764
16016TIP3    H169539   5.167   2.938   4.711 -1.2021 -0.4152 -0.5129
16016TIP3    H269540   5.058   3.041   4.733  0.3950  1.3352 -0.6249
16017TIP3   OH269541   6.042   3.858  17.369  0.4119 -0.5044 -0.2762
16017TIP3    H169542   6.046   3.951  17.349  1.6009 -0.2204  1.1169
16017TIP3    H269543   5.963   3.849  17.423  0.3446 -0.2855 -0.3361
16018TIP3   OH269544   1.556   3.573   1.981  0.4021  0.1090 -0.2570
16018TIP3    H169545   1.476   3.620   1.956  0.0727 -1.0691 -1.5464
16018TIP3    H269546   1.600   3.632   2.043 -0.9348  1.2429 -0.3310
16019TIP3   OH269547   0.096   0.401   5.070 -0.3219  0.1044 -0.3588
16019TIP3    H169548   0.110   0.323   5.018 -1.4980  1.2150 -2.4687
16019TIP3    H269549   0.042   0.372   5.144 -1.7568 -0.8971 -1.7470
16020TIP3   OH269550   4.341   4.201  12.342 -0.0824 -0.5817 -0.0984
16020TIP3    H169551   4.383   4.131  12.293 -1.5244 -0.5230 -1.4841
16020TIP3    H269552   4.379   4.281  12.308  1.9627 -0.6215  1.8588
16021TIP3   OH269553   0.102   2.468   5.762  0.0011  0.3316 -0.5513
16021TIP3    H169554   0.150   2.393   5.727 -1.8466 -0.6366 -1.1378
16021TIP3    H269555   0.098   2.530   5.690  2.9217  1.8273  0.3910
16022TIP3   OH269556   6.732   5.463  17.219 -0.1669 -0.2237 -0.7981
16022TIP3    H169557   6.637   5.466  17.205 -0.1893  0.5487 -0.5266
16022TIP3    H269558   6.744   5.404  17.293 -0.4269 -0.4192 -0.9132
16023TIP3   OH269559   5.489   6.314   2.033 -0.1945 -0.7340 -0.2181
16023TIP3    H169560   5.472   6.329   2.126 -0.1003 -2.0935  0.0469
16023TIP3    H269561   5.577   6.347   2.019 -0.1964 -0.5539  0.1886
16024TIP3   OH269562   4.963   3.528  17.503 -0.0018  0.2041 -0.0031
16024TIP3    H169563   4.980   3.509  17.595 -0.8646 -1.3196 -0.1233
16024TIP3    H269564   4.879   3.574  17.503 -0.2492 -0.2435 -0.0593
16025TIP3   OH269565   3.543   6.019  15.711 -0.0329  0.3199 -0.0831
16025TIP3    H169566   3.577   6.000  15.799  1.4035  0.7925 -0.5176
16025TIP3    H269567   3.496   5.939  15.686  0.0282 -0.0350  0.8820
16026TIP3   OH269568   2.235   3.986   6.450  0.0435  0.1539 -0.3290
16026TIP3    H169569   2.308   4.019   6.397  0.2743  0.5947  0.2514
16026TIP3    H269570   2.260   4.007   6.540  0.7111 -2.5509  0.1962
16027TIP3   OH269571   1.096   5.031  11.004 -0.1332 -0.5243  0.5099
16027TIP3    H169572   1.136   4.959  10.954  0.5237 -0.4784  0.9567
16027TIP3    H269573   1.048   5.082  10.939 -0.1713 -1.0680  0.1030
16028TIP3   OH269574   6.478   4.449   2.529 -0.3466 -0.6380  0.4660
16028TIP3    H169575   6.417   4.461   2.601  0.0150  2.0891  0.4215
16028TIP3    H269576   6.543   4.518   2.540  1.6226 -2.1751 -0.6435
16029TIP3   OH269577   3.951   5.215   2.654  0.1516 -0.1395 -0.1232
16029TIP3    H169578   3.913   5.193   2.569 -0.4870 -0.4376  0.2350
16029TIP3    H269579   4.026   5.156   2.662  0.5621  0.2914 -0.7305
16030TIP3   OH269580   1.207   5.696  12.347 -0.3366  0.1696  0.4272
16030TIP3    H169581   1.227   5.603  12.354  1.1899  0.3783 -0.4704
16030TIP3    H269582   1.112   5.701  12.348 -0.4309 -1.3219  1.2332
16031TIP3   OH269583   5.331   1.183   6.342 -0.2789  0.2914 -0.0189
16031TIP3    H169584   5.260   1.173   6.406 -0.4091 -1.1088 -0.3559
16031TIP3    H269585   5.340   1.278   6.332 -1.5378  0.5115  0.6481
16032TIP3   OH269586   5.647   5.255  15.850 -0.1347 -0.0091 -0.2016
16032TIP3    H169587   5.599   5.330  15.815 -1.7517 -0.8022  0.2174
16032TIP3    H269588   5.642   5.189  15.781  1.7634  0.4059 -0.8010
16033TIP3   OH269589   4.086   1.833   3.898  0.1514  0.4550 -0.1703
16033TIP3    H169590   4.002   1.824   3.944 -0.0589  1.2624 -0.3804
16033TIP3    H269591   4.116   1.743   3.886 -0.2013  0.1917  0.7986
16034TIP3   OH269592   4.360   1.617  13.805 -0.0087  0.1594  0.0456
16034TIP3    H169593   4.320   1.571  13.879  0.3940  2.2303  1.6770
16034TIP3    H269594   4.434   1.665  13.844 -1.0794  3.0697 -1.2029
16035TIP3   OH269595   1.017   5.692   2.359 -0.1879  0.2155 -0.3029
16035TIP3    H169596   1.087   5.749   2.390 -0.9904  0.9720  0.1736
16035TIP3    H269597   0.936   5.738   2.383 -0.8710  0.2090 -2.3919
16036TIP3   OH269598   3.046   5.340   3.368  0.3737 -0.0431  0.0098
16036TIP3    H169599   3.112   5.398   3.330 -0.9284  1.0520 -0.7085
16036TIP3    H269600   2.967   5.395   3.373 -1.0207 -1.8507 -1.0325
16037TIP3   OH269601   0.301   0.404  10.327 -0.2734  0.7509 -0.0775
16037TIP3    H169602   0.216   0.390  10.368  0.1408  0.4424  0.7108
16037TIP3    H269603   0.363   0.360  10.385  0.5031  1.5396 -0.2774
16038TIP3   OH269604   1.474   3.327   1.058  0.5046 -0.2684 -0.0554
16038TIP3    H169605   1.429   3.395   1.007 -0.3192 -1.3821 -0.8505
16038TIP3    H269606   1.407   3.295   1.119  1.0406 -0.0230  0.6744
16039TIP3   OH269607   3.122   3.985   3.903 -0.5260 -0.0896 -0.4448
16039TIP3    H169608   3.103   4.028   3.987  0.5783 -0.5257  0.0488
16039TIP3    H269609   3.139   3.894   3.926  1.1513  0.0642 -0.9414
16040TIP3   OH269610   2.587   1.543  12.788  0.0587  0.4122  0.2404
16040TIP3    H169611   2.498   1.573  12.773 -0.1254 -0.6784 -0.9673
16040TIP3    H269612   2.623   1.527  12.701  1.7232  1.5459  0.6435
16041TIP3   OH269613   4.866   4.019   5.502 -0.8750  0.0813 -0.6375
16041TIP3    H169614   4.819   4.089   5.456 -0.3866 -0.3000 -1.7621
16041TIP3    H269615   4.952   4.018   5.461  1.1473  2.3926  2.9574
16042TIP3   OH269616   1.137   5.864   3.575  0.0840  0.0824  0.5358
16042TIP3    H169617   1.071   5.896   3.637  0.5875  1.3809  0.4381
16042TIP3    H269618   1.089   5.851   3.493 -0.0707  0.9914  0.4720
16043TIP3   OH269619   5.946   4.490   4.809 -0.7607 -0.5045  0.6947
16043TIP3    H169620   5.928   4.501   4.902 -1.7225  1.5713  0.3233
16043TIP3    H269621   6.014   4.554   4.789  0.5582 -1.9861  0.2350
16044TIP3   OH269622   2.735   4.024   7.179 -0.0307  0.4598  0.3416
16044TIP3    H169623   2.804   4.029   7.113  0.3644 -1.5086  0.5305
16044TIP3    H269624   2.781   3.996   7.259 -0.9801 -0.5511  0.5541
16045TIP3   OH269625   6.128   0.293  12.726  0.3458  0.2527 -0.2855
16045TIP3    H169626   6.035   0.295  12.704  0.4437  0.4564 -0.6792
16045TIP3    H269627   6.131   0.254  12.813 -0.3473  2.6304  0.9000
16046TIP3   OH269628   4.279   0.999   3.304 -0.7271 -0.1400 -0.0867
16046TIP3    H169629   4.294   0.906   3.286  0.4906  0.1157 -0.5301
16046TIP3    H269630   4.359   1.042   3.273 -1.2271  1.0443  0.2172
16047TIP3   OH269631   2.634   5.271   0.543  0.1722 -0.2026  0.1706
16047TIP3    H169632   2.623   5.358   0.581 -0.4287 -0.6970  1.1581
16047TIP3    H269633   2.698   5.228   0.600  0.2678 -0.5041 -0.1589
16048TIP3   OH269634   6.150   4.172   6.186 -0.2147 -0.3038  0.2867
16048TIP3    H169635   6.056   4.183   6.201 -0.3875 -2.1053  0.8020
16048TIP3    H269636   6.168   4.083   6.216  1.1571 -0.9584 -2.2278
16049TIP3   OH269637   4.219   5.738   2.096 -0.1041 -0.0401  1.1799
16049TIP3    H169638   4.168   5.740   2.177  0.5597 -0.4516  1.6229
16049TIP3    H269639   4.309   5.755   2.124  0.3828 -1.6879  0.7402
16050TIP3   OH269640   6.286   0.994   5.547  0.0452  0.1614  0.4823
16050TIP3    H169641   6.303   1.046   5.468 -2.6158  2.2895  1.1471
16050TIP3    H269642   6.236   0.918   5.515  1.1916 -0.3789 -0.1136
16051TIP3   OH269643   3.659   0.904  15.732  0.0132  0.4883 -0.1145
16051TIP3    H169644   3.573   0.865  15.744  0.4705 -0.0071  2.0060
16051TIP3    H269645   3.643   0.985  15.684 -1.6028  0.3223  0.0970
16052TIP3   OH269646   1.215   1.239   0.657 -1.1263  0.2424 -0.0244
16052TIP3    H169647   1.209   1.307   0.724 -1.3877 -0.2337  0.4462
16052TIP3    H269648   1.126   1.232   0.622 -0.6902  1.5501 -1.5184
16053TIP3   OH269649   2.321   5.279  17.478  0.3587 -0.0527 -0.2296
16053TIP3    H169650   2.305   5.359  17.528 -1.5801  1.5181 -3.1064
16053TIP3    H269651   2.417   5.272  17.474  0.6056  2.6393 -0.5862
16054TIP3   OH269652   0.176   5.795  17.056 -0.2730 -0.6088  0.3306
16054TIP3    H169653   0.253   5.739  17.048 -0.2012 -0.5471  0.5897
16054TIP3    H269654   0.202   5.877  17.013  0.0111 -0.3813  0.9334
16055TIP3   OH269655   5.109   0.627   4.194 -0.2112 -0.0714  0.3168
16055TIP3    H169656   5.066   0.560   4.246 -0.3450  1.0602  1.7274
16055TIP3    H269657   5.193   0.588   4.169 -0.5349 -0.9678  0.6183
16056TIP3   OH269658   1.767   5.331   3.020 -0.9533 -0.2285  0.0986
16056TIP3    H169659   1.812   5.412   3.045 -1.4077  0.2947 -0.7078
16056TIP3    H269660   1.830   5.285   2.965 -1.1018  0.1197 -0.3698
16057TIP3   OH269661   5.565   4.871  16.078 -0.2608 -0.1167  0.0490
16057TIP3    H169662   5.506   4.944  16.059  0.6465  0.7940  0.6478
16057TIP3    H269663   5.507   4.795  16.086 -1.1755  0.4468 -1.0150
16058TIP3   OH269664   0.484   5.253   5.898  0.3389 -0.6947 -0.1319
16058TIP3    H169665   0.477   5.298   5.814  3.3283  1.4124  0.5658
16058TIP3    H269666   0.424   5.301   5.956  1.8098  1.0569  0.0345
16059TIP3   OH269667   4.160   0.214  13.397  0.3517  0.1747 -0.1555
16059TIP3    H169668   4.221   0.153  13.440 -0.1656 -0.9506 -0.9662
16059TIP3    H269669   4.136   0.276  13.466  1.7592  0.1366  0.3983
16060TIP3   OH269670   1.547   2.200   6.509  0.3306 -0.1655 -0.0378
16060TIP3    H169671   1.501   2.283   6.526  1.0223  0.3204 -0.4964
16060TIP3    H269672   1.499   2.136   6.560 -1.1556  0.2468 -0.8408
16061TIP3   OH269673   5.756   2.815   2.172 -0.7555  0.1250 -0.3050
16061TIP3    H169674   5.765   2.767   2.254  4.1490 -0.3593 -0.7978
16061TIP3    H269675   5.777   2.751   2.104  0.2119  1.5770 -1.4489
16062TIP3   OH269676   1.785   5.002   0.100  0.0765 -0.0000  0.1743
16062TIP3    H169677   1.840   5.072   0.134  1.6239 -0.9020 -0.3453
16062TIP3    H269678   1.703   5.044   0.076  1.1518  1.7410 -0.6154
16063TIP3   OH269679   5.631   0.691   3.281  0.4300  0.3144  0.0195
16063TIP3    H169680   5.552   0.741   3.305  0.7064  0.8658 -0.2072
16063TIP3    H269681   5.600   0.601   3.270 -0.3505  0.6933 -1.0076
16064TIP3   OH269682   0.776   5.167   1.565 -0.4170 -0.8039 -0.7424
16064TIP3    H169683   0.866   5.178   1.597 -0.2271  0.0052 -1.5193
16064TIP3    H269684   0.787   5.135   1.475 -0.7739  2.5022 -2.1160
16065TIP3   OH269685   0.719   4.596  12.014  0.2444 -0.9156  0.1602
16065TIP3    H169686   0.708   4.603  12.109  0.4389 -2.6174  0.3275
16065TIP3    H269687   0.802   4.642  11.997 -0.1022 -0.0593  0.7132
16066TIP3   OH269688   6.358   0.018  16.834 -0.4784 -0.6257 -0.7139
16066TIP3    H169689   6.265   0.003  16.849 -0.6690 -0.1501 -1.3639
16066TIP3    H269690   6.393   0.037  16.921 -1.1783  0.1345 -0.5840
16067TIP3   OH269691   6.040   1.832  14.162 -0.3897  0.0949 -0.2992
16067TIP3    H169692   6.064   1.920  14.191  0.2655  0.1983 -1.0968
16067TIP3    H269693   6.123   1.789  14.144 -0.7135 -0.6134 -0.1303
16068TIP3   OH269694   6.004   6.388  10.868 -0.0452 -0.3975 -0.0056
16068TIP3    H169695   6.026   6.350  10.783  1.2029 -0.0175  0.1232
16068TIP3    H269696   5.977   6.478  10.848  0.5916 -0.1961  0.0241
16069TIP3   OH269697   4.844   6.504  15.200  0.3252 -0.5893  0.2979
16069TIP3    H169698   4.847   6.426  15.256  2.2814 -0.4807  0.4061
16069TIP3    H269699   4.779   6.560  15.241  1.6062 -0.5639  2.4319
16070TIP3   OH269700   0.993   3.953   2.869 -0.2617  0.3463  0.4497
16070TIP3    H169701   0.985   4.046   2.888  0.6708  0.7673 -1.0468
16070TIP3    H269702   0.921   3.912   2.918  0.5813  1.5626  2.8507
16071TIP3   OH269703   0.904   3.310   3.570 -0.3191  0.3069  0.6048
16071TIP3    H169704   0.929   3.395   3.534  0.8074 -0.4232 -0.4387
16071TIP3    H269705   0.924   3.317   3.664  1.1772  0.7309  0.2841
16072TIP3   OH269706   3.445   6.468  14.408 -0.4988 -0.3479 -0.4541
16072TIP3    H169707   3.424   6.427  14.491 -0.4395  0.5650  0.0237
16072TIP3    H269708   3.502   6.541  14.431  0.4846 -0.7847 -1.4120
16073TIP3   OH269709   0.684   1.701   3.419 -0.0791  0.1041 -0.7930
16073TIP3    H169710   0.642   1.764   3.477 -1.0322 -0.7980 -0.4905
16073TIP3    H269711   0.653   1.725   3.331 -0.4774  0.0308 -0.6742
16074TIP3   OH269712   0.549   1.478   0.708  0.8656 -0.2943  0.5858
16074TIP3    H169713   0.500   1.504   0.630  1.9361  0.9143  0.2842
16074TIP3    H269714   0.572   1.386   0.692  0.0850 -0.4040  0.0272
16075TIP3   OH269715   0.301   2.672  13.840 -0.6761  0.4600  0.2189
16075TIP3    H169716   0.265   2.635  13.920  0.9340 -1.2377  0.2322
16075TIP3    H269717   0.366   2.736  13.869  0.6559 -0.8893  0.3711
16076TIP3   OH269718   5.769   5.917  16.647  0.8007  0.1621  0.1227
16076TIP3    H169719   5.814   5.877  16.573 -2.0029  1.6141 -2.6454
16076TIP3    H269720   5.832   5.914  16.719  3.6225 -1.6287 -2.1972
16077TIP3   OH269721   3.720   1.947   5.462 -0.2351  0.0554 -0.0849
16077TIP3    H169722   3.774   1.884   5.510 -0.8688 -0.7639 -0.4225
16077TIP3    H269723   3.783   2.010   5.427  0.3030  0.2390  1.1826
16078TIP3   OH269724   3.169   0.675   3.960 -0.0973 -0.2144  0.4561
16078TIP3    H169725   3.086   0.683   4.006 -1.6459 -0.2758 -2.1354
16078TIP3    H269726   3.214   0.758   3.977 -1.4866  0.5740  0.4755
16079TIP3   OH269727   3.875   5.331   4.900  0.8605 -0.1985 -0.7373
16079TIP3    H169728   3.838   5.416   4.877  1.0512 -0.7166 -3.1903
16079TIP3    H269729   3.877   5.331   4.996 -2.4482  1.1416 -0.5422
16080TIP3   OH269730   6.643   3.521   5.811  0.4759  0.0742 -0.8167
16080TIP3    H169731   6.577   3.495   5.747 -0.2762 -0.3126  0.1006
16080TIP3    H269732   6.594   3.558   5.884  1.2459 -0.4917  0.0170
16081TIP3   OH269733   2.938   6.044   2.924 -0.2455  0.3702  0.8098
16081TIP3    H169734   3.023   6.001   2.934  0.0770  0.4629 -1.0981
16081TIP3    H269735   2.876   5.972   2.909  0.4083  0.3927 -3.1289
16082TIP3   OH269736   6.014   0.385   5.171 -0.1038  0.8609  0.4513
16082TIP3    H169737   6.055   0.299   5.173 -1.6356  0.0997  1.4014
16082TIP3    H269738   6.015   0.411   5.079  0.6061 -0.0613  0.1942
16083TIP3   OH269739   1.212   6.459   4.150 -0.3704  0.0107 -0.0619
16083TIP3    H169740   1.132   6.433   4.104 -0.3064 -1.2838  0.5104
16083TIP3    H269741   1.251   6.376   4.177  1.3069  0.6133 -0.5561
16084TIP3   OH269742   0.548   6.255  11.607  0.7382 -0.2927  0.2289
16084TIP3    H169743   0.604   6.243  11.530  1.6820  0.0957  0.8332
16084TIP3    H269744   0.586   6.197  11.674  0.3145 -0.1521  0.6004
16085TIP3   OH269745   1.733   5.775   5.742 -0.1182 -0.2803  0.1584
16085TIP3    H169746   1.706   5.804   5.655 -0.0663  0.2753  0.3257
16085TIP3    H269747   1.665   5.807   5.800  1.3897  2.1181  0.7372
16086TIP3   OH269748   4.912   5.317  13.988  0.1635 -0.3774  0.1959
16086TIP3    H169749   4.884   5.408  13.981  0.9778 -0.2337 -2.1362
16086TIP3    H269750   4.834   5.266  13.965 -0.1749 -0.2606  1.0766
16087TIP3   OH269751   1.987   5.349  11.358 -0.7138 -0.1664 -0.2119
16087TIP3    H169752   2.070   5.394  11.343  0.6718 -2.2564  0.7990
16087TIP3    H269753   1.923   5.420  11.369  1.2311  1.5322  0.7638
16088TIP3   OH269754   2.080   4.891   2.197  0.7910  0.0779  0.8379
16088TIP3    H169755   2.063   4.965   2.139  1.1647 -1.2866 -1.1055
16088TIP3    H269756   2.173   4.871   2.185  0.2424 -2.0929 -0.5039
16089TIP3   OH269757   4.710   2.951  12.174 -0.3465  0.2241  0.1997
16089TIP3    H169758   4.716   2.859  12.199  0.0212  0.2769  0.3140
16089TIP3    H269759   4.627   2.958  12.126  0.2163 -0.4284 -0.9049
16090TIP3   OH269760   0.551   4.854  11.436 -0.6641  0.0673  0.2767
16090TIP3    H169761   0.646   4.840  11.440 -0.6899  0.0977  1.5885
16090TIP3    H269762   0.515   4.766  11.430 -0.5447  0.0990 -1.5967
16091TIP3   OH269763   1.495   1.615   4.950 -0.1026 -0.0109 -0.1698
16091TIP3    H169764   1.405   1.637   4.973 -0.2023 -2.5278  2.4170
16091TIP3    H269765   1.548   1.678   4.998 -0.4867 -1.0534  1.7271
16092TIP3   OH269766   2.302   2.014   1.680 -0.0341 -0.0907  0.2834
16092TIP3    H169767   2.224   2.067   1.690 -0.8968 -1.0184 -1.1440
16092TIP3    H269768   2.307   1.962   1.760  0.1330  1.2452  1.1492
16093TIP3   OH269769   0.221   4.063   4.923 -0.3328 -0.4091 -0.4091
16093TIP3    H169770   0.154   4.118   4.965 -1.0104 -1.5428  0.0422
16093TIP3    H269771   0.252   4.006   4.993  1.9590  0.8128 -0.3180
16094TIP3   OH269772   1.079   4.958   4.640  0.0917  0.0367 -0.5792
16094TIP3    H169773   1.124   4.904   4.705 -2.1820  0.5833  1.5915
16094TIP3    H269774   1.002   4.992   4.685 -0.1997  2.6829 -2.7680
16095TIP3   OH269775   6.380   0.796   6.140 -0.2800 -0.0361 -0.4248
16095TIP3    H169776   6.454   0.794   6.080  0.7182 -0.7182  0.7712
16095TIP3    H269777   6.336   0.712   6.127 -0.7416  0.2864 -0.9926
16096TIP3   OH269778   3.919   3.409   3.567 -0.4401  0.1774  0.7751
16096TIP3    H169779   3.884   3.326   3.598  0.2514 -0.7239 -0.7659
16096TIP3    H269780   3.842   3.463   3.549 -0.9081 -0.3801  1.0900
16097TIP3   OH269781   0.145   4.706  12.085 -0.8621 -0.2142 -0.3926
16097TIP3    H169782   0.150   4.617  12.118 -0.1349  0.2412  0.7599
16097TIP3    H269783   0.217   4.753  12.127 -1.8126  1.1637 -0.2142
16098TIP3   OH269784   0.227   5.626  12.092  0.0261  0.8546 -0.7849
16098TIP3    H169785   0.225   5.569  12.015 -0.9838  0.4824 -0.4986
16098TIP3    H269786   0.284   5.581  12.154 -0.3691  0.3919 -0.7504
16099TIP3   OH269787   0.535   0.207  12.879 -0.3788 -0.3513  0.2988
16099TIP3    H169788   0.461   0.267  12.882  0.4031  0.6173  1.2983
16099TIP3    H269789   0.508   0.132  12.932 -0.7689 -0.1560  0.3778
16100TIP3   OH269790   2.112   6.238   1.343  0.2936 -0.6271 -0.0708
16100TIP3    H169791   2.023   6.203   1.345  0.8192 -2.0575 -0.0724
16100TIP3    H269792   2.164   6.176   1.395  1.1417  0.6604  0.6784
16101TIP3   OH269793   2.026   1.271   4.525 -0.3372 -0.1979 -0.0791
16101TIP3    H169794   1.950   1.226   4.560 -0.3277 -0.7681 -0.7749
16101TIP3    H269795   2.002   1.363   4.525 -0.1518 -0.1129  1.8746
16102TIP3   OH269796   2.793   2.497  17.599  0.7523  0.0550  0.3196
16102TIP3    H169797   2.797   2.406  17.628  1.4210  0.1444  0.5306
16102TIP3    H269798   2.842   2.545  17.666 -0.1359  0.6614  0.5529
16103TIP3   OH269799   1.739   6.548  11.288  0.1002 -0.5656  0.3792
16103TIP3    H169800   1.696   6.599  11.220  0.8139  1.5019  1.4062
16103TIP3    H269801   1.786   6.479  11.240  1.3985  1.4090 -1.3377
16104TIP3   OH269802   6.664   0.547  13.716  0.1983 -0.0282 -1.0370
16104TIP3    H169803   6.626   0.504  13.793  0.7785 -1.6189 -1.5939
16104TIP3    H269804   6.676   0.638  13.743  0.2379 -0.5062  0.6921
16105TIP3   OH269805   3.255   1.726  14.799  0.2880  0.1623  0.1267
16105TIP3    H169806   3.303   1.713  14.717  2.3440  1.4526  1.0209
16105TIP3    H269807   3.308   1.789  14.848 -0.2656 -1.3661  2.9344
16106TIP3   OH269808   5.696   0.822   3.931 -0.3286 -0.2445  0.1409
16106TIP3    H169809   5.620   0.798   3.985 -0.8065  1.6093  0.3477
16106TIP3    H269810   5.730   0.902   3.971  2.5756 -1.7079  0.8447
16107TIP3   OH269811   0.072   3.286   3.800 -0.3681  0.1431  0.0162
16107TIP3    H169812   0.166   3.293   3.819 -0.1718  0.5328 -1.0465
16107TIP3    H269813   0.066   3.221   3.730 -1.2990 -3.1085  2.8423
16108TIP3   OH269814   3.204   1.022   4.298 -0.6215 -0.6134 -0.1996
16108TIP3    H169815   3.131   1.032   4.238 -1.7928 -2.5843  0.7918
16108TIP3    H269816   3.178   0.951   4.356  1.7549 -0.8351  0.7140
16109TIP3   OH269817   5.480   6.425  10.813 -0.3723  0.0582  0.0202
16109TIP3    H169818   5.413   6.356  10.810 -0.4102  0.0524  0.7350
16109TIP3    H269819   5.563   6.377  10.816 -0.4314 -0.0008  1.5110
16110TIP3   OH269820   3.790   4.056  13.635  0.1687  0.3468 -0.0758
16110TIP3    H169821   3.762   4.093  13.718  1.1229  0.7365  0.0849
16110TIP3    H269822   3.735   4.100  13.570 -0.9227 -0.3252  0.3809
16111TIP3   OH269823   3.976   6.495   6.892  0.5423  0.3204  0.0580
16111TIP3    H169824   3.935   6.440   6.825 -0.8769 -0.3953  1.4620
16111TIP3    H269825   4.014   6.433   6.954 -0.9256  0.8526  1.5731
16112TIP3   OH269826   4.752   2.019  12.087 -0.0194 -0.4246 -0.0600
16112TIP3    H169827   4.839   2.052  12.066  0.2226 -1.0742 -0.0795
16112TIP3    H269828   4.747   1.934  12.045 -0.1712 -0.9712  1.0362
16113TIP3   OH269829   0.538   4.992   4.833 -0.2578 -0.7663  0.9381
16113TIP3    H169830   0.544   5.007   4.927 -0.4399  0.3151  0.7958
16113TIP3    H269831   0.459   4.940   4.822 -1.8726  1.5205  1.1704
16114TIP3   OH269832   4.373   3.261   5.107 -0.0878  0.0896 -0.2169
16114TIP3    H169833   4.465   3.282   5.094 -0.0816  0.6356  0.6659
16114TIP3    H269834   4.349   3.306   5.187 -1.4109  0.8295 -0.9972
16115TIP3   OH269835   0.160   5.584   1.744  0.4573  0.8781  0.6407
16115TIP3    H169836   0.239   5.622   1.782  0.1188  1.2865  0.9413
16115TIP3    H269837   0.124   5.529   1.813  1.0985 -0.2462  0.1165
16116TIP3   OH269838   6.017   3.910  16.803 -0.4980 -0.0827  0.5447
16116TIP3    H169839   6.078   3.899  16.877 -0.6942  0.2562  0.7581
16116TIP3    H269840   5.998   3.820  16.775  0.8893 -0.1821 -0.1849
16117TIP3   OH269841   5.530   2.387  14.495  0.0449  0.2525 -0.2728
16117TIP3    H169842   5.530   2.479  14.522 -0.0524  0.1666  0.0267
16117TIP3    H269843   5.512   2.389  14.401  0.6288  0.5696 -0.3794
16118TIP3   OH269844   3.758   3.872  16.526  0.1643  0.0176  0.2324
16118TIP3    H169845   3.818   3.938  16.561  0.7768 -1.2127  1.6458
16118TIP3    H269846   3.797   3.788  16.552 -1.8984 -0.8501  0.7787
16119TIP3   OH269847   1.494   2.461   0.882  0.0272  0.5745  0.2014
16119TIP3    H169848   1.465   2.455   0.973  0.8384  0.3064  0.4491
16119TIP3    H269849   1.561   2.393   0.874 -1.4494 -0.7937 -1.1486
16120TIP3   OH269850   6.620   3.730  14.660 -0.1733 -0.0971 -0.1751
16120TIP3    H169851   6.676   3.668  14.613  0.7089  0.2698  0.3776
16120TIP3    H269852   6.589   3.681  14.736  3.3955  1.0935  2.2816
16121TIP3   OH269853   3.997   2.513  11.553 -0.3433 -0.0864  0.5848
16121TIP3    H169854   4.032   2.433  11.591 -2.7977 -0.7054  1.7076
16121TIP3    H269855   4.002   2.498  11.458  2.0891 -0.1953  0.6568
16122TIP3   OH269856   3.947   2.582   2.904  0.0845  0.3584 -0.4522
16122TIP3    H169857   4.007   2.574   2.978 -0.6889 -0.7855  0.0812
16122TIP3    H269858   3.875   2.637   2.936  0.5179  1.1970 -0.8856
16123TIP3   OH269859   0.762   1.106   2.171  0.1405 -0.3674  0.1309
16123TIP3    H169860   0.822   1.181   2.169  2.0708 -1.7844  1.6524
16123TIP3    H269861   0.794   1.052   2.243 -1.1097 -2.7278 -0.9930
16124TIP3   OH269862   0.453   4.686   2.380 -0.4836 -0.0896 -0.0766
16124TIP3    H169863   0.548   4.681   2.371 -0.2628 -0.2220  1.8857
16124TIP3    H269864   0.419   4.665   2.293  1.2336 -2.0960 -0.3181
16125TIP3   OH269865   6.220   0.353  13.678  0.3079 -0.6678  0.3937
16125TIP3    H169866   6.259   0.432  13.643 -1.1740 -0.1796 -0.2397
16125TIP3    H269867   6.154   0.327  13.614 -0.2173 -1.6017  1.2636
16126TIP3   OH269868   1.245   1.743   6.373 -0.6594 -0.3826  0.3032
16126TIP3    H169869   1.254   1.740   6.468 -1.9618  0.4011  0.4741
16126TIP3    H269870   1.178   1.809   6.357 -0.4504 -0.4910 -1.1673
16127TIP3   OH269871   2.965   0.499   0.669 -0.0426 -0.4197 -0.6090
16127TIP3    H169872   3.027   0.445   0.618 -0.3396 -0.4387 -0.9535
16127TIP3    H269873   2.894   0.439   0.690 -0.8315  0.0605 -1.8014
16128TIP3   OH269874   0.760   5.621   0.249  0.6553 -0.1190  0.5337
16128TIP3    H169875   0.684   5.674   0.272 -0.6587 -0.8294 -1.8457
16128TIP3    H269876   0.723   5.543   0.208  2.6202  0.5205 -2.8105
16129TIP3   OH269877   6.250   0.876   5.200 -0.0458 -0.3019  0.6587
16129TIP3    H169878   6.217   0.845   5.285 -0.6377  2.1988  1.4049
16129TIP3    H269879   6.336   0.913   5.221  0.4596 -1.0030 -0.1302
16130TIP3   OH269880   2.540   5.092   1.440 -0.0144 -0.5322  0.3315
16130TIP3    H169881   2.536   5.163   1.504  2.6072 -0.2178  0.2651
16130TIP3    H269882   2.563   5.014   1.491  0.0235 -0.7108  0.0458
16131TIP3   OH269883   1.455   4.005  14.276 -0.3046 -0.8091 -0.6233
16131TIP3    H169884   1.549   4.019  14.271 -0.5727  1.3459 -0.5962
16131TIP3    H269885   1.417   4.094  14.279 -2.2217 -1.5946  1.1247
16132TIP3   OH269886   5.895   5.710   0.540  0.5820  0.0248  0.5641
16132TIP3    H169887   5.865   5.761   0.465  0.4305  1.3964  1.5008
16132TIP3    H269888   5.921   5.777   0.605 -1.3033 -1.0404  2.5353
16133TIP3   OH269889   1.339   2.555   5.487 -0.3375  0.3868 -0.1188
16133TIP3    H169890   1.380   2.574   5.572  1.1792  0.3115 -0.8020
16133TIP3    H269891   1.379   2.619   5.427  1.7771 -2.1343 -1.6262
16134TIP3   OH269892   5.241   1.885  17.506  0.6146 -0.3152 -0.0683
16134TIP3    H169893   5.230   1.964  17.452  0.8053  0.5300  1.0833
16134TIP3    H269894   5.249   1.919  17.595 -0.5262 -1.7185  0.5976
16135TIP3   OH269895   6.515   0.406   3.383  0.0738  0.7956 -0.1308
16135TIP3    H169896   6.521   0.325   3.331  0.4262  0.7329  0.0008
16135TIP3    H269897   6.479   0.470   3.322  1.1662  0.9044 -0.6884
16136TIP3   OH269898   1.748   0.393  14.094  0.8759  0.1232 -0.0171
16136TIP3    H169899   1.777   0.311  14.052 -0.0720 -0.8144  1.0729
16136TIP3    H269900   1.658   0.405  14.062  0.2145 -0.4945  1.5219
16137TIP3   OH269901   2.640   2.614  14.186 -1.0038  0.0938  0.1387
16137TIP3    H169902   2.712   2.557  14.159 -0.3209  0.8025  0.4314
16137TIP3    H269903   2.564   2.555  14.192  0.3437 -1.6172  3.7982
16138TIP3   OH269904   4.972   0.712   1.065  0.5781 -0.4758 -0.2936
16138TIP3    H169905   5.006   0.801   1.073 -0.0595 -0.2597  0.0258
16138TIP3    H269906   4.915   0.700   1.141 -0.0530 -0.8426 -0.8061
16139TIP3   OH269907   0.666   6.546   2.003  0.2911  0.3663  0.3083
16139TIP3    H169908   0.578   6.580   2.016 -0.2724 -0.9981  0.2358
16139TIP3    H269909   0.676   6.479   2.071  0.9007 -0.1714 -0.2932
16140TIP3   OH269910   3.645   1.811   3.445 -0.5923 -0.4659 -0.6657
16140TIP3    H169911   3.683   1.799   3.531 -2.3276  1.4823  0.4707
16140TIP3    H269912   3.680   1.894   3.414 -2.7791  0.7264 -0.1356
16141TIP3   OH269913   6.579   1.789  16.526  0.1839  0.6847  0.4300
16141TIP3    H169914   6.635   1.864  16.505  1.9520 -0.6851 -0.0095
16141TIP3    H269915   6.610   1.758  16.610  1.2722 -1.0932 -0.5713
16142TIP3   OH269916   3.814   6.510  14.997 -0.0731  0.4408 -0.1467
16142TIP3    H169917   3.881   6.485  15.060  1.2945 -0.8875 -2.0258
16142TIP3    H269918   3.738   6.531  15.050  1.3248  0.3916  1.9806
16143TIP3   OH269919   1.625   2.755  15.040 -0.2496  1.0621 -0.6672
16143TIP3    H169920   1.577   2.767  15.122 -1.0377  0.0737 -0.9546
16143TIP3    H269921   1.575   2.805  14.976 -2.4379 -1.8699 -1.4764
16144TIP3   OH269922   2.825   5.634   1.653  0.0079 -0.7819  0.3077
16144TIP3    H169923   2.763   5.703   1.630  0.2905  0.1263  2.1195
16144TIP3    H269924   2.795   5.602   1.738  1.8923 -0.4126  1.1769
16145TIP3   OH269925   0.371   0.194  15.749  0.3939 -0.1264 -0.1574
16145TIP3    H169926   0.294   0.201  15.693 -0.3434  1.2395  0.9627
16145TIP3    H269927   0.353   0.117  15.803  0.0461 -0.1199 -0.2577
16146TIP3   OH269928   1.720   6.280  12.361  0.2531  0.2165  0.3898
16146TIP3    H169929   1.637   6.234  12.345  0.1294  0.1790  1.0897
16146TIP3    H269930   1.759   6.232  12.434  0.9705  0.1363 -0.0439
16147TIP3   OH269931   2.301   4.525   0.289 -0.4211 -0.5763  0.6307
16147TIP3    H169932   2.374   4.480   0.248 -0.7028  0.2626 -0.8652
16147TIP3    H269933   2.226   4.468   0.275 -0.4115 -0.5455  0.4522
16148TIP3   OH269934   5.554   4.764   5.725  0.2826 -0.0437  0.4651
16148TIP3    H169935   5.597   4.712   5.658 -0.6901  0.1226 -0.3119
16148TIP3    H269936   5.461   4.741   5.718  0.0545  0.6062  1.1812
16149TIP3   OH269937   2.348   6.421   3.370  0.1902  0.5606 -0.1213
16149TIP3    H169938   2.423   6.373   3.336 -0.4437  0.3709 -1.2984
16149TIP3    H269939   2.352   6.507   3.328 -0.8314  0.1791 -1.0332
16150TIP3   OH269940   6.332   4.728   1.767  0.1868 -0.3197  0.0596
16150TIP3    H169941   6.272   4.715   1.840  1.1091 -0.3148  0.8506
16150TIP3    H269942   6.331   4.646   1.719  0.0271 -0.5355  0.4338
16151TIP3   OH269943   2.640   1.263  14.628 -0.4785  0.0977 -0.3750
16151TIP3    H169944   2.622   1.199  14.559  1.5408  1.8742 -2.6862
16151TIP3    H269945   2.720   1.231  14.670 -0.4814  0.1870 -0.3018
16152TIP3   OH269946   4.080   3.818   0.776  0.0416 -0.1805  0.1408
16152TIP3    H169947   4.117   3.731   0.786  1.0916  0.1504 -0.6625
16152TIP3    H269948   4.004   3.806   0.719  0.0567 -0.5904  0.2034
16153TIP3   OH269949   6.134   0.355   3.422  0.2898  0.1690  0.3155
16153TIP3    H169950   6.181   0.361   3.339 -0.8214  1.0471 -0.2622
16153TIP3    H269951   6.153   0.438   3.466  0.5565 -0.1308  0.7720
16154TIP3   OH269952   4.497   1.325   0.865  0.3782  0.2013 -0.3746
16154TIP3    H169953   4.512   1.345   0.958  1.9789 -0.9115 -0.3562
16154TIP3    H269954   4.559   1.382   0.819 -0.2737  0.6047 -0.7658
16155TIP3   OH269955   0.372   1.698   4.320  0.3541  0.4532 -0.1814
16155TIP3    H169956   0.366   1.684   4.414  0.0780 -3.4582 -0.6199
16155TIP3    H269957   0.458   1.739   4.307  1.7567 -1.7169  1.5985
16156TIP3   OH269958   4.097   2.264  11.634  0.0024 -0.3823 -0.2136
16156TIP3    H169959   4.190   2.266  11.656 -0.4888 -0.5492  2.0893
16156TIP3    H269960   4.070   2.174  11.652 -1.1577  0.3241  1.9043
16157TIP3   OH269961   0.442   4.090   4.562 -0.0487 -0.2640 -0.2385
16157TIP3    H169962   0.408   4.165   4.513  0.8658  0.1512 -0.2765
16157TIP3    H269963   0.517   4.126   4.610  0.3109 -1.1291 -0.1374
16158TIP3   OH269964   3.379   0.452  13.203  0.0573 -0.7022  0.3633
16158TIP3    H169965   3.366   0.535  13.251  0.1679 -0.1310 -0.5740
16158TIP3    H269966   3.468   0.425  13.227  0.1469 -0.3750  0.4141
16159TIP3   OH269967   3.859   0.180   1.921 -0.1713 -0.3291 -0.0160
16159TIP3    H169968   3.895   0.112   1.864 -0.5112 -0.6876  0.1892
16159TIP3    H269969   3.931   0.201   1.981  0.3542  0.4148 -0.8875
16160TIP3   OH269970   4.391   2.254  11.644 -0.1939  0.3766 -0.2854
16160TIP3    H169971   4.416   2.264  11.552 -0.1356  1.5176 -0.1622
16160TIP3    H269972   4.458   2.197  11.681  0.5208  0.9631 -0.6534
16161TIP3   OH269973   5.560   1.315  12.763  0.5570 -0.0257  0.0809
16161TIP3    H169974   5.642   1.294  12.720 -0.4349 -0.6925 -1.5933
16161TIP3    H269975   5.527   1.232  12.796 -1.0847 -0.4924 -2.3939
16162TIP3   OH269976   6.711   5.781  17.245 -0.0006 -0.2427 -0.0826
16162TIP3    H169977   6.795   5.763  17.205 -0.9216 -0.0453 -2.2376
16162TIP3    H269978   6.652   5.713  17.210 -0.5098 -1.1622  2.3530
16163TIP3   OH269979   0.967   0.152   1.538  0.0662  0.3446 -0.0491
16163TIP3    H169980   0.946   0.066   1.501 -0.7443  0.1811  0.7673
16163TIP3    H269981   1.021   0.195   1.470  1.7605 -1.3559  0.1517
16164TIP3   OH269982   2.614   0.343  12.704  0.9020  0.1077  0.1686
16164TIP3    H169983   2.620   0.419  12.645  0.4365 -0.0165 -0.0486
16164TIP3    H269984   2.589   0.271  12.647 -1.4742  0.3748  0.7637
16165TIP3   OH269985   5.644   2.216  10.955 -0.0499 -0.0513  0.1652
16165TIP3    H169986   5.619   2.274  10.884  1.3002 -0.3770 -0.6033
16165TIP3    H269987   5.713   2.263  11.002 -2.4813  1.2386  2.8119
16166TIP3   OH269988   5.485   0.898  13.778  0.2085  0.9021 -0.1875
16166TIP3    H169989   5.580   0.913  13.775  0.6618 -1.6654 -0.9862
16166TIP3    H269990   5.475   0.814  13.824 -1.5897  0.5289 -1.1671
16167TIP3   OH269991   1.641   6.188  16.280  0.3611 -0.4073  0.7971
16167TIP3    H169992   1.646   6.191  16.184 -0.2560  0.0362  0.7757
16167TIP3    H269993   1.706   6.251  16.309  1.1814 -1.1787  0.6965
16168TIP3   OH269994   4.746   1.791  15.200 -0.0207  0.1344 -0.3826
16168TIP3    H169995   4.677   1.728  15.181  1.0298 -1.2330  0.2269
16168TIP3    H269996   4.733   1.860  15.134 -1.2523 -0.6366 -0.9970
16169TIP3   OH269997   3.591   5.175   4.354  1.0327 -0.3782 -0.1052
16169TIP3    H169998   3.585   5.270   4.351  2.1808 -0.1360  2.5842
16169TIP3    H269999   3.606   5.148   4.263  2.2176  2.1208 -0.7106
16170TIP3   OH270000   3.946   0.430   1.432  0.5917  0.0875 -0.5446
16170TIP3    H170001   3.904   0.475   1.359 -1.2930 -1.6858 -0.6401
16170TIP3    H270002   3.923   0.482   1.509 -0.8234 -0.1902 -0.7551
16171TIP3   OH270003   2.946   1.576  13.825  0.3056  0.0924 -0.0460
16171TIP3    H170004   2.937   1.617  13.912  1.6233  0.4682 -0.0607
16171TIP3    H270005   3.025   1.522  13.832 -0.2604 -0.8335 -0.6597
16172TIP3   OH270006   4.309   1.013  11.673  0.0843  0.1664  0.3932
16172TIP3    H170007   4.327   1.106  11.663  1.6930 -0.2406 -0.7761
16172TIP3    H270008   4.389   0.976  11.710 -0.8874 -0.6246  1.8046
16173TIP3   OH270009   2.777   4.084   0.112 -0.7077 -0.0587  0.2080
16173TIP3    H170010   2.691   4.122   0.093 -0.1420  1.2380  0.1867
16173TIP3    H270011   2.840   4.143   0.070  0.2267 -0.7381  0.6141
16174TIP3   OH270012   2.018   4.342  13.605 -0.0790  0.9703 -0.2057
16174TIP3    H170013   1.969   4.262  13.623 -0.4126  0.9568 -1.0838
16174TIP3    H270014   2.094   4.337  13.662 -1.4259  1.3278  1.7097
16175TIP3   OH270015   0.531   5.551  11.552 -0.6033 -0.3459 -0.1283
16175TIP3    H170016   0.610   5.533  11.603 -0.4275 -1.8129 -0.8788
16175TIP3    H270017   0.460   5.512  11.604 -0.4581 -1.5943 -0.8406
16176TIP3   OH270018   3.476   2.348   4.221  0.1907 -0.0446  0.1066
16176TIP3    H170019   3.513   2.324   4.306 -1.2257  0.0093  0.7564
16176TIP3    H270020   3.502   2.439   4.208  0.0627  0.0750  0.6740
16177TIP3   OH270021   5.934   6.711  13.599  0.2289 -0.6028 -0.3828
16177TIP3    H170022   6.029   6.704  13.586  0.3074  1.7118 -1.7842
16177TIP3    H270023   5.898   6.629  13.565  1.6982 -1.4153 -0.0553
16178TIP3   OH270024   4.519   1.085  17.064  0.4033 -0.3531  0.1166
16178TIP3    H170025   4.503   0.993  17.041 -0.0985 -0.2416  0.0184
16178TIP3    H270026   4.567   1.120  16.988  0.6609 -0.5516  0.1870
16179TIP3   OH270027   0.901   2.897   6.137  0.5864  0.1538 -0.1448
16179TIP3    H170028   0.854   2.922   6.217 -2.2657  3.2483 -2.5125
16179TIP3    H270029   0.848   2.826   6.100  0.8336  0.0010 -0.2063
16180TIP3   OH270030   6.347   5.576   4.793  0.2563 -0.0604  0.2447
16180TIP3    H170031   6.422   5.573   4.734  1.0814  0.4222  1.2398
16180TIP3    H270032   6.345   5.490   4.833  1.5352  0.5487  1.7008
16181TIP3   OH270033   6.340   5.190  15.111  0.6133  0.1397  0.3210
16181TIP3    H170034   6.368   5.165  15.199 -1.5975 -2.0800  0.4919
16181TIP3    H270035   6.307   5.109  15.072 -0.4971  1.5036 -1.7484
16182TIP3   OH270036   5.702   1.292   3.989  0.1679 -0.4650  0.1930
16182TIP3    H170037   5.674   1.293   4.080 -1.5691  0.1385 -0.3129
16182TIP3    H270038   5.746   1.376   3.976 -1.4357  0.3774 -0.0305
16183TIP3   OH270039   5.843   1.260  13.277 -0.4010  0.1036 -0.1132
16183TIP3    H170040   5.792   1.328  13.321 -1.2548 -0.3150 -0.4398
16183TIP3    H270041   5.805   1.178  13.308 -0.7151 -0.2027 -1.2666
16184TIP3   OH270042   5.284   5.450  11.641  0.5841  0.0599  0.0694
16184TIP3    H170043   5.361   5.504  11.625  0.5729 -0.0264 -0.2718
16184TIP3    H270044   5.221   5.478  11.574  0.3185  0.1300  0.3438
16185TIP3   OH270045   1.317   3.923   3.251  0.3898  0.3754  0.3187
16185TIP3    H170046   1.314   3.830   3.233  2.4484  0.4774 -0.9273
16185TIP3    H270047   1.379   3.931   3.324  0.8570  0.8061 -0.1169
16186TIP3   OH270048   1.938   4.833  13.010  0.0996 -0.2470 -0.1484
16186TIP3    H170049   1.897   4.858  12.928 -0.9063 -1.3745 -0.0170
16186TIP3    H270050   1.866   4.828  13.073  0.1750 -3.2870 -0.1500
16187TIP3   OH270051   0.397   5.755  15.488  0.4726  0.4585 -0.7563
16187TIP3    H170052   0.321   5.811  15.473 -1.6954 -1.9924  0.2382
16187TIP3    H270053   0.398   5.742  15.583  1.2860 -0.6758 -0.9076
16188TIP3   OH270054   6.199   4.747   0.428 -0.1155  0.2917  0.3874
16188TIP3    H170055   6.168   4.661   0.399  2.9615 -0.2103 -1.9122
16188TIP3    H270056   6.238   4.731   0.514  1.0278 -0.8271 -0.3074
16189TIP3   OH270057   1.630   1.931  12.597  0.0502  0.1204 -0.4715
16189TIP3    H170058   1.615   2.017  12.636  2.6901  1.2941 -1.8131
16189TIP3    H270059   1.543   1.903  12.568 -1.0656  1.7410  1.0842
16190TIP3   OH270060   3.029   1.786  12.499  0.3811  0.0612  0.2446
16190TIP3    H170061   2.963   1.757  12.561  0.1136  1.6164  0.7309
16190TIP3    H270062   3.112   1.759  12.539  0.1078 -0.9843  0.1330
16191TIP3   OH270063   0.812   1.138  14.275 -0.0982 -0.5097 -0.1111
16191TIP3    H170064   0.874   1.099  14.337  1.9763  0.9678 -1.1345
16191TIP3    H270065   0.840   1.104  14.190  0.9366  2.0258 -0.8719
16192TIP3   OH270066   2.588   6.247  14.442  0.1864  0.6682 -0.1609
16192TIP3    H170067   2.609   6.163  14.401  1.6262  0.5291  0.8045
16192TIP3    H270068   2.493   6.249  14.444  0.1229 -1.0155 -0.0452
16193TIP3   OH270069   1.058   0.353   0.510  0.0576  0.7759 -0.5409
16193TIP3    H170070   1.147   0.330   0.536  0.4769  1.1567 -1.5681
16193TIP3    H270071   1.045   0.442   0.541 -1.3608 -0.4556  2.9276
16194TIP3   OH270072   3.512   5.828  11.819 -0.2010  0.1771 -0.0596
16194TIP3    H170073   3.510   5.735  11.799  1.9249  0.4549 -1.9268
16194TIP3    H270074   3.420   5.853  11.828 -0.7884 -2.1994  1.2039
16195TIP3   OH270075   1.546   3.634  16.450 -0.0273 -0.1205 -0.6114
16195TIP3    H170076   1.574   3.545  16.474 -2.3300 -0.3029  1.6946
16195TIP3    H270077   1.622   3.689  16.471 -0.0317 -1.0225  2.1415
16196TIP3   OH270078   2.772   4.663   2.211  0.2249 -0.4942 -0.1929
16196TIP3    H170079   2.821   4.699   2.285  1.6100 -1.0785 -0.7945
16196TIP3    H270080   2.731   4.584   2.246 -1.1605  0.5238  0.5847
16197TIP3   OH270081   2.601   5.047   1.910  0.1119 -0.5112 -0.7538
16197TIP3    H170082   2.560   5.018   1.828  0.3045 -1.0133 -0.6749
16197TIP3    H270083   2.676   4.989   1.921  0.1354 -0.3878 -0.2642
16198TIP3   OH270084   5.978   4.999  12.107 -0.5192 -0.0646  0.5703
16198TIP3    H170085   6.029   5.030  12.033  0.0514 -1.0173  0.5395
16198TIP3    H270086   6.011   5.048  12.182  0.9866 -1.1636  0.6768
16199TIP3   OH270087   0.211   1.244  15.723  0.7755 -0.6824 -0.0704
16199TIP3    H170088   0.228   1.177  15.790 -0.0639 -1.0495 -0.1961
16199TIP3    H270089   0.283   1.306  15.732  0.0555 -0.0430  2.0292
16200TIP3   OH270090   0.604   2.609   5.237  0.5947  0.1520  0.0326
16200TIP3    H170091   0.535   2.558   5.194  0.6240  0.0089  0.1549
16200TIP3    H270092   0.570   2.626   5.325  0.5887  0.3389 -0.0042
16201TIP3   OH270093   5.184   1.437   3.343 -0.6779  0.3487  0.3751
16201TIP3    H170094   5.121   1.383   3.296 -0.3143  0.6972 -0.5347
16201TIP3    H270095   5.134   1.473   3.416 -1.2955 -0.0841  0.1815
16202TIP3   OH270096   3.915   2.641  12.057  0.1059 -0.5013  0.0564
16202TIP3    H170097   3.876   2.583  12.123 -1.5744  0.6837  0.1738
16202TIP3    H270098   3.971   2.584  12.004  0.9547 -1.6174  2.0519
16203TIP3   OH270099   1.556   5.610   5.259 -0.3210  0.2957  0.0570
16203TIP3    H170100   1.530   5.702   5.252 -0.4008  0.2152 -0.8260
16203TIP3    H270101   1.652   5.611   5.257 -0.3142  0.2385 -2.1451
16204TIP3   OH270102   4.065   6.178  16.261 -0.9126  0.3743  0.7802
16204TIP3    H170103   4.112   6.095  16.274 -0.4237  0.2500 -1.4174
16204TIP3    H270104   4.134   6.243  16.247 -1.3379  0.9170  1.1190
16205TIP3   OH270105   2.657   4.229  14.734  0.3820 -0.2165 -0.2089
16205TIP3    H170106   2.669   4.323  14.724  0.2541 -0.1975 -0.1798
16205TIP3    H270107   2.572   4.211  14.696  0.7531 -0.4446 -0.9473
16206TIP3   OH270108   2.037   0.852  14.001 -0.4509  0.0354 -0.2468
16206TIP3    H170109   2.127   0.838  13.971 -0.0987 -0.4769  0.9754
16206TIP3    H270110   2.011   0.768  14.039 -2.1546 -0.4493 -2.2371
16207TIP3   OH270111   3.131   0.022  15.515  1.0808 -0.5501  0.3315
16207TIP3    H170112   3.208   0.076  15.496 -0.3510  1.6527  0.4001
16207TIP3    H270113   3.083   0.018  15.433  0.8733 -1.2481  0.4835
16208TIP3   OH270114   2.303   3.197  12.836 -0.0810  0.0964 -0.5971
16208TIP3    H170115   2.274   3.153  12.916 -1.1592 -0.4591 -1.2605
16208TIP3    H270116   2.297   3.290  12.857 -2.3145  0.0283 -0.6119
16209TIP3   OH270117   5.624   5.045  15.670 -0.0758 -0.0429 -0.4812
16209TIP3    H170118   5.634   5.005  15.584 -0.7259 -0.8906 -0.1775
16209TIP3    H270119   5.672   4.987  15.729 -2.8422 -1.7000  0.3070
16210TIP3   OH270120   3.874   3.196   6.422 -0.3970 -0.2199  0.4942
16210TIP3    H170121   3.906   3.225   6.507  2.5077 -1.0854 -0.1791
16210TIP3    H270122   3.916   3.111   6.409 -0.4546  0.0648 -1.9557
16211TIP3   OH270123   0.211   4.905  10.554  0.3170  0.1910 -0.2305
16211TIP3    H170124   0.271   4.940  10.620 -1.2196 -2.5921  2.9143
16211TIP3    H270125   0.257   4.829  10.518  0.5587  0.8726 -1.4176
16212TIP3   OH270126   4.892   2.108   5.298  0.7223  0.1953  0.0643
16212TIP3    H170127   4.847   2.131   5.217  0.7127  1.1446  0.3306
16212TIP3    H270128   4.838   2.146   5.368  0.0596 -1.6521  0.6180
16213TIP3   OH270129   3.326   2.799   0.227 -0.1678  0.3549 -0.7500
16213TIP3    H170130   3.419   2.818   0.210  0.1225 -0.1109  0.2280
16213TIP3    H270131   3.313   2.712   0.190 -0.2668  0.4919 -1.0422
16214TIP3   OH270132   2.131   6.457   2.373 -0.3437 -0.2342  0.2988
16214TIP3    H170133   2.100   6.535   2.419 -0.3007  0.0139 -0.0859
16214TIP3    H270134   2.074   6.450   2.296  0.2221 -0.0668 -0.1428
16215TIP3   OH270135   6.528   6.655   2.449 -0.5576 -0.5927 -0.2927
16215TIP3    H170136   6.535   6.639   2.354 -1.2640 -0.5698 -0.3526
16215TIP3    H270137   6.488   6.575   2.483 -0.0188 -0.7265  0.0386
16216TIP3   OH270138   1.955   3.575   4.438 -0.3834 -0.4868  0.2837
16216TIP3    H170139   1.901   3.576   4.359  1.2279  0.0148 -0.8563
16216TIP3    H270140   1.927   3.651   4.488 -0.7401 -0.2337 -0.2962
16217TIP3   OH270141   0.446   5.490  12.215  0.4425  0.5394 -0.1545
16217TIP3    H170142   0.465   5.398  12.196  0.6326  0.2182  1.4758
16217TIP3    H270143   0.521   5.520  12.267  0.5485  1.7273 -0.9488
16218TIP3   OH270144   2.496   6.326   3.977 -0.1348  0.0425  0.4167
16218TIP3    H170145   2.466   6.293   3.892  2.2183  0.5895 -0.7087
16218TIP3    H270146   2.517   6.418   3.961 -1.5649  0.7206  2.1479
16219TIP3   OH270147   0.836   6.425   4.954  0.9215  0.7402  0.0032
16219TIP3    H170148   0.740   6.418   4.951  1.0123 -0.8041 -1.5443
16219TIP3    H270149   0.857   6.426   5.047 -0.5761  0.4486  0.3803
16220TIP3   OH270150   0.872   5.724   1.948 -0.2786  0.2744 -0.2255
16220TIP3    H170151   0.838   5.701   2.035  0.2525 -0.7090 -0.2673
16220TIP3    H270152   0.797   5.713   1.890 -1.0621  2.3824  0.2755
16221TIP3   OH270153   4.640   0.888  13.608  0.4684 -0.1213 -0.1798
16221TIP3    H170154   4.642   0.972  13.655 -1.2463  0.1343 -0.5074
16221TIP3    H270155   4.731   0.860  13.605  1.1760  2.0449 -0.6159
16222TIP3   OH270156   0.256   5.367  17.608  0.5986  0.8841  0.2452
16222TIP3    H170157   0.289   5.296  17.553 -0.5453  0.1760  0.4428
16222TIP3    H270158   0.205   5.323  17.676  1.1880  1.8079  1.3207
16223TIP3   OH270159   1.457   2.456   5.947 -0.2829  0.3103  0.6204
16223TIP3    H170160   1.472   2.363   5.927 -0.4860  0.6839 -1.5696
16223TIP3    H270161   1.495   2.469   6.034 -2.3461 -2.3574  2.0950
16224TIP3   OH270162   0.555   0.095  13.749  0.6952  0.5100 -0.2607
16224TIP3    H170163   0.590   0.160  13.810  1.1648  0.7593 -0.7902
16224TIP3    H270164   0.460   0.097  13.764  0.8070  0.5108  0.5098
16225TIP3   OH270165   6.708   0.862   0.878  0.2088 -0.3283  0.0481
16225TIP3    H170166   6.782   0.881   0.820  0.0684 -3.2010 -1.2459
16225TIP3    H270167   6.708   0.766   0.886 -1.6299 -0.2163  2.4016
16226TIP3   OH270168   2.972   1.901   1.752  0.0065 -0.4115  0.5016
16226TIP3    H170169   3.056   1.894   1.707  0.2220 -0.8157  0.9534
16226TIP3    H270170   2.970   1.825   1.811 -0.0568  0.3601  1.5203
16227TIP3   OH270171   2.448   2.201  16.796 -0.3676  0.7933 -0.2082
16227TIP3    H170172   2.462   2.174  16.705 -2.5493 -0.7851 -0.1681
16227TIP3    H270173   2.514   2.152  16.846 -1.9483 -1.8690 -0.5499
16228TIP3   OH270174   1.081   2.669  11.667 -0.0401 -0.0946  0.6763
16228TIP3    H170175   1.144   2.649  11.598 -0.5221  3.2225 -0.9204
16228TIP3    H270176   1.002   2.622  11.642  0.6713 -1.3549  0.7052
16229TIP3   OH270177   4.767   5.847   3.403  0.1850  0.5019  0.3373
16229TIP3    H170178   4.692   5.866   3.347  0.4525  0.5965  0.0090
16229TIP3    H270179   4.824   5.792   3.349 -0.7884 -1.6977  1.4044
16230TIP3   OH270180   3.567   3.524   2.574 -0.0076 -0.7876  0.3925
16230TIP3    H170181   3.494   3.582   2.598  1.1119  1.9189 -2.1304
16230TIP3    H270182   3.631   3.535   2.645 -0.8122 -0.8697  1.1409
16231TIP3   OH270183   0.132   4.197  15.211  0.2585 -0.0596 -0.1335
16231TIP3    H170184   0.126   4.257  15.137 -0.8557 -0.8634 -0.7247
16231TIP3    H270185   0.199   4.134  15.185 -1.5594 -1.5617 -1.4214
16232TIP3   OH270186   0.715   4.093  16.390  0.3271  0.1382  0.2274
16232TIP3    H170187   0.663   4.143  16.327 -0.2014 -1.5136 -0.7155
16232TIP3    H270188   0.687   4.126  16.475 -2.4193 -0.7384 -0.2195
16233TIP3   OH270189   5.547   1.766   5.648 -0.3659  0.7784  0.2418
16233TIP3    H170190   5.605   1.779   5.573  1.0395 -1.2010  0.8720
16233TIP3    H270191   5.464   1.738   5.611  0.0675  0.5945 -0.6085
16234TIP3   OH270192   1.577   2.561  15.304  0.1685 -0.3943 -0.1213
16234TIP3    H170193   1.539   2.474  15.308 -1.1652  0.0237 -2.2660
16234TIP3    H270194   1.666   2.548  15.271 -0.1999 -0.9165 -0.9248
16235TIP3   OH270195   5.056   2.128   2.600  0.1550  0.5571  0.0509
16235TIP3    H170196   5.129   2.190   2.592 -1.3586  2.5923  1.1707
16235TIP3    H270197   5.082   2.070   2.671  1.0219  0.7367 -0.0950
16236TIP3   OH270198   3.579   0.309  11.024 -0.0979  0.5692 -0.3364
16236TIP3    H170199   3.634   0.241  11.062 -1.8199 -1.3967 -1.1553
16236TIP3    H270200   3.528   0.343  11.097 -0.2542 -0.0657 -0.1433
16237TIP3   OH270201   2.060   0.418  17.417  0.0864  0.2005 -0.7582
16237TIP3    H170202   2.096   0.452  17.334 -1.6156  0.4276 -1.4598
16237TIP3    H270203   2.065   0.323  17.408 -1.8147  0.1484 -2.0221
16238TIP3   OH270204   1.911   1.584  14.347  0.4339  0.3273 -0.2323
16238TIP3    H170205   1.944   1.501  14.380  0.0229  0.2361 -0.0553
16238TIP3    H270206   1.949   1.591  14.259 -0.8179 -0.8171 -0.8915
16239TIP3   OH270207   5.963   2.933   1.130  0.5317 -0.0576 -0.2252
16239TIP3    H170208   6.012   3.000   1.083  0.3418  0.6241  0.5196
16239TIP3    H270209   5.960   2.965   1.221  1.3159 -1.5751  0.3663
16240TIP3   OH270210   5.269   1.141   1.754 -0.1612  0.6354  0.4678
16240TIP3    H170211   5.316   1.221   1.731  0.9127  0.4820  1.9098
16240TIP3    H270212   5.220   1.163   1.833 -2.4818  0.7375 -0.9302
16241TIP3   OH270213   2.435   4.391   6.945 -0.1982  0.3513  0.0449
16241TIP3    H170214   2.387   4.329   6.890  0.0148 -0.3087  0.5854
16241TIP3    H270215   2.455   4.342   7.025  0.7965  0.8211  0.1041
16242TIP3   OH270216   1.494   4.071  16.441  0.2184 -0.1201 -0.9989
16242TIP3    H170217   1.571   4.044  16.492 -0.2052  0.7874  0.1385
16242TIP3    H270218   1.462   4.150  16.484 -1.4501 -0.5480 -1.3767
16243TIP3   OH270219   6.342   1.363  11.709 -0.0678 -0.0497  0.7322
16243TIP3    H170220   6.295   1.326  11.784  1.5440 -1.8089  0.9386
16243TIP3    H270221   6.369   1.450  11.739 -1.3785  0.1830  1.3385
16244TIP3   OH270222   0.716   6.506  12.073  0.0938  0.0770  0.5513
16244TIP3    H170223   0.689   6.476  12.160 -1.3097  1.2037  0.5267
16244TIP3    H270224   0.635   6.532  12.030  1.0845  3.6020  0.4732
16245TIP3   OH270225   1.062   3.205  15.163  0.4183 -0.2849 -0.2569
16245TIP3    H170226   1.000   3.274  15.143  1.9904  1.5428  0.8020
16245TIP3    H270227   1.076   3.212  15.258  0.5697 -2.1408 -0.0972
16246TIP3   OH270228   3.375   1.985   4.555  0.2827  0.4566  0.0119
16246TIP3    H170229   3.407   1.966   4.466 -2.1739 -0.1353 -0.8445
16246TIP3    H270230   3.452   1.977   4.611  1.1620 -3.7528 -1.4458
16247TIP3   OH270231   4.721   5.659  17.159  0.0139  0.8168  0.3916
16247TIP3    H170232   4.741   5.708  17.238 -0.0329 -0.1817  1.0444
16247TIP3    H270233   4.626   5.656  17.156  0.0101  1.2504  0.0427
16248TIP3   OH270234   5.095   2.138   4.720 -0.4605  0.3282 -0.2024
16248TIP3    H170235   5.158   2.182   4.663 -1.1855 -0.3937 -1.6446
16248TIP3    H270236   5.047   2.208   4.763 -0.2513  0.9113 -0.9062
16249TIP3   OH270237   1.512   4.589   6.398 -0.4461  0.2115 -0.3511
16249TIP3    H170238   1.556   4.601   6.482 -1.0018 -1.8220  0.2864
16249TIP3    H270239   1.575   4.539   6.345 -1.0619 -0.7028 -0.2391
16250TIP3   OH270240   1.616   4.996  13.614 -0.3710 -0.4580  0.2045
16250TIP3    H170241   1.709   4.971  13.613 -0.5146 -1.1179  1.4386
16250TIP3    H270242   1.598   5.018  13.705 -2.1585 -3.3296  0.6639
16251TIP3   OH270243   1.086   0.694   1.550 -0.2185 -0.0443  0.0428
16251TIP3    H170244   1.134   0.761   1.600  0.3683 -0.8926  0.6591
16251TIP3    H270245   1.029   0.653   1.614  0.2196 -0.8534 -0.0668
16252TIP3   OH270246   2.318   4.705  13.394 -0.2712  0.9190  0.0864
16252TIP3    H170247   2.243   4.661  13.434 -0.2947  0.9261  0.0506
16252TIP3    H270248   2.388   4.641  13.398  0.4495  1.7624  2.3956
16253TIP3   OH270249   2.105   3.335   3.604  0.0915 -0.2809 -0.1913
16253TIP3    H170250   2.177   3.325   3.666  1.3346 -1.5307 -1.7591
16253TIP3    H270251   2.112   3.258   3.547 -2.3998 -0.3504 -0.4981
16254TIP3   OH270252   5.171   2.300  14.534 -0.3605  0.6784 -0.1064
16254TIP3    H170253   5.238   2.232  14.520 -1.0148 -0.1813  0.7526
16254TIP3    H270254   5.220   2.374  14.570  0.3769  0.6961 -1.1066
16255TIP3   OH270255   0.028   6.297  15.810 -0.4575 -0.1384 -0.1458
16255TIP3    H170256   0.063   6.299  15.720  0.2602 -0.2010  0.1220
16255TIP3    H270257  -0.003   6.387  15.825 -1.3399 -0.3356 -0.7401
16256TIP3   OH270258   6.064   6.399  12.458  0.0527  0.2704  0.1343
16256TIP3    H170259   6.129   6.426  12.524  0.0965  0.5263 -0.0122
16256TIP3    H270260   5.983   6.390  12.507  0.3705 -0.8832  0.4841
16257TIP3   OH270261   0.352   3.419  14.258 -0.3342  0.4870  0.6869
16257TIP3    H170262   0.275   3.365  14.242  0.8255 -0.7211 -1.1521
16257TIP3    H270263   0.399   3.373  14.328  0.1427 -0.3991 -0.1845
16258TIP3   OH270264   0.868   5.202   3.008 -0.7568 -0.3415 -0.8299
16258TIP3    H170265   0.921   5.128   3.039  0.8294  0.3216 -1.8077
16258TIP3    H270266   0.797   5.161   2.958 -0.6670 -1.2365 -0.2562
16259TIP3   OH270267   4.326   5.600  16.351  0.0832 -0.4257  0.2240
16259TIP3    H170268   4.333   5.693  16.369  0.6221 -0.4265  0.0433
16259TIP3    H270269   4.307   5.560  16.435 -2.8557  0.0996 -0.1042
16260TIP3   OH270270   0.771   4.546  13.533 -0.0395  0.3418 -0.2310
16260TIP3    H170271   0.790   4.610  13.463  1.4807  0.5761  0.3632
16260TIP3    H270272   0.703   4.588  13.585  1.6104  1.9693  0.7193
16261TIP3   OH270273   0.819   1.210  12.044  0.3651 -0.0657 -0.1117
16261TIP3    H170274   0.791   1.242  12.130  0.6003  0.3889 -0.2017
16261TIP3    H270275   0.809   1.115  12.049  2.0396 -0.2162  1.0163
16262TIP3   OH270276   4.280   2.139  13.502 -0.0785  0.3886 -0.4024
16262TIP3    H170277   4.309   2.062  13.550 -0.4449  0.7085  0.3526
16262TIP3    H270278   4.230   2.105  13.428  1.5619 -0.1440 -1.2914
16263TIP3   OH270279   5.146   2.896   0.463 -0.6372 -0.2270 -0.1162
16263TIP3    H170280   5.092   2.966   0.500  0.2741  0.5768 -0.2733
16263TIP3    H270281   5.235   2.920   0.486 -0.3047 -1.3362 -0.2044
16264TIP3   OH270282   2.373   6.568   6.119 -0.5564  0.1713 -0.8246
16264TIP3    H170283   2.282   6.577   6.147 -0.0450 -1.8555  2.0454
16264TIP3    H270284   2.377   6.609   6.033 -4.5360 -1.0864 -1.8113
16265TIP3   OH270285   1.043   3.835   5.182  0.1837  0.1346  0.2669
16265TIP3    H170286   1.122   3.782   5.191  1.4701  1.4000 -2.2327
16265TIP3    H270287   0.977   3.775   5.149  0.2034 -0.8375  1.9059
16266TIP3   OH270288   2.203   6.203   4.307  0.4056 -0.5335 -0.2509
16266TIP3    H170289   2.113   6.170   4.304  0.9243 -1.9506 -1.1631
16266TIP3    H270290   2.204   6.274   4.243  0.1750 -1.1995 -1.0127
16267TIP3   OH270291   2.690   6.489  14.344  0.8335  0.0651  0.1904
16267TIP3    H170292   2.655   6.414  14.391 -0.4698  0.6348  0.1609
16267TIP3    H270293   2.648   6.486  14.258  1.2973  0.4400 -0.0548
16268TIP3   OH270294   0.548   0.174  16.129  0.0357  0.5588  0.5855
16268TIP3    H170295   0.559   0.212  16.041 -1.6857  1.1360  0.5929
16268TIP3    H270296   0.497   0.095  16.115  0.2647  0.3356  1.0064
16269TIP3   OH270297   4.489   1.547   5.058 -0.0013  0.1130 -0.0373
16269TIP3    H170298   4.555   1.490   5.096  0.4003 -0.2697 -1.2438
16269TIP3    H270299   4.414   1.489   5.041 -0.9682  0.6897  2.0046
16270TIP3   OH270300   5.978   2.105   3.931 -0.1550 -0.2071 -0.6432
16270TIP3    H170301   5.948   2.167   3.864  0.4234  0.6571 -0.1211
16270TIP3    H270302   6.071   2.095   3.915  0.3043  1.1796  0.9175
16271TIP3   OH270303   2.463   3.419  14.957  0.1343 -0.7122  0.1106
16271TIP3    H170304   2.439   3.444  15.046  1.1406  2.1612 -0.3258
16271TIP3    H270305   2.381   3.420  14.908 -0.2743 -1.2973  0.7669
16272TIP3   OH270306   5.510   4.453  12.753  0.1158 -0.3164 -0.1087
16272TIP3    H170307   5.481   4.382  12.697  0.4176  1.2170 -2.3722
16272TIP3    H270308   5.605   4.440  12.761  0.1718 -0.1952 -0.5279
16273TIP3   OH270309   5.027   3.247   4.113 -0.5425  0.2850 -0.1522
16273TIP3    H170310   5.027   3.331   4.158 -4.0505  0.7705 -0.7577
16273TIP3    H270311   4.938   3.237   4.080  0.1383 -2.9920 -1.4630
16274TIP3   OH270312   3.907   3.445  12.529 -0.2779  0.4186  0.1156
16274TIP3    H170313   3.842   3.374  12.532  0.5259 -0.3159  0.5814
16274TIP3    H270314   3.872   3.506  12.464  0.4226 -1.8527 -2.5906
16275TIP3   OH270315   0.053   3.523   1.372  0.3408 -0.3107  0.9330
16275TIP3    H170316   0.025   3.478   1.292 -1.0000 -0.1993  1.3101
16275TIP3    H270317   0.144   3.545   1.357  0.4611 -1.3992 -0.0643
16276TIP3   OH270318   3.240   1.649   2.569  0.1668  0.1711  0.2405
16276TIP3    H170319   3.198   1.636   2.654 -0.2623  0.4116  0.0681
16276TIP3    H270320   3.170   1.681   2.512  0.6982  1.0892  0.0824
16277TIP3   OH270321   2.169   5.447   0.212 -0.1242  0.2278  0.3969
16277TIP3    H170322   2.201   5.537   0.205 -0.7541  0.4841  0.7515
16277TIP3    H270323   2.157   5.433   0.306 -0.8460  0.0747  0.2912
16278TIP3   OH270324   6.440   0.875   0.523  0.0541  0.9036  0.0053
16278TIP3    H170325   6.456   0.928   0.445  2.9216  1.4587  0.8525
16278TIP3    H270326   6.441   0.785   0.491  0.7661  1.1412 -0.6737
16279TIP3   OH270327   2.608   3.035   4.561  0.0239 -0.6550 -0.1484
16279TIP3    H170328   2.690   3.080   4.583  1.3754 -3.4846  1.2105
16279TIP3    H270329   2.629   2.984   4.483 -1.6864  1.4119 -2.0942
16280TIP3   OH270330   5.305   4.653  10.854  0.3380  0.3449  0.2037
16280TIP3    H170331   5.344   4.739  10.867 -0.0757  0.5874 -0.1333
16280TIP3    H270332   5.217   4.671  10.819  0.3512 -0.2134 -0.1400
16281TIP3   OH270333   6.111   2.339   5.787 -0.3047 -0.1914  0.2005
16281TIP3    H170334   6.094   2.245   5.797 -1.0348  0.0025  0.8311
16281TIP3    H270335   6.105   2.374   5.875 -0.8428  0.5878 -0.1404
16282TIP3   OH270336   5.248   5.479   6.127  0.4929 -0.1212 -0.3553
16282TIP3    H170337   5.313   5.515   6.187 -0.2106  1.2101 -0.3408
16282TIP3    H270338   5.298   5.426   6.066  1.1757 -2.0472  1.7366
16283TIP3   OH270339   2.031   3.502  12.350 -0.5232 -0.4434  0.2132
16283TIP3    H170340   1.936   3.491  12.351 -0.6695  0.7090 -0.0235
16283TIP3    H270341   2.054   3.501  12.257 -0.0445 -2.6247  0.3073
16284TIP3   OH270342   2.530   4.726  11.950  0.0534  0.0193  0.3552
16284TIP3    H170343   2.530   4.653  11.887  0.8140 -0.6425  1.0877
16284TIP3    H270344   2.620   4.729  11.981  0.1633  1.6456 -0.0513
16285TIP3   OH270345   3.224   0.383   0.809 -0.6880  0.1270 -0.0535
16285TIP3    H170346   3.139   0.370   0.767 -0.3870  0.6213 -0.8293
16285TIP3    H270347   3.283   0.325   0.762 -0.9457 -1.6923  1.7349
16286TIP3   OH270348   2.876   6.732  12.596  0.4713 -0.0112 -0.4935
16286TIP3    H170349   2.944   6.795  12.618 -0.4325  0.7050  0.3347
16286TIP3    H270350   2.897   6.655  12.650 -0.1656  0.7325  0.8605
16287TIP3   OH270351   6.370   2.262  12.299  1.0426  0.1160 -0.5045
16287TIP3    H170352   6.302   2.251  12.234 -2.2702 -0.0595  2.6620
16287TIP3    H270353   6.399   2.172  12.320 -0.0119 -0.0608  0.2547
16288TIP3   OH270354   5.287   4.654   0.716 -0.0572 -0.2497 -0.1031
16288TIP3    H170355   5.307   4.636   0.807 -1.2283 -0.4212  0.1394
16288TIP3    H270356   5.277   4.750   0.712 -2.2470 -0.3987  0.4779
16289TIP3   OH270357   4.635   5.339  11.783 -0.2857 -0.1592 -0.7469
16289TIP3    H170358   4.577   5.297  11.846 -1.1082 -1.5293 -2.3189
16289TIP3    H270359   4.579   5.358  11.708  1.0586 -0.6112 -1.9219
16290TIP3   OH270360   6.617   0.374  14.837 -0.3448 -1.1893  0.3185
16290TIP3    H170361   6.595   0.330  14.919 -0.3314  0.2578  1.1411
16290TIP3    H270362   6.713   0.374  14.835 -0.3467 -1.3847  0.2103
16291TIP3   OH270363   4.487   2.894   2.151 -1.1768 -0.4927 -0.0043
16291TIP3    H170364   4.411   2.949   2.170 -1.9850 -1.4352 -0.4271
16291TIP3    H270365   4.498   2.841   2.230  0.1860  0.8697  0.7894
16292TIP3   OH270366   1.951   4.242  11.835  0.2058  0.8484 -0.4692
16292TIP3    H170367   1.920   4.182  11.767 -0.7367 -1.3666  1.7544
16292TIP3    H270368   2.016   4.296  11.790 -1.7112  0.8658 -3.5749
16293TIP3   OH270369   0.748   3.070   5.118 -0.4818 -0.6709 -0.4738
16293TIP3    H170370   0.833   3.069   5.075  0.9259 -0.5352  2.1194
16293TIP3    H270371   0.725   2.978   5.129  0.2955 -0.7500  0.5648
16294TIP3   OH270372   1.675   2.581   2.427 -0.3320 -0.1744  0.0180
16294TIP3    H170373   1.647   2.585   2.518 -0.3021  0.5634 -0.0039
16294TIP3    H270374   1.770   2.597   2.430 -0.1790 -0.9792 -0.0722
16295TIP3   OH270375   2.793   6.007   3.231  0.2782 -0.1925 -0.0001
16295TIP3    H170376   2.772   5.941   3.165 -1.2174  0.3440 -0.1016
16295TIP3    H270377   2.732   5.989   3.303  2.0067 -0.8943  1.3651
16296TIP3   OH270378   0.381   5.275  12.464 -0.4508 -0.0369  0.2036
16296TIP3    H170379   0.323   5.346  12.435  1.1320  1.3338  0.2424
16296TIP3    H270380   0.421   5.308  12.544  0.0889 -1.1253  0.4007
16297TIP3   OH270381   3.767   3.001   4.880  0.5141  0.3037  0.8276
16297TIP3    H170382   3.751   2.929   4.818 -1.1300 -0.7392  2.3542
16297TIP3    H270383   3.854   2.983   4.915  0.9776  0.2540 -0.3033
16298TIP3   OH270384   4.466   4.593   6.875  0.2243 -0.3204 -0.2231
16298TIP3    H170385   4.489   4.503   6.853 -0.1697 -0.6903  0.7821
16298TIP3    H270386   4.485   4.600   6.969 -2.9998 -0.4550  0.5556
16299TIP3   OH270387   0.990   2.516   2.077 -0.0764 -0.0059  0.1759
16299TIP3    H170388   0.926   2.444   2.083  0.7492 -1.0074 -1.9836
16299TIP3    H270389   1.073   2.472   2.058  1.4466  1.2213  3.3599
16300TIP3   OH270390   3.490   0.433  15.790 -0.8652  0.2624  0.6282
16300TIP3    H170391   3.519   0.502  15.850 -2.0920  0.6166  0.8457
16300TIP3    H270392   3.434   0.377  15.844 -1.2863  0.0923  0.0263
16301TIP3   OH270393   2.666   0.276   3.990  0.3832  0.0382 -0.0088
16301TIP3    H170394   2.574   0.281   4.015 -0.0011 -0.5568 -1.2573
16301TIP3    H270395   2.701   0.362   4.014 -0.9111  0.9180 -1.0972
16302TIP3   OH270396   4.311   1.494   4.664 -0.0983  0.7665  0.0917
16302TIP3    H170397   4.318   1.530   4.753 -0.5280  1.5470 -0.1838
16302TIP3    H270398   4.273   1.564   4.612 -0.3208  0.1449 -0.6109
16303TIP3   OH270399   5.958   4.576  14.527  0.0173  0.1105  0.7819
16303TIP3    H170400   5.930   4.620  14.447 -0.8156  1.1992  1.6367
16303TIP3    H270401   6.039   4.531  14.503 -0.3242  0.2463 -0.7097
16304TIP3   OH270402   2.240   6.333   6.285 -0.3153 -0.1185 -0.5220
16304TIP3    H170403   2.215   6.292   6.203  1.2215 -1.9713 -0.1282
16304TIP3    H270404   2.305   6.399   6.260  0.4653 -0.9698 -0.7641
16305TIP3   OH270405   1.305   0.382   3.979  0.2447  0.1022 -0.5512
16305TIP3    H170406   1.329   0.356   4.068 -0.6632  1.3477  0.0907
16305TIP3    H270407   1.311   0.478   3.980  1.0930  0.1049 -2.1045
16306TIP3   OH270408   5.935   0.949  12.432  0.1585 -0.1972  0.0116
16306TIP3    H170409   5.942   1.042  12.411  2.0548  0.0354  1.4705
16306TIP3    H270410   5.922   0.907  12.347  3.0527  1.0914 -1.2143
16307TIP3   OH270411   1.823   6.653   0.722  0.5747  0.7445  0.6372
16307TIP3    H170412   1.912   6.681   0.698  0.2403  2.5153  1.2739
16307TIP3    H270413   1.766   6.700   0.661  0.0797 -1.1212 -0.3882
16308TIP3   OH270414   6.181   2.724   5.435 -0.1808  0.5209 -0.1943
16308TIP3    H170415   6.088   2.702   5.435 -0.4946  1.7752 -0.5354
16308TIP3    H270416   6.201   2.742   5.527 -0.1963 -0.0029 -0.0823
16309TIP3   OH270417   1.257   4.341   3.421  0.3359 -0.0922  0.1070
16309TIP3    H170418   1.201   4.318   3.495 -0.2373 -0.3931 -0.4129
16309TIP3    H270419   1.216   4.418   3.382 -0.1998 -0.7982 -0.7683
16310TIP3   OH270420   2.525   0.662  13.797  0.5711 -0.1620  0.3350
16310TIP3    H170421   2.479   0.714  13.863  0.5091 -0.7956  0.7916
16310TIP3    H270422   2.611   0.645  13.836 -0.1082 -2.1294  1.0783
16311TIP3   OH270423   4.201   1.665   6.491 -0.5235 -0.1790 -0.0251
16311TIP3    H170424   4.289   1.684   6.458  0.7709 -3.0468  1.3985
16311TIP3    H270425   4.169   1.596   6.433 -1.4689  0.1764  0.0639
16312TIP3   OH270426   2.089   5.439   1.337  0.0539  0.1444  0.3860
16312TIP3    H170427   2.050   5.423   1.423 -1.2756 -1.2787 -0.4344
16312TIP3    H270428   2.178   5.405   1.344 -0.1584 -0.2865  1.0979
16313TIP3   OH270429   4.928   1.182   4.743  0.4806 -0.3513 -0.0468
16313TIP3    H170430   4.902   1.148   4.657  0.5685  1.3754 -0.8100
16313TIP3    H270431   4.871   1.258   4.756  1.3680  0.1888  0.8059
16314TIP3   OH270432   1.802   4.012  15.971 -0.3808 -0.0237  0.2797
16314TIP3    H170433   1.876   4.048  15.924  0.6430 -0.5751  1.4041
16314TIP3    H270434   1.824   3.919  15.983 -0.7715  0.0148  1.4634
16315TIP3   OH270435   1.035   1.649   1.107 -0.3610 -0.0361 -0.7059
16315TIP3    H170436   1.128   1.648   1.131 -0.7127 -0.5570  0.7305
16315TIP3    H270437   0.992   1.597   1.175 -2.0530  2.2615  0.1009
16316TIP3   OH270438   4.313   2.544  16.727  0.2710 -0.1662 -0.2046
16316TIP3    H170439   4.353   2.462  16.757 -0.0317 -0.6762 -1.1564
16316TIP3    H270440   4.224   2.520  16.703  0.0220  0.5538 -0.0377
16317TIP3   OH270441   5.421   4.330  15.127 -0.4297  0.3245 -0.4687
16317TIP3    H170442   5.471   4.396  15.175 -0.3158 -1.2152  1.6832
16317TIP3    H270443   5.382   4.378  15.053 -0.3703  2.7690  0.9865
16318TIP3   OH270444   4.229   3.332   3.494  0.2739 -0.0951  0.1978
16318TIP3    H170445   4.293   3.325   3.565 -0.3678 -1.5813  0.6702
16318TIP3    H270446   4.202   3.424   3.495  0.8668  0.0915  1.3495
16319TIP3   OH270447   0.310   1.977  15.725 -0.0992 -0.3864  0.9496
16319TIP3    H170448   0.256   1.945  15.652  1.6419  1.0845 -1.1014
16319TIP3    H270449   0.370   1.905  15.743  1.2446  0.1573 -1.0049
16320TIP3   OH270450   5.928   0.594  16.777  0.0443 -0.3639  0.2564
16320TIP3    H170451   5.943   0.603  16.871 -0.1634  1.5996  0.1384
16320TIP3    H270452   5.854   0.533  16.770  0.5613 -1.1341  1.3132
16321TIP3   OH270453   1.109   4.641  16.759  0.2658 -0.8335  0.3099
16321TIP3    H170454   1.075   4.656  16.671  0.8799  1.5852  0.4179
16321TIP3    H270455   1.044   4.679  16.817  1.4247  0.6320  0.6992
16322TIP3   OH270456   0.059   1.511   3.407 -0.7703  0.4369 -0.2222
16322TIP3    H170457   0.105   1.481   3.486  0.3110 -1.4170 -1.4721
16322TIP3    H270458  -0.001   1.579   3.439  0.6908  0.8370  1.9510
16323TIP3   OH270459   1.486   4.530   2.237  0.8885  0.2484  1.2401
16323TIP3    H170460   1.453   4.616   2.211 -1.2344 -0.7286  0.4792
16323TIP3    H270461   1.524   4.493   2.157  0.4642 -0.0800  1.1833
16324TIP3   OH270462   5.944   3.238  16.405  0.2023  0.3177 -0.0116
16324TIP3    H170463   6.000   3.315  16.409  0.2643  0.2620  0.1980
16324TIP3    H270464   6.003   3.165  16.386  0.0151  0.4644 -1.2913
16325TIP3   OH270465   4.145   2.510  17.196  0.0129 -0.0304  0.0850
16325TIP3    H170466   4.146   2.581  17.260 -1.4832 -0.2520  0.4059
16325TIP3    H270467   4.232   2.471  17.202  1.0656  2.1253 -0.5344
16326TIP3   OH270468   1.300   5.359   1.055 -0.0471  0.3167 -0.2977
16326TIP3    H170469   1.394   5.345   1.043  0.2321  1.3253  0.6181
16326TIP3    H270470   1.264   5.352   0.966  0.8669 -0.2075 -0.6442
16327TIP3   OH270471   3.832   3.191  15.783  0.4509  0.2656  0.3840
16327TIP3    H170472   3.921   3.222  15.765  0.8999  0.2502  2.2959
16327TIP3    H270473   3.776   3.267  15.767  0.9712  0.6467  0.3528
16328TIP3   OH270474   4.175   5.946   4.453  0.4247  0.9479 -0.1797
16328TIP3    H170475   4.099   5.940   4.395 -0.5195  2.1385  0.8841
16328TIP3    H270476   4.243   5.896   4.407 -0.2566  1.8469 -2.3211
16329TIP3   OH270477   5.218   3.918  17.225 -0.3126  0.3393 -0.3992
16329TIP3    H170478   5.278   3.844  17.220  1.2353  1.5408 -0.6228
16329TIP3    H270479   5.134   3.880  17.249  0.3763 -1.4983 -0.7606
16330TIP3   OH270480   3.872   6.093  11.064 -0.9467  0.0963 -0.2489
16330TIP3    H170481   3.816   6.162  11.028 -0.6118 -0.3752 -1.7332
16330TIP3    H270482   3.896   6.126  11.151 -0.1067  2.2607 -1.2208
16331TIP3   OH270483   4.043   1.211   5.475 -0.0282  0.0619  0.3781
16331TIP3    H170484   4.100   1.276   5.433  0.8522  0.0255  1.4628
16331TIP3    H270485   3.958   1.254   5.482 -0.5239 -0.2936 -2.3329
16332TIP3   OH270486   3.267   0.752   4.718  0.5444  0.6027  0.1157
16332TIP3    H170487   3.299   0.730   4.630  1.1682  0.5212  0.3579
16332TIP3    H270488   3.259   0.847   4.717  0.6043  0.6068 -0.0104
16333TIP3   OH270489   2.159   3.188   0.038  1.1901 -0.5421  0.4675
16333TIP3    H170490   2.078   3.223  -0.000  0.5460 -1.0237  1.3612
16333TIP3    H270491   2.162   3.226   0.126  1.0482 -1.8441  1.0532
16334TIP3   OH270492   2.576   0.923   6.798 -0.2603  0.0051  0.6938
16334TIP3    H170493   2.631   0.948   6.873  0.5784 -1.5217  0.6418
16334TIP3    H270494   2.609   0.976   6.725  0.8063 -0.4751  0.7996
16335TIP3   OH270495   3.972   3.613  14.462  0.1045 -0.5637 -0.8076
16335TIP3    H170496   3.921   3.579  14.388 -0.1419 -1.5701 -0.2009
16335TIP3    H270497   4.035   3.543  14.482  1.4776  0.4933 -1.2882
16336TIP3   OH270498   5.484   2.288   1.125 -0.0158  0.3384  0.1487
16336TIP3    H170499   5.457   2.336   1.203 -1.1340 -1.9379  1.2432
16336TIP3    H270500   5.558   2.235   1.153 -1.1673 -1.4037  0.0683
16337TIP3   OH270501   4.394   4.155   3.358 -0.3613  0.5703 -0.0782
16337TIP3    H170502   4.306   4.129   3.329 -0.1085  0.0578 -0.3911
16337TIP3    H270503   4.449   4.143   3.281 -0.0555  1.1339  0.0451
16338TIP3   OH270504   3.961   3.970   5.062  0.1878 -0.3003 -0.2979
16338TIP3    H170505   4.049   3.970   5.024  0.5568 -0.6019  0.5414
16338TIP3    H270506   3.936   3.877   5.062  0.4804 -0.3946  0.8250
16339TIP3   OH270507   6.503   1.254   3.639 -0.0790  0.7104  0.5047
16339TIP3    H170508   6.490   1.259   3.733 -2.2814 -0.4961  0.3378
16339TIP3    H270509   6.562   1.180   3.626 -0.5073  0.2924  0.9066
16340TIP3   OH270510   2.709   5.234   5.336  0.1637  0.0317 -0.5841
16340TIP3    H170511   2.675   5.300   5.397 -1.1968 -0.3794 -0.8658
16340TIP3    H270512   2.633   5.209   5.284  1.1470 -0.1347 -1.9903
16341TIP3   OH270513   1.157   1.248   0.196  0.0317  0.0794  0.5445
16341TIP3    H170514   1.072   1.282   0.168 -0.2453 -0.2201  1.0267
16341TIP3    H270515   1.220   1.312   0.163 -0.3903  0.3755  0.3081
16342TIP3   OH270516   0.321   2.022  17.258 -0.1066  0.3128 -0.7072
16342TIP3    H170517   0.392   2.047  17.199  0.5127  0.2641  0.0076
16342TIP3    H270518   0.248   2.001  17.199  1.4146 -2.8461 -1.7028
16343TIP3   OH270519   2.651   6.659  12.463 -0.2891  0.4056 -0.2092
16343TIP3    H170520   2.671   6.647  12.370 -1.6729 -0.9433 -0.3803
16343TIP3    H270521   2.731   6.696  12.501  0.3733  0.7572 -1.8856
16344TIP3   OH270522   1.359   6.014   0.155 -0.4525 -0.4370  0.3984
16344TIP3    H170523   1.340   6.071   0.081  0.6547 -0.3082  0.2057
16344TIP3    H270524   1.398   6.071   0.221  1.3144 -1.0546 -0.0607
16345TIP3   OH270525   3.400   3.348   6.958 -1.0301 -0.0709  0.0990
16345TIP3    H170526   3.462   3.420   6.968 -1.9740  0.4782  3.1637
16345TIP3    H270527   3.324   3.387   6.917 -0.6949  0.1248 -0.3400
16346TIP3   OH270528   2.175   0.772  16.126 -0.3970 -0.9280  0.4050
16346TIP3    H170529   2.135   0.754  16.212 -0.8518 -0.0783  0.3920
16346TIP3    H270530   2.106   0.817  16.077  0.6105  0.7130  0.4291
16347TIP3   OH270531   2.829   0.256   0.092  0.0092  0.3652  0.3319
16347TIP3    H170532   2.891   0.276   0.161  0.8806 -2.6920  0.5846
16347TIP3    H270533   2.883   0.245   0.013 -0.2068 -1.5302  0.3900
16348TIP3   OH270534   4.460   5.940   5.374  0.4424 -0.1216 -0.6061
16348TIP3    H170535   4.430   5.864   5.324 -0.8937  0.1688 -0.2802
16348TIP3    H270536   4.525   5.904   5.434 -0.1421 -1.0172 -0.4842
16349TIP3   OH270537   4.543   4.488  13.429 -0.1099  0.0806  0.6768
16349TIP3    H170538   4.589   4.435  13.364  0.5620 -0.0084  1.2130
16349TIP3    H270539   4.533   4.431  13.505 -3.5167 -0.8161 -0.3172
16350TIP3   OH270540   4.597   1.567  12.014  0.3444 -0.5583 -0.7945
16350TIP3    H170541   4.645   1.645  11.988 -1.2470  0.3371 -1.1732
16350TIP3    H270542   4.664   1.500  12.027  1.6884  0.7087 -1.0306
16351TIP3   OH270543   3.272   0.042   4.116  0.3461 -0.1250  0.2541
16351TIP3    H170544   3.226  -0.041   4.103  0.7785 -0.3187 -0.0701
16351TIP3    H270545   3.260   0.089   4.033 -0.3947  0.3879  0.6410
16352TIP3   OH270546   1.909   1.655  16.928  0.3573  0.3554  0.6013
16352TIP3    H170547   1.844   1.660  16.998 -0.8420 -2.7552 -0.0840
16352TIP3    H270548   1.895   1.568  16.889  2.7698  0.8760 -1.7440
16353TIP3   OH270549   6.187   2.080  14.182 -0.2124 -0.3981 -0.3838
16353TIP3    H170550   6.241   2.026  14.240  0.3527  1.9795  1.4747
16353TIP3    H270551   6.171   2.160  14.231 -2.9212  0.2731 -2.0961
16354TIP3   OH270552   4.554   1.691  16.167 -0.2577 -0.4562 -0.6711
16354TIP3    H170553   4.588   1.645  16.244  1.4931 -0.8545 -1.6095
16354TIP3    H270554   4.631   1.735  16.130 -0.9921 -0.4898 -2.3251
16355TIP3   OH270555   3.279   2.024   2.685 -0.1974  0.0613 -0.1573
16355TIP3    H170556   3.368   2.057   2.696 -0.7064  1.0039  1.5389
16355TIP3    H270557   3.285   1.931   2.703  0.1962  0.4099  1.6591
16356TIP3   OH270558   3.134   5.416  17.539  0.1268  0.0328  0.2521
16356TIP3    H170559   3.098   5.457  17.460 -1.3751 -2.3993 -0.4222
16356TIP3    H270560   3.071   5.437  17.608  0.5893  0.7803  0.4606
16357TIP3   OH270561   1.462   5.431   2.266 -0.4356 -0.0854 -0.4010
16357TIP3    H170562   1.536   5.381   2.302 -0.4011 -0.3889 -0.8874
16357TIP3    H270563   1.401   5.440   2.339  1.8710  3.8404  1.3797
16358TIP3   OH270564   1.166   3.773   3.622 -0.6257  0.3136 -0.0405
16358TIP3    H170565   1.214   3.729   3.692 -0.3356 -0.5417 -0.7600
16358TIP3    H270566   1.200   3.862   3.622  2.7133 -0.8024 -1.9915
16359TIP3   OH270567   4.297   3.167  14.001  0.2644  0.2313  0.5326
16359TIP3    H170568   4.260   3.086  13.966 -2.2948  1.8927 -1.0173
16359TIP3    H270569   4.389   3.165  13.975 -0.2072 -1.3073 -1.2060
16360TIP3   OH270570   6.349   2.442   5.663  0.1499 -0.1500  0.4615
16360TIP3    H170571   6.318   2.464   5.575  1.1663  0.3325  0.2092
16360TIP3    H270572   6.269   2.433   5.715 -0.4012  2.2265  0.1295
16361TIP3   OH270573   6.072   1.262  11.126  0.3480  0.0420  0.1198
16361TIP3    H170574   6.159   1.282  11.091  1.1100 -0.4742  1.6439
16361TIP3    H270575   6.089   1.216  11.208 -1.3734  0.4628  0.7485
16362TIP3   OH270576   5.544   0.620  14.155  0.0947  0.1940  0.9584
16362TIP3    H170577   5.523   0.527  14.155 -1.1317  0.3600 -2.0034
16362TIP3    H270578   5.634   0.625  14.188  0.9602 -2.2966 -0.7476
16363TIP3   OH270579   6.405   1.317  15.897  0.0743 -0.3855 -0.0695
16363TIP3    H170580   6.352   1.366  15.835 -0.5527 -0.5084  0.3535
16363TIP3    H270581   6.453   1.254  15.844  0.6284  0.4527 -0.5790
16364TIP3   OH270582   3.958   2.289  17.198 -0.5694 -0.0503 -0.1161
16364TIP3    H170583   3.867   2.319  17.188 -0.4882  1.0105  1.8913
16364TIP3    H270584   4.010   2.368  17.188  0.1076 -0.5579 -0.6618
16365TIP3   OH270585   0.314   6.474  12.219  0.1045  0.0268  0.1828
16365TIP3    H170586   0.352   6.474  12.131  0.0599  1.3532  0.1467
16365TIP3    H270587   0.260   6.395  12.222  0.9204 -0.5771 -0.6123
16366TIP3   OH270588   1.366   3.732   5.362  0.4107 -0.3145  0.1133
16366TIP3    H170589   1.331   3.712   5.275 -1.0942 -0.0374  0.6397
16366TIP3    H270590   1.373   3.827   5.364 -0.3507 -0.2647  0.5897
16367TIP3   OH270591   1.227   3.767   1.147  0.1341 -0.3547  0.0732
16367TIP3    H170592   1.140   3.753   1.108 -0.8684  0.3058  1.9606
16367TIP3    H270593   1.284   3.782   1.072 -1.2764 -1.2792 -1.2504
16368TIP3   OH270594   4.298   5.137   2.281  0.4997 -0.1039 -0.7344
16368TIP3    H170595   4.289   5.048   2.248 -1.6519 -0.3495  0.3285
16368TIP3    H270596   4.321   5.126   2.373 -0.2165  0.4085 -0.4862
16369TIP3   OH270597   1.132   0.493   2.094 -0.6303 -0.5462  0.0662
16369TIP3    H170598   1.107   0.560   2.158 -1.7778  0.0436 -0.9732
16369TIP3    H270599   1.126   0.536   2.009 -0.7248 -1.7778 -0.5796
16370TIP3   OH270600   5.043   1.894  11.792 -0.9155 -0.6036 -0.3873
16370TIP3    H170601   5.075   1.823  11.737 -1.8267 -1.1783 -0.1909
16370TIP3    H270602   5.017   1.963  11.731 -1.2235 -0.9404 -0.6357
16371TIP3   OH270603   1.774   1.990  13.804 -0.1647  0.2648  0.0906
16371TIP3    H170604   1.774   1.902  13.842 -2.8163  1.1445  2.5360
16371TIP3    H270605   1.822   2.043  13.867 -1.0061  1.0434  0.0879
16372TIP3   OH270606   5.956   1.307  11.923 -0.0468 -0.3686  0.6859
16372TIP3    H170607   5.866   1.294  11.952 -0.5002  0.3738 -0.3028
16372TIP3    H270608   5.972   1.401  11.933  0.0876 -0.2393 -0.5177
16373TIP3   OH270609   3.614   1.884   2.798 -0.2022 -0.0183  0.0184
16373TIP3    H170610   3.593   1.929   2.880  2.1023  0.6047  0.3222
16373TIP3    H270611   3.623   1.954   2.734  0.2268 -0.3265 -0.2600
16374TIP3   OH270612   3.422   3.231  14.592 -0.6018 -0.4662  0.3425
16374TIP3    H170613   3.469   3.164  14.541  0.2078  0.5499 -0.2965
16374TIP3    H270614   3.473   3.311  14.578 -2.6245  0.7423 -0.5162
16375TIP3   OH270615   0.976   3.964   5.881  0.1873 -0.1922  0.5914
16375TIP3    H170616   1.031   4.039   5.901 -2.2513  1.8215  0.3145
16375TIP3    H270617   0.981   3.955   5.786 -3.9350  3.6148 -0.3010
16376TIP3   OH270618   2.646   1.089  16.871 -0.4517 -0.1244  0.4783
16376TIP3    H170619   2.716   1.140  16.830 -0.6412 -0.2754 -0.0485
16376TIP3    H270620   2.598   1.051  16.797 -1.4673  0.4718  0.8109
16377TIP3   OH270621   1.780   5.438  17.620 -0.1442 -0.5186  0.3306
16377TIP3    H170622   1.699   5.407  17.578  0.5051  0.9814 -2.2054
16377TIP3    H270623   1.847   5.378  17.589  0.1096 -0.2655  0.3912
16378TIP3   OH270624   0.873   0.720   5.972  0.6346 -0.0917  0.5839
16378TIP3    H170625   0.922   0.655   5.923  1.4605  1.4540 -0.7586
16378TIP3    H270626   0.877   0.690   6.063 -1.0211 -3.0900 -0.2187
16379TIP3   OH270627   5.496   1.610  13.571 -0.3127  0.0543  0.3784
16379TIP3    H170628   5.426   1.656  13.525 -0.2287  0.1699  0.3664
16379TIP3    H270629   5.574   1.663  13.557  0.2886 -1.2153 -1.5147
16380TIP3   OH270630   4.289   3.267  17.555 -0.2453 -0.3846 -0.5854
16380TIP3    H170631   4.297   3.253  17.650 -1.5408  0.9025 -0.2452
16380TIP3    H270632   4.235   3.194  17.524 -0.4896 -0.3805 -0.1785
16381TIP3   OH270633   0.892   2.014  11.831 -0.0014  0.2831 -0.2074
16381TIP3    H170634   0.973   1.974  11.800 -0.8851 -1.4083 -0.4478
16381TIP3    H270635   0.867   1.962  11.908 -0.6877  0.9899  0.0652
16382TIP3   OH270636   3.242   6.150  11.956 -0.8076  0.8873 -0.4081
16382TIP3    H170637   3.301   6.218  11.923  0.7207  0.1309  0.6097
16382TIP3    H270638   3.254   6.154  12.051  2.4036 -3.2752 -0.3635
16383TIP3   OH270639   3.006   3.915   3.468  0.2550 -0.4832  0.0727
16383TIP3    H170640   2.972   3.842   3.415 -0.3812  0.2265 -0.5144
16383TIP3    H270641   2.937   3.981   3.464  0.6833  0.0220  0.8865
16384TIP3   OH270642   5.453   1.130   0.486  0.5814  0.2892  0.3438
16384TIP3    H170643   5.516   1.060   0.469 -1.5815 -2.2746  1.9724
16384TIP3    H270644   5.417   1.151   0.400  2.7306  1.0120 -0.4583
16385TIP3   OH270645   2.341   5.561  11.708 -0.8297 -0.8538 -0.0198
16385TIP3    H170646   2.248   5.581  11.695 -0.5968  0.3895  0.0878
16385TIP3    H270647   2.361   5.494  11.643 -1.8799 -1.3711  0.1784
16386TIP3   OH270648   4.069   6.030   5.681 -0.0081  0.5449 -0.0080
16386TIP3    H170649   4.129   6.103   5.672 -0.4419  0.8827 -0.1912
16386TIP3    H270650   4.110   5.958   5.633  0.1633  0.8244 -0.2752
16387TIP3   OH270651   2.043   2.649   2.405  0.2174 -0.5165  0.1191
16387TIP3    H170652   2.011   2.734   2.373 -1.1319 -0.4506  1.5336
16387TIP3    H270653   2.004   2.585   2.345 -0.8120 -0.2839  0.5177
16388TIP3   OH270654   5.819   2.794   6.554  0.3179 -0.5712 -0.3771
16388TIP3    H170655   5.869   2.873   6.533  0.6758 -0.9174 -0.8588
16388TIP3    H270656   5.868   2.753   6.625 -1.2401  0.9328  1.6813
16389TIP3   OH270657   3.318   1.588   6.622 -0.3980 -0.2514  0.1289
16389TIP3    H170658   3.352   1.610   6.535  1.2401  0.8751  0.9974
16389TIP3    H270659   3.390   1.608   6.681 -1.2016 -1.7426  1.6955
16390TIP3   OH270660   2.465   5.011   1.163 -0.1303  0.4986 -0.1293
16390TIP3    H170661   2.370   5.004   1.156 -0.0036 -1.3661 -0.4554
16390TIP3    H270662   2.480   5.054   1.247 -1.2621  2.1553 -0.7263
16391TIP3   OH270663   5.668   4.446  16.250  0.0260  0.4626 -0.5412
16391TIP3    H170664   5.694   4.446  16.157  0.1039  0.0675 -0.5194
16391TIP3    H270665   5.689   4.358  16.281  0.7816  0.8453  0.0698
16392TIP3   OH270666   3.411   5.521   3.949 -0.3677  0.2997  1.0712
16392TIP3    H170667   3.432   5.551   3.861 -0.5503 -1.9262  0.2332
16392TIP3    H270668   3.479   5.559   4.004  0.3081  0.9285 -0.1642
16393TIP3   OH270669   3.479   3.347  11.912 -0.5164  0.3477  0.0657
16393TIP3    H170670   3.431   3.302  11.981 -0.4451 -0.1546 -0.2122
16393TIP3    H270671   3.494   3.281  11.845  1.6433  0.1497  0.6662
16394TIP3   OH270672   4.495   6.307   1.917 -0.1084 -0.3652 -0.0363
16394TIP3    H170673   4.407   6.324   1.885  0.5221  2.1413 -0.6530
16394TIP3    H270674   4.501   6.212   1.923 -2.7894 -0.5916 -0.0792
16395TIP3   OH270675   2.263   2.320   4.090  0.4822  0.4389  0.0677
16395TIP3    H170676   2.328   2.336   4.022  1.0869 -0.3052  0.4431
16395TIP3    H270677   2.228   2.233   4.070 -0.3076  0.7744 -0.0479
16396TIP3   OH270678   0.080   6.515  10.597 -0.4229 -0.6829 -0.0844
16396TIP3    H170679   0.000   6.567  10.587 -0.4307 -0.4757  1.0116
16396TIP3    H270680   0.051   6.433  10.635 -0.1331 -0.6806  0.1434
16397TIP3   OH270681   2.883   4.108  14.846  0.0210 -0.3840  0.5194
16397TIP3    H170682   2.838   4.046  14.902  0.3682 -2.1044 -1.0196
16397TIP3    H270683   2.814   4.165  14.811 -0.4893 -0.7968  0.8596
16398TIP3   OH270684   2.834   5.193  15.223 -0.6849 -0.1826  0.1987
16398TIP3    H170685   2.774   5.262  15.196  0.4018  0.5664 -0.3735
16398TIP3    H270686   2.882   5.230  15.297  0.1577 -0.1787 -0.3414
16399TIP3   OH270687   0.873   0.621   5.517  0.7498  0.1794 -0.2787
16399TIP3    H170688   0.779   0.631   5.533  0.2226  0.7551 -3.1893
16399TIP3    H270689   0.885   0.527   5.505  0.7491 -0.0015  1.0253
16400TIP3   OH270690   2.780   3.949   3.800  0.4750  0.3735  0.2077
16400TIP3    H170691   2.700   3.948   3.748 -0.5562 -1.0099  1.7008
16400TIP3    H270692   2.810   3.858   3.799  2.0211  0.8612 -0.2933
16401TIP3   OH270693   5.380   0.824  15.346 -0.1463  0.0680  0.1853
16401TIP3    H170694   5.360   0.916  15.363  0.4078  0.0451  1.0422
16401TIP3    H270695   5.408   0.790  15.431  0.3199 -0.7146 -0.2732
16402TIP3   OH270696   4.919   2.092  14.898  0.3365  0.7300  0.9044
16402TIP3    H170697   4.954   2.020  14.950  0.1064  0.2812  0.4611
16402TIP3    H270698   4.838   2.117  14.943 -0.8218 -0.8543 -0.1535
16403TIP3   OH270699   5.763   3.607  13.308 -0.1503 -0.0404  0.4815
16403TIP3    H170700   5.795   3.691  13.342 -0.5056  0.6492 -0.8080
16403TIP3    H270701   5.822   3.587  13.235  0.2846 -1.2223  1.1256
16404TIP3   OH270702   1.833   1.629  16.219 -0.3449  0.0473  0.2446
16404TIP3    H170703   1.782   1.548  16.222  0.2072 -0.3540 -0.7404
16404TIP3    H270704   1.920   1.604  16.250  1.1281 -0.8225 -3.9192
16405TIP3   OH270705   3.739   1.460  14.390  0.1359  0.3362 -0.1083
16405TIP3    H170706   3.783   1.453  14.475 -0.7805  0.2745  0.3808
16405TIP3    H270707   3.690   1.543  14.396  0.3982  0.5374 -0.7362
16406TIP3   OH270708   1.330   4.159  14.987 -0.4264  0.6983 -0.2960
16406TIP3    H170709   1.282   4.119  15.059  1.2983  1.4704  1.3637
16406TIP3    H270710   1.363   4.085  14.936  0.6195  0.0195  1.2944
16407TIP3   OH270711   5.809   6.559  12.955  0.6594  0.0185  0.1390
16407TIP3    H170712   5.829   6.466  12.961  0.7675  0.0568  0.3914
16407TIP3    H270713   5.761   6.568  12.873  1.2103 -0.1577 -0.2061
16408TIP3   OH270714   5.390   3.906   4.973 -0.0985 -0.5985  0.2781
16408TIP3    H170715   5.389   3.902   5.069  0.0578 -2.1212  0.2335
16408TIP3    H270716   5.309   3.950   4.950 -0.8369 -1.4995  1.0815
16409TIP3   OH270717   0.425   0.871  17.497  0.2281  0.4136 -0.1373
16409TIP3    H170718   0.461   0.920  17.424 -1.1417  3.5346  1.1112
16409TIP3    H270719   0.372   0.803  17.456  0.8764  0.9642 -1.9939
16410TIP3   OH270720   2.699   0.991  12.258 -0.4261  0.7155 -0.1023
16410TIP3    H170721   2.792   1.011  12.265  0.4861 -3.2426  1.4640
16410TIP3    H270722   2.680   0.999  12.165  1.5236  1.2628 -0.5012
16411TIP3   OH270723   0.507   1.117  12.035  0.2662 -0.1801 -0.0029
16411TIP3    H170724   0.561   1.039  12.026 -0.1944 -0.8576  2.4186
16411TIP3    H270725   0.430   1.087  12.083  0.0877  1.7568  1.0083
16412TIP3   OH270726   1.999   0.959  15.994  0.2806 -0.3947  0.0115
16412TIP3    H170727   1.926   0.935  16.051  0.5260  0.0588  0.5325
16412TIP3    H270728   1.974   1.044  15.958  0.4031 -0.3956 -0.0768
16413TIP3   OH270729   4.759   4.385  13.004  0.2454 -0.0990  0.2117
16413TIP3    H170730   4.822   4.324  12.967 -0.5245 -1.4097  0.9670
16413TIP3    H270731   4.699   4.405  12.931  2.9942  3.4525 -1.4052
16414TIP3   OH270732   2.123   3.518   0.083 -0.0201 -0.1812  0.1284
16414TIP3    H170733   2.138   3.528   0.177  1.2051  0.9896 -0.1442
16414TIP3    H270734   2.211   3.506   0.046 -0.4337 -0.1539 -0.9077
16415TIP3   OH270735   0.174   0.606  10.574 -0.0115 -0.4283  0.0163
16415TIP3    H170736   0.121   0.550  10.516  0.8295 -0.5236 -0.6821
16415TIP3    H270737   0.211   0.672  10.516  1.4967 -0.9986  0.2921
16416TIP3   OH270738   0.631   2.486  13.794 -0.2299  0.3553 -0.2403
16416TIP3    H170739   0.662   2.549  13.859  2.1785 -0.6355 -0.3252
16416TIP3    H270740   0.647   2.529  13.710  0.7753 -0.0603 -0.2760
16417TIP3   OH270741   0.404   0.676   2.658 -0.1000  0.5336 -0.2859
16417TIP3    H170742   0.495   0.693   2.682 -0.0662 -0.0376 -0.0006
16417TIP3    H270743   0.355   0.688   2.740 -0.2706  0.7343 -0.4156
16418TIP3   OH270744   1.876   0.477   2.601  0.1343 -0.1047  0.0950
16418TIP3    H170745   1.917   0.390   2.599 -0.9262 -0.6117 -0.2908
16418TIP3    H270746   1.913   0.523   2.526 -0.2982 -0.6953 -0.4845
16419TIP3   OH270747   5.057   4.921   3.506  0.6294 -0.3980  0.1805
16419TIP3    H170748   5.047   4.955   3.418  1.0145 -0.4952  0.0939
16419TIP3    H270749   5.012   4.983   3.562 -0.2094 -0.7000 -0.1509
16420TIP3   OH270750   0.823   1.927   2.152 -0.4671 -0.4117 -0.0545
16420TIP3    H170751   0.802   1.984   2.226  1.1661 -1.1726  1.0640
16420TIP3    H270752   0.843   1.986   2.080 -0.1726  0.3980  0.6801
16421TIP3   OH270753   3.120   3.238  15.182 -0.2174 -0.2345  0.3051
16421TIP3    H170754   3.115   3.206  15.092  2.7035  0.2648 -0.1188
16421TIP3    H270755   3.212   3.261  15.195 -0.4632 -0.5797  3.5463
16422TIP3   OH270756   1.270   3.437   2.828 -0.3547 -0.7579 -0.1582
16422TIP3    H170757   1.307   3.356   2.795  2.1076  0.4177 -0.4800
16422TIP3    H270758   1.260   3.492   2.751  2.1126  0.7392  0.4926
16423TIP3   OH270759   5.323   1.278  16.900 -0.1065 -0.2875  0.0710
16423TIP3    H170760   5.297   1.225  16.824  0.3670  1.5962 -1.4643
16423TIP3    H270761   5.417   1.288  16.891 -0.1681  0.6550  0.4518
16424TIP3   OH270762   1.779   1.128  14.173 -0.1646  0.9716 -0.0710
16424TIP3    H170763   1.751   1.037  14.181 -0.0066  0.7845 -1.4271
16424TIP3    H270764   1.786   1.159  14.263 -3.2686  0.5870  0.4115
16425TIP3   OH270765   5.040   0.956  16.438  0.1561 -0.3369  0.0218
16425TIP3    H170766   5.128   0.950  16.400 -0.3042 -1.1179 -0.9923
16425TIP3    H270767   5.029   1.049  16.458  1.0335 -0.1566 -0.2642
16426TIP3   OH270768   0.680   6.291   3.957  0.7798  0.6186  0.2403
16426TIP3    H170769   0.601   6.310   4.007 -0.1709 -1.9728 -0.1166
16426TIP3    H270770   0.691   6.366   3.899 -1.6533  0.8875  0.0227
16427TIP3   OH270771   6.180   6.170  11.253  0.0303 -0.2364 -0.4982
16427TIP3    H170772   6.263   6.160  11.299 -0.8099  1.6534  1.6304
16427TIP3    H270773   6.118   6.196  11.321 -1.7593  0.8271 -2.4169
16428TIP3   OH270774   5.367   5.891  15.649  0.1062 -0.2661 -0.0593
16428TIP3    H170775   5.322   5.944  15.583 -0.4288 -1.8119 -1.0087
16428TIP3    H270776   5.361   5.941  15.730 -2.0821  0.2463 -0.4771
16429TIP3   OH270777   5.046   4.621  11.447 -0.5806  0.6950 -0.0480
16429TIP3    H170778   5.075   4.635  11.357 -1.4016  0.0012 -0.4465
16429TIP3    H270779   5.118   4.652  11.501 -0.4862  2.0948 -0.9227
16430TIP3   OH270780   4.062   3.277   3.821  0.7993  0.1199  0.0953
16430TIP3    H170781   3.971   3.291   3.847  0.6264 -0.2062 -0.3303
16430TIP3    H270782   4.100   3.365   3.822 -0.1246  0.5993 -1.9473
16431TIP3   OH270783   5.471   0.419  14.843 -0.2328 -0.3782  0.0246
16431TIP3    H170784   5.474   0.335  14.797 -0.2935 -1.6710  2.2357
16431TIP3    H270785   5.542   0.414  14.908 -1.0497  0.7302  1.0547
16432TIP3   OH270786   1.990   4.435  12.361  0.4844 -0.2341 -0.6377
16432TIP3    H170787   1.946   4.422  12.277 -1.2709  2.4291 -0.2536
16432TIP3    H270788   1.931   4.396  12.426  1.1728 -1.0699 -0.4915
16433TIP3   OH270789   5.267   4.378   1.363 -0.1671 -0.6067 -0.1854
16433TIP3    H170790   5.187   4.331   1.339  0.3086 -1.1792 -0.6976
16433TIP3    H270791   5.324   4.310   1.400 -0.2414 -0.0455  1.0273
16434TIP3   OH270792   3.666   0.310   0.276  0.2234  0.0286  0.3134
16434TIP3    H170793   3.615   0.257   0.215 -0.2608 -0.3257  1.0065
16434TIP3    H270794   3.740   0.342   0.224 -0.6389  0.4705 -0.6775
16435TIP3   OH270795   3.877   2.969  17.100 -0.0092 -0.0214  0.0785
16435TIP3    H170796   3.895   2.922  17.018  2.0415 -0.4163  0.7117
16435TIP3    H270797   3.949   3.031  17.108 -0.7328  0.7143  1.1087
16436TIP3   OH270798   6.340   6.050  11.534  0.0143 -0.8737 -0.6190
16436TIP3    H170799   6.412   6.092  11.486 -1.6025  1.3999 -1.2341
16436TIP3    H270800   6.342   5.959  11.505  2.2923 -0.7573 -1.0065
16437TIP3   OH270801   6.279   2.696  17.569  0.0407 -1.1746 -0.1551
16437TIP3    H170802   6.296   2.625  17.631 -1.1186 -1.3149  0.0134
16437TIP3    H270803   6.267   2.652  17.485 -1.4851 -1.2849  0.0899
16438TIP3   OH270804   3.611   5.210   6.362 -0.3487  0.0236 -0.0769
16438TIP3    H170805   3.529   5.166   6.341  0.2431 -0.7675 -0.7721
16438TIP3    H270806   3.652   5.155   6.430 -0.0484  0.0114 -0.2650
16439TIP3   OH270807   0.476   1.823   1.927  0.5221  0.6799  0.2158
16439TIP3    H170808   0.524   1.832   1.844  0.8457  0.1177  0.3362
16439TIP3    H270809   0.384   1.821   1.901  0.6167  0.6162 -0.1243
16440TIP3   OH270810   6.005   3.526  17.619 -0.0821 -0.5871  0.2153
16440TIP3    H170811   6.011   3.439  17.578  1.8137 -0.6146  0.4439
16440TIP3    H270812   5.934   3.570  17.573 -0.6838 -2.0497 -0.3075
16441TIP3   OH270813   4.280   3.972   0.148  0.2107 -0.0971 -0.1823
16441TIP3    H170814   4.274   3.936   0.059  0.6193  0.2192 -0.3391
16441TIP3    H270815   4.192   4.005   0.166  0.5919  1.5887 -1.2209
16442TIP3   OH270816   6.255   0.030  12.392 -0.1573 -0.4133 -0.3202
16442TIP3    H170817   6.193   0.080  12.339  0.0981  2.0926  1.5187
16442TIP3    H270818   6.204  -0.042  12.428 -1.2218 -0.0968 -1.1544
16443TIP3   OH270819   4.570   4.687  13.766  0.1470 -0.5632 -0.2229
16443TIP3    H170820   4.624   4.755  13.807 -2.8986  1.6465  0.5405
16443TIP3    H270821   4.519   4.734  13.700 -1.6297 -2.2062 -0.1005
16444TIP3   OH270822   2.615   1.242  14.171 -0.4162  0.1282  0.0222
16444TIP3    H170823   2.596   1.329  14.136 -0.3586  0.2254  0.2292
16444TIP3    H270824   2.701   1.220  14.133  0.3247  0.8446  1.2135
16445TIP3   OH270825   3.896   2.924   2.775  0.3337 -0.1403  0.0717
16445TIP3    H170826   3.887   2.893   2.865  1.2935 -1.1692 -0.1712
16445TIP3    H270827   3.930   3.013   2.783 -1.1073  0.3878  0.7441
16446TIP3   OH270828   0.190   0.328   3.393 -0.0915 -0.3369  0.3434
16446TIP3    H170829   0.142   0.250   3.422 -2.1573 -0.4572 -2.8285
16446TIP3    H270830   0.136   0.402   3.423 -3.4277 -0.4758 -4.1775
16447TIP3   OH270831   0.087   3.981   5.825  0.4704 -0.3170  0.3036
16447TIP3    H170832   0.011   3.928   5.851  1.0179 -0.3772  1.9223
16447TIP3    H270833   0.054   4.039   5.757 -0.5431 -1.6446 -0.3766
16448TIP3   OH270834   4.410   5.064  13.909  0.5626 -0.0931 -0.2291
16448TIP3    H170835   4.362   5.026  13.836  0.6833  0.6606 -0.7000
16448TIP3    H270836   4.372   5.151  13.922  1.5603  0.3826 -0.3918
16449TIP3   OH270837   4.103   6.112   1.982 -0.5639  0.0500 -0.0595
16449TIP3    H170838   4.038   6.182   1.992  0.1817  1.1690 -2.4487
16449TIP3    H270839   4.187   6.157   1.986 -0.0751 -0.2073 -3.8218
16450TIP3   OH270840   1.914   1.854  16.759 -0.3139 -0.2820  0.4548
16450TIP3    H170841   2.010   1.847  16.764 -0.3449 -2.5110 -0.7162
16450TIP3    H270842   1.883   1.788  16.821 -1.0870 -0.0466  0.3182
16451TIP3   OH270843   1.664   0.220  11.621  1.0771  0.0857 -0.3973
16451TIP3    H170844   1.598   0.195  11.557  1.1909 -0.4755 -0.3072
16451TIP3    H270845   1.740   0.166  11.599  0.2995 -2.1011  1.7575
16452TIP3   OH270846   5.754   2.540  15.305 -0.0522  0.3178 -0.1540
16452TIP3    H170847   5.698   2.607  15.267  1.4450  2.2058  0.8045
16452TIP3    H270848   5.809   2.510  15.232  1.0211  2.0399 -0.1099
16453TIP3   OH270849   6.694   0.295  16.330  0.1583  0.3824 -0.4467
16453TIP3    H170850   6.686   0.266  16.421 -1.2677 -0.6728 -0.8506
16453TIP3    H270851   6.763   0.240  16.293 -1.7158 -1.8231 -0.8891
16454TIP3   OH270852   3.516   4.103   3.530 -0.2083  0.7509  0.0479
16454TIP3    H170853   3.548   4.051   3.456  1.9421  2.9823 -0.7302
16454TIP3    H270854   3.463   4.041   3.582  1.8363 -2.0696 -0.9670
16455TIP3   OH270855   6.676   6.463  12.893 -0.3963  0.0608 -0.0812
16455TIP3    H170856   6.679   6.523  12.819  0.8084 -0.8553 -0.8164
16455TIP3    H270857   6.763   6.468  12.933  0.2747 -2.2664 -1.0920
16456TIP3   OH270858   0.587   1.104   0.362 -0.4782  0.3378  0.4175
16456TIP3    H170859   0.560   1.022   0.405 -0.9680  1.2733  1.9592
16456TIP3    H270860   0.505   1.142   0.330 -0.2913  0.4023  0.0097
16457TIP3   OH270861   1.977   4.047  12.998  0.0979  0.1332  0.1586
16457TIP3    H170862   1.977   4.074  13.090 -0.1219 -0.9786  0.4989
16457TIP3    H270863   1.983   4.129  12.949  1.5350  0.6820  1.1765
16458TIP3   OH270864   2.016   5.107  11.523  0.2877  0.3049 -0.3097
16458TIP3    H170865   1.992   5.199  11.528 -0.5488  0.1535 -1.2361
16458TIP3    H270866   2.091   5.104  11.464 -0.8732  0.2222 -1.8560
16459TIP3   OH270867   0.491   6.272  17.211 -0.0392  0.0020 -0.0039
16459TIP3    H170868   0.583   6.252  17.230  0.7648  0.3162 -3.0551
16459TIP3    H270869   0.452   6.186  17.192 -0.2433 -0.0547  0.6291
16460TIP3   OH270870   0.129   1.270   3.774  0.1599 -0.3997 -0.5349
16460TIP3    H170871   0.110   1.292   3.865  1.0162  0.9024 -0.6405
16460TIP3    H270872   0.145   1.355   3.732 -0.8854 -0.9319 -2.0584
16461TIP3   OH270873   1.205   3.666  16.005  0.1646 -0.1317  0.1335
16461TIP3    H170874   1.278   3.689  16.062  0.2569  0.5106 -0.2417
16461TIP3    H270875   1.204   3.734  15.938 -2.4265  1.4690  1.5933
16462TIP3   OH270876   5.445   5.197  15.546 -0.3012 -0.0695 -0.9968
16462TIP3    H170877   5.511   5.137  15.582 -0.8752 -0.4655 -0.5878
16462TIP3    H270878   5.408   5.242  15.622  1.1833  1.9669 -1.3940
16463TIP3   OH270879   6.164   1.472   6.200  0.1118 -0.6312  0.0397
16463TIP3    H170880   6.109   1.515   6.135  0.1461 -1.5017 -0.5786
16463TIP3    H270881   6.254   1.493   6.173  0.1216 -0.8580 -0.1116
16464TIP3   OH270882   6.182   0.888  15.623 -0.3444 -0.2167 -0.6370
16464TIP3    H170883   6.165   0.841  15.541 -2.0517  1.3904 -1.3091
16464TIP3    H270884   6.123   0.848  15.686  0.3042 -0.8515 -0.4251
16465TIP3   OH270885   0.207   4.934   3.786 -0.4396 -0.2316  0.0907
16465TIP3    H170886   0.144   4.918   3.857 -0.0793 -1.2360  0.2068
16465TIP3    H270887   0.229   4.847   3.754  1.1022  0.0775  0.2439
16466TIP3   OH270888   3.759   5.375   5.886 -0.6006  0.3582 -0.4672
16466TIP3    H170889   3.698   5.304   5.899  0.3484 -0.2464  0.8466
16466TIP3    H270890   3.704   5.450   5.862 -1.6533 -0.6391 -1.3181
16467TIP3   OH270891   2.950   1.241   4.371 -0.4461 -0.0693  0.2013
16467TIP3    H170892   3.016   1.249   4.303  0.4267  0.8277  1.1240
16467TIP3    H270893   2.876   1.294   4.338  0.4106  1.3217  0.4575
16468TIP3   OH270894   5.676   3.771  11.812  0.1378 -0.3291  0.7037
16468TIP3    H170895   5.727   3.693  11.792  0.4644 -0.7085  2.8088
16468TIP3    H270896   5.722   3.812  11.885 -0.1236  1.7768 -0.2299
16469TIP3   OH270897   2.874   5.458   1.417  0.0734 -0.3265  0.0347
16469TIP3    H170898   2.896   5.370   1.448 -3.8711 -1.0038  1.5634
16469TIP3    H270899   2.854   5.508   1.496 -0.4743  1.0727 -0.9422
16470TIP3   OH270900   1.675   2.219   4.865  0.1626  1.0489 -0.1987
16470TIP3    H170901   1.695   2.313   4.869  2.0447  0.8139 -2.2258
16470TIP3    H270902   1.752   2.180   4.822 -1.8685 -0.9913 -2.2349
16471TIP3   OH270903   4.344   5.580  13.131  0.8519  0.3039  0.3233
16471TIP3    H170904   4.259   5.564  13.173  1.7409 -3.0649  1.1794
16471TIP3    H270905   4.401   5.606  13.204  0.8216  1.5796 -0.0867
16472TIP3   OH270906   1.081   1.958   1.230 -0.2114  0.1915  0.2686
16472TIP3    H170907   1.118   1.940   1.143  0.7647  0.3413  0.6441
16472TIP3    H270908   1.005   2.014   1.212  0.1110  0.4130 -0.4718
16473TIP3   OH270909   2.205   2.514   4.606 -0.0991 -0.7390 -0.6249
16473TIP3    H170910   2.239   2.489   4.692  0.7169  2.5839  0.1809
16473TIP3    H270911   2.283   2.525   4.551 -0.1538  1.8736 -0.2881
16474TIP3   OH270912   4.424   3.809  14.278 -0.2030 -0.2419  0.0947
16474TIP3    H170913   4.392   3.782  14.364  0.2431  1.5037  0.8782
16474TIP3    H270914   4.355   3.865  14.243  0.0003 -0.2072 -0.2538
16475TIP3   OH270915   3.707   2.989  16.819  0.7541  0.1350  0.4633
16475TIP3    H170916   3.780   2.930  16.801  0.3707  0.2647 -1.6583
16475TIP3    H270917   3.748   3.066  16.859  1.6126 -0.3364  0.4994
16476TIP3   OH270918   2.531   2.097   2.820  0.4105 -0.0028  0.1950
16476TIP3    H170919   2.583   2.073   2.897  1.4832 -1.2184 -0.8372
16476TIP3    H270920   2.579   2.171   2.782  0.0080  0.4514  0.5693
16477TIP3   OH270921   3.781   2.936  15.705 -0.1638 -0.3333  0.2682
16477TIP3    H170922   3.804   3.029  15.710 -0.1386 -0.3884  1.4581
16477TIP3    H270923   3.797   2.912  15.614 -0.5858  0.9348 -0.1610
16478TIP3   OH270924   2.116   3.566  14.221  0.4640  0.2675  0.0488
16478TIP3    H170925   2.094   3.564  14.314 -0.1034  0.3012 -0.0797
16478TIP3    H270926   2.186   3.502  14.211  0.3041  0.0305  0.4405
16479TIP3   OH270927   4.271   0.534  14.785  0.0863 -0.6720 -0.1783
16479TIP3    H170928   4.239   0.452  14.744  1.4447 -0.0636 -2.6844
16479TIP3    H270929   4.191   0.582  14.805 -0.7378 -1.0146 -2.2865
16480TIP3   OH270930   5.526   2.628   1.016 -0.1874 -0.6047  0.2066
16480TIP3    H170931   5.613   2.636   0.979 -0.1822  1.6211  0.5618
16480TIP3    H270932   5.481   2.709   0.991 -0.8575  0.0857  3.2134
16481TIP3   OH270933   5.019   3.621  11.674 -0.6700 -0.6471 -0.2724
16481TIP3    H170934   5.114   3.634  11.677 -0.8466  0.9133 -0.5917
16481TIP3    H270935   5.005   3.537  11.719  0.5029  1.1028  3.8146
16482TIP3   OH270936   5.231   1.308  16.441  0.1017 -0.0819  0.3413
16482TIP3    H170937   5.324   1.300  16.417 -0.2299 -0.8767 -0.7826
16482TIP3    H270938   5.187   1.332  16.360 -0.4908  2.1199  1.2378
16483TIP3   OH270939   4.882   1.470  12.615 -0.3808 -0.0108  0.5914
16483TIP3    H170940   4.948   1.406  12.641  0.7032  0.7945 -0.0708
16483TIP3    H270941   4.905   1.549  12.663 -0.8845  0.2812  0.3623
16484TIP3   OH270942   3.033   5.968  14.165  0.5242  0.1895 -0.2394
16484TIP3    H170943   2.995   5.950  14.251 -0.4829 -0.4376 -0.8095
16484TIP3    H270944   3.044   5.882  14.125 -0.2446  0.5545 -1.2573
16485TIP3   OH270945   4.298   3.174   1.331  0.2092  0.1220 -0.1806
16485TIP3    H170946   4.345   3.226   1.396  3.2032 -0.4951 -1.6472
16485TIP3    H270947   4.239   3.118   1.382  1.2596  0.7619  1.8416
16486TIP3   OH270948   5.495   4.759   6.473  0.1794  0.1129 -0.1619
16486TIP3    H170949   5.550   4.680   6.478 -0.2696 -0.2454 -0.7378
16486TIP3    H270950   5.427   4.743   6.538 -0.7122 -0.6255 -1.2392
16487TIP3   OH270951   5.279   3.300   2.533  0.3699  0.1341  0.0463
16487TIP3    H170952   5.281   3.386   2.490  0.3893 -0.2479 -0.7447
16487TIP3    H270953   5.240   3.242   2.467 -2.0628  0.0045  1.4732
16488TIP3   OH270954   0.232   2.301  12.327 -0.1719  1.0714  0.0273
16488TIP3    H170955   0.317   2.259  12.343  0.0251  0.4378 -2.2943
16488TIP3    H270956   0.230   2.375  12.389  0.8970 -0.3963  1.9377
16489TIP3   OH270957   4.753   0.471  15.500 -0.3203 -0.4933  0.1532
16489TIP3    H170958   4.800   0.409  15.557  0.2041 -0.0905  0.1637
16489TIP3    H270959   4.750   0.427  15.415  0.1015 -0.5089  0.1447
16490TIP3   OH270960   0.719   0.492   6.484 -0.2466  0.4400 -0.4375
16490TIP3    H170961   0.676   0.410   6.460 -1.0525  0.3458  1.1398
16490TIP3    H270962   0.736   0.536   6.401 -2.1020 -0.1954 -1.2141
16491TIP3   OH270963   4.023   2.621   5.915  1.1689 -0.4217  0.0310
16491TIP3    H170964   3.970   2.630   5.836  2.3590  0.7668 -0.6846
16491TIP3    H270965   4.105   2.581   5.884  1.1920 -1.0530  0.8826
16492TIP3   OH270966   3.273   0.146  17.238  0.0291 -0.4998 -0.3452
16492TIP3    H170967   3.244   0.103  17.318 -0.0351 -2.7212 -1.5032
16492TIP3    H270968   3.240   0.091  17.167  0.3402  1.2317 -1.9203
16493TIP3   OH270969   2.736   4.784  17.079  0.2863  0.0157 -0.4623
16493TIP3    H170970   2.644   4.768  17.099  0.0138 -0.7758 -2.1670
16493TIP3    H270971   2.745   4.879  17.080 -0.4976  0.0909 -0.0740
16494TIP3   OH270972   5.677   1.714  17.085 -0.1698 -0.0804  0.5524
16494TIP3    H170973   5.649   1.750  17.001 -1.1739 -1.0132  0.4696
16494TIP3    H270974   5.598   1.674  17.123  0.6352 -1.2201  1.1202
16495TIP3   OH270975   6.357   4.239   1.583 -0.1515  0.2029  0.3308
16495TIP3    H170976   6.302   4.173   1.541 -0.4387  1.2986 -1.1223
16495TIP3    H270977   6.446   4.204   1.579 -0.5550 -1.0373  1.5847
16496TIP3   OH270978   2.857   4.622  12.423  0.1823 -0.2891 -0.2201
16496TIP3    H170979   2.873   4.537  12.465  1.6366  0.6883  1.3411
16496TIP3    H270980   2.944   4.661  12.415 -0.5642  1.6368  0.4239
16497TIP3   OH270981   2.429   0.766   5.301  0.0191  0.0121 -0.1269
16497TIP3    H170982   2.362   0.810   5.354 -0.4471 -2.3852  1.3855
16497TIP3    H270983   2.512   0.799   5.335 -0.3203 -0.2358  0.9808
16498TIP3   OH270984   5.835   1.739  12.817  0.2913  0.2247 -0.8595
16498TIP3    H170985   5.773   1.774  12.753  0.3906 -0.4654 -1.3498
16498TIP3    H270986   5.880   1.669  12.770  0.0064 -0.6424  0.1430
16499TIP3   OH270987   3.710   4.376   4.094 -0.4224  0.3586 -0.3124
16499TIP3    H170988   3.736   4.460   4.057  0.8879  0.8521  1.5586
16499TIP3    H270989   3.790   4.324   4.095 -1.1946 -0.9059 -1.3415
16500TIP3   OH270990   1.245   5.244   4.720 -0.0905  0.0846  0.1288
16500TIP3    H170991   1.293   5.162   4.728  0.2478  0.3807  1.4790
16500TIP3    H270992   1.294   5.294   4.654  0.4813 -0.2769  0.2719
16501TIP3   OH270993   1.835   0.561   4.610 -0.3571  0.3919 -0.2592
16501TIP3    H170994   1.811   0.469   4.621 -0.2891  0.3429 -0.5109
16501TIP3    H270995   1.908   0.575   4.670 -0.3200  0.2624 -0.2749
16502TIP3   OH270996   1.966   3.262  17.498 -0.4234  0.0674 -0.0722
16502TIP3    H170997   1.895   3.214  17.456  0.5207 -0.3778 -1.2232
16502TIP3    H270998   2.037   3.263  17.433  0.8251  0.0200  1.2271
16503TIP3   OH270999   2.229   3.041  14.608 -0.0943 -0.3651 -0.0867
16503TIP3    H171000   2.299   3.078  14.661  0.3058 -2.1381  0.7027
16503TIP3    H271001   2.183   2.982  14.668 -1.3910 -0.2895 -0.9771
16504TIP3   OH271002   4.833   5.821   5.288 -0.2102 -0.5617  0.3502
16504TIP3    H171003   4.893   5.847   5.218  0.0681  1.8146  1.3810
16504TIP3    H271004   4.824   5.726   5.278  2.5422 -0.7842 -0.7404
16505TIP3   OH271005   6.299   1.217  14.581  0.3452  0.0334  0.2288
16505TIP3    H171006   6.216   1.193  14.541 -0.2549  0.8383  0.9643
16505TIP3    H271007   6.343   1.273  14.516  0.1519 -0.0815 -0.0011
16506TIP3   OH271008   4.285   6.308   4.769  0.0210  0.4347  0.8426
16506TIP3    H171009   4.288   6.276   4.680  1.1950 -1.8512  1.6362
16506TIP3    H271010   4.192   6.328   4.785 -0.6651 -1.8582  0.0057
16507TIP3   OH271011   3.846   6.009  14.180  0.0292 -0.4279  0.5580
16507TIP3    H171012   3.758   5.977  14.160  0.4962 -0.8531 -0.9396
16507TIP3    H271013   3.859   6.083  14.120  0.9870 -0.8772  0.1979
16508TIP3   OH271014   2.001   4.956  15.082 -0.2128 -0.2689 -0.4580
16508TIP3    H171015   2.054   4.898  15.137 -2.3131 -1.1374  0.7521
16508TIP3    H271016   1.968   4.900  15.012  0.2481  0.2222 -1.0866
16509TIP3   OH271017   4.944   4.649   2.995  0.4649  0.0125 -0.1312
16509TIP3    H171018   4.884   4.612   3.060 -1.6763  2.8964 -0.2828
16509TIP3    H271019   5.008   4.698   3.047  1.0164 -0.7234 -0.0965
16510TIP3   OH271020   5.155   1.134   0.055 -0.9650  0.2766  0.2662
16510TIP3    H171021   5.196   1.151  -0.030 -2.8668 -1.1729 -1.0376
16510TIP3    H271022   5.105   1.214   0.074 -0.3420  0.7002  0.1729
16511TIP3   OH271023   5.442   3.671  12.062  0.3778  0.0879 -0.2495
16511TIP3    H171024   5.502   3.601  12.037 -1.5342 -2.1829  1.1434
16511TIP3    H271025   5.499   3.741  12.093  2.4119 -0.3967 -2.6000
16512TIP3   OH271026   6.566   2.128   2.678  0.0761  0.0891  1.0923
16512TIP3    H171027   6.562   2.041   2.717 -0.9121 -1.0254 -1.3025
16512TIP3    H271028   6.644   2.168   2.716  0.0472 -1.4579  2.9487
16513TIP3   OH271029   1.561   4.221  13.648 -0.3263  0.2183 -0.3485
16513TIP3    H171030   1.483   4.168  13.633  0.6475 -1.2758 -0.2510
16513TIP3    H271031   1.551   4.295  13.589 -1.5452 -0.2301 -0.7351
16514TIP3   OH271032   0.163   3.385  16.229 -1.1830 -0.0413 -0.2855
16514TIP3    H171033   0.232   3.438  16.268 -1.9493  0.1534  0.8368
16514TIP3    H271034   0.190   3.295  16.245 -1.0007  0.0271 -0.2026
16515TIP3   OH271035   3.660   2.747   2.771 -0.0112  0.1625  0.4753
16515TIP3    H171036   3.686   2.669   2.722 -0.0403 -0.9089  2.0501
16515TIP3    H271037   3.729   2.811   2.755  1.8948 -1.4215  1.8724
16516TIP3   OH271038   4.875   4.666   1.294  0.8071 -0.4765  0.1492
16516TIP3    H171039   4.968   4.666   1.271  1.2949 -0.8404  2.0147
16516TIP3    H271040   4.832   4.628   1.217  1.7983  2.3324 -1.9959
16517TIP3   OH271041   1.005   0.759  11.214  0.2611  0.3663 -0.0673
16517TIP3    H171042   0.968   0.831  11.266 -0.2894 -0.8152  1.2474
16517TIP3    H271043   0.948   0.753  11.138 -0.2724  0.7090  0.2962
16518TIP3   OH271044   1.029   5.636   4.150 -0.2374  0.2903 -0.2173
16518TIP3    H171045   1.018   5.588   4.068  1.7100 -1.1672  0.3026
16518TIP3    H271046   0.985   5.720   4.135 -1.5955 -0.6846 -2.0368
16519TIP3   OH271047   5.020   3.999  14.004 -0.2316  0.0570 -0.7441
16519TIP3    H171048   5.076   4.077  14.000 -1.2638  0.8884  0.0844
16519TIP3    H271049   5.066   3.939  14.063  0.2342  0.3396 -0.8165
16520TIP3   OH271050   4.726   0.044   6.130 -0.3530  0.0440  0.1076
16520TIP3    H171051   4.706  -0.044   6.099  0.3817 -0.3576  0.7209
16520TIP3    H271052   4.822   0.049   6.130 -0.3869  0.9928 -0.3150
16521TIP3   OH271053   3.195   6.340   0.894  0.1065 -0.2507 -0.3813
16521TIP3    H171054   3.288   6.363   0.884 -0.6863  2.6364 -2.5916
16521TIP3    H271055   3.179   6.275   0.826  0.8814 -2.5839  1.5079
16522TIP3   OH271056   2.011   6.200  15.118 -0.0498  0.0474  0.7920
16522TIP3    H171057   2.071   6.253  15.170 -2.9271  2.2789  2.0929
16522TIP3    H271058   2.042   6.209  15.028  3.5686 -1.8726  1.6531
16523TIP3   OH271059   2.487   3.503   3.426 -0.0051 -0.6265  0.3927
16523TIP3    H171060   2.549   3.490   3.354 -0.1024  0.3797  0.1121
16523TIP3    H271061   2.499   3.427   3.482  2.3521  0.0913  0.9824
16524TIP3   OH271062   2.672   6.161   1.124 -0.2972  0.3342  0.3572
16524TIP3    H171063   2.660   6.144   1.031 -0.0045 -0.7345  0.4964
16524TIP3    H271064   2.752   6.212   1.129 -0.0244 -0.0514  0.0462
16525TIP3   OH271065   2.537   0.710  13.539  0.3733 -0.3243 -0.4024
16525TIP3    H171066   2.566   0.630  13.496  2.1820 -0.2560  0.5675
16525TIP3    H271067   2.509   0.682  13.626 -0.3103 -0.0731 -0.5362
16526TIP3   OH271068   0.549   3.550  16.691 -0.7022 -0.0464 -0.1986
16526TIP3    H171069   0.579   3.580  16.605  2.5643 -0.0145  0.8177
16526TIP3    H271070   0.523   3.459  16.677 -1.2528  0.2606 -1.3765
16527TIP3   OH271071   2.747   6.461  13.249 -0.4737  0.1829  0.0280
16527TIP3    H171072   2.674   6.518  13.222 -0.5790 -0.5918 -1.4297
16527TIP3    H271073   2.713   6.412  13.323 -0.9092  0.9069  0.3220
16528TIP3   OH271074   3.774   6.037  16.772  1.0387 -0.4581  0.1755
16528TIP3    H171075   3.859   6.011  16.735  0.6102 -0.4941 -0.7974
16528TIP3    H271076   3.747   5.962  16.824  0.9537 -1.0055 -0.6416
16529TIP3   OH271077   6.521   5.205   4.711 -0.2405  0.4994 -0.4881
16529TIP3    H171078   6.503   5.233   4.621 -0.1793 -0.4054 -0.7897
16529TIP3    H271079   6.476   5.270   4.765 -1.6496  0.1588 -1.1912
16530TIP3   OH271080   1.321   4.634  13.217 -0.5970 -0.7254 -0.7928
16530TIP3    H171081   1.257   4.688  13.171 -0.8890 -1.4897 -1.3136
16530TIP3    H271082   1.372   4.593  13.147  0.1849 -0.4649 -0.3917
16531TIP3   OH271083   2.439   2.311  14.349 -0.4121 -0.0998  0.2203
16531TIP3    H171084   2.437   2.358  14.432 -0.1427 -0.5959  0.5121
16531TIP3    H271085   2.391   2.230  14.367  0.2016 -0.4963  0.0696
16532TIP3   OH271086   5.888   1.705  12.472  0.4771  0.2031  0.5494
16532TIP3    H171087   5.954   1.735  12.410  0.6890 -0.7939  0.2669
16532TIP3    H271088   5.844   1.633  12.427 -1.3452  1.3436  0.4262
16533TIP3   OH271089   5.570   1.401  17.046  0.1647 -0.8207 -0.2643
16533TIP3    H171090   5.545   1.323  17.095 -2.1341 -0.2780 -0.4683
16533TIP3    H271091   5.524   1.473  17.091  0.0448  0.0193 -1.6886
16534TIP3   OH271092   3.753   4.558  11.789 -0.0976  0.2196 -0.0872
16534TIP3    H171093   3.696   4.546  11.713 -0.4006  1.3725 -0.0630
16534TIP3    H271094   3.713   4.630  11.838  1.7619  1.6139 -0.4800
16535TIP3   OH271095   0.662   3.391   4.400 -0.1346 -0.2427 -0.4516
16535TIP3    H171096   0.714   3.318   4.365  0.2106 -1.1314  1.7157
16535TIP3    H271097   0.587   3.348   4.442  0.6936  0.4728  1.9190
16536TIP3   OH271098   5.010   5.683   1.572  0.4430  0.1801 -0.2163
16536TIP3    H171099   5.017   5.594   1.606  3.9918  0.5849  0.5211
16536TIP3    H271100   4.955   5.729   1.636  2.1025 -0.5251  1.8336
16537TIP3   OH271101   1.193   0.911   0.860  0.2822 -0.1897  0.3403
16537TIP3    H171102   1.100   0.923   0.879  0.3324  0.2422  0.3261
16537TIP3    H271103   1.195   0.879   0.770  0.0830 -1.5153  0.7926
16538TIP3   OH271104   5.278   0.355  16.787 -0.3078 -0.0774 -0.0044
16538TIP3    H171105   5.226   0.351  16.707 -1.0658  0.0728  0.4746
16538TIP3    H271106   5.241   0.287  16.844  0.3744 -0.3405  0.1403
16539TIP3   OH271107   5.123   5.988   1.761  0.0182  0.0518 -0.0647
16539TIP3    H171108   5.113   5.920   1.694  0.0973 -0.4069  0.3805
16539TIP3    H271109   5.105   6.070   1.715 -0.5645 -0.3094 -0.4968
16540TIP3   OH271110   3.914   2.002   6.142 -0.3487 -0.2507  0.0129
16540TIP3    H171111   3.996   1.954   6.155  0.8713  0.9211 -2.5620
16540TIP3    H271112   3.936   2.093   6.158 -1.1982  0.0631 -0.5418
16541TIP3   OH271113   6.168   6.624  13.490  0.7056 -0.0058 -0.0258
16541TIP3    H171114   6.189   6.559  13.424  0.3154 -0.7564  0.5747
16541TIP3    H271115   6.128   6.574  13.562  0.8426  0.8259  0.6500
16542TIP3   OH271116   6.165   1.620  14.699  0.2107 -0.1303 -0.6198
16542TIP3    H171117   6.081   1.581  14.675  0.4067 -0.8705 -0.1446
16542TIP3    H271118   6.220   1.545  14.723  0.2243  0.4999  1.5206
16543TIP3   OH271119   4.934   0.010  16.327  0.1629 -0.0912 -0.0271
16543TIP3    H171120   5.028   0.017  16.338  0.0006  0.1067  1.4437
16543TIP3    H271121   4.899   0.008  16.417 -1.1636 -1.0016 -0.5339
16544TIP3   OH271122   1.778   6.227  10.540 -0.3407 -0.3761  0.4238
16544TIP3    H171123   1.780   6.258  10.631 -2.8207  1.1248  0.0546
16544TIP3    H271124   1.685   6.213  10.522  0.2310 -2.2354 -1.4117
16545TIP3   OH271125   4.371   3.690   0.649  0.5344  0.0608 -0.9180
16545TIP3    H171126   4.358   3.644   0.566 -2.0029 -0.5435 -0.2617
16545TIP3    H271127   4.382   3.620   0.714 -1.1400  0.3911 -0.2389
16546TIP3   OH271128   4.782   4.332   1.889  0.1448  0.9504  0.4479
16546TIP3    H171129   4.822   4.340   1.976  0.8210 -1.4939  0.4493
16546TIP3    H271130   4.828   4.258   1.849 -2.8759 -0.6041 -0.4275
16547TIP3   OH271131   5.539   5.677   1.555 -0.2280 -0.8416 -0.3045
16547TIP3    H171132   5.471   5.724   1.508 -2.1406 -2.4404  0.7109
16547TIP3    H271133   5.609   5.741   1.567 -1.4506  0.8100 -1.5494
16548TIP3   OH271134   5.204   2.821  13.817  0.0757 -0.8995 -0.0334
16548TIP3    H171135   5.251   2.799  13.736 -0.2413 -0.1637 -0.4230
16548TIP3    H271136   5.119   2.852  13.788  0.0383 -0.4134  0.5769
16549TIP3   OH271137   5.415   4.390  11.403  0.0086  0.4672 -0.2256
16549TIP3    H171138   5.385   4.414  11.315  1.2275  1.7230 -0.3369
16549TIP3    H271139   5.478   4.459  11.426  0.7401 -0.5945  1.0671
16550TIP3   OH271140   1.215   0.136  16.248 -0.3404 -0.1044 -0.1176
16550TIP3    H171141   1.146   0.074  16.222  1.3548 -2.1713  0.0817
16550TIP3    H271142   1.226   0.121  16.342  1.7567 -1.3279 -0.5046
16551TIP3   OH271143   3.682   1.495   1.508 -0.5498 -0.1155  0.1999
16551TIP3    H171144   3.721   1.467   1.591  1.2884 -1.5686 -1.0674
16551TIP3    H271145   3.631   1.419   1.479 -1.7220  0.6206  0.3001
16552TIP3   OH271146   4.060   5.880   0.406 -0.4308 -0.6559 -0.1895
16552TIP3    H171147   4.017   5.843   0.328  0.5143  0.5253 -1.3292
16552TIP3    H271148   4.142   5.918   0.372 -1.3811  2.5998  0.8127
16553TIP3   OH271149   2.666   0.258  13.320  0.4140 -0.0524 -0.1770
16553TIP3    H171150   2.662   0.260  13.225  0.4981  0.6893 -0.1745
16553TIP3    H271151   2.757   0.234  13.339  0.4926  0.1603 -0.2846
16554TIP3   OH271152   4.498   6.270  12.253 -0.4520 -0.1621 -0.2692
16554TIP3    H171153   4.568   6.320  12.295  0.5420 -1.8723  0.2309
16554TIP3    H271154   4.517   6.274  12.160  0.2217 -0.4622 -0.1482
16555TIP3   OH271155   1.734   4.913  13.883  0.8637 -0.3874  0.4657
16555TIP3    H171156   1.830   4.911  13.887  0.8589 -0.9382  0.2994
16555TIP3    H271157   1.706   4.844  13.943  0.5649 -0.1700  0.5811
16556TIP3   OH271158   2.026   3.188   5.144  0.3293 -0.3218  0.1410
16556TIP3    H171159   2.015   3.151   5.056  0.1471 -0.0786  0.0588
16556TIP3    H271160   2.040   3.281   5.129  1.2551 -0.4216  0.3226
16557TIP3   OH271161   3.689   3.760   6.145 -0.5354  0.2874 -0.0320
16557TIP3    H171162   3.745   3.698   6.193 -3.1037 -0.9497  1.6140
16557TIP3    H271163   3.689   3.839   6.198 -0.6467  0.1380  0.1942
16558TIP3   OH271164   3.763   3.663  15.088  0.3749  0.0794 -0.2881
16558TIP3    H171165   3.831   3.730  15.084  0.9927 -0.2141  2.8897
16558TIP3    H271166   3.681   3.713  15.081  0.8609  0.8810 -0.4305
16559TIP3   OH271167   4.132   6.484  16.007 -0.0499  0.2344  0.2900
16559TIP3    H171168   4.218   6.475  16.049  0.9562 -1.1432 -1.8694
16559TIP3    H271169   4.098   6.394  16.004 -1.1925  0.6521  0.3322
16560TIP3   OH271170   2.022   6.404   0.766  0.1352  0.1873  0.0734
16560TIP3    H171171   2.073   6.485   0.775 -0.3130  0.5872 -0.8796
16560TIP3    H271172   1.931   6.433   0.771 -0.0275 -0.3002 -0.0152
16561TIP3   OH271173   6.353   3.754   4.395  0.0646 -0.2565 -0.7020
16561TIP3    H171174   6.324   3.703   4.320 -0.7449  0.8336 -1.1551
16561TIP3    H271175   6.382   3.837   4.359  2.5597 -0.7870 -0.1067
16562TIP3   OH271176   3.941   0.384  14.593 -0.0417  0.7260 -0.5161
16562TIP3    H171177   3.884   0.429  14.531 -1.5527 -1.4269 -0.8009
16562TIP3    H271178   3.915   0.418  14.679  0.9496  2.5297 -0.8834
16563TIP3   OH271179   0.658   3.371  15.597  0.2532 -0.4167 -0.1075
16563TIP3    H171180   0.729   3.312  15.573 -0.1543 -0.3656 -1.5047
16563TIP3    H271181   0.592   3.360  15.529 -0.4383  0.6327  0.3528
16564TIP3   OH271182   2.021   0.428   6.016 -0.2054  0.4284  0.3117
16564TIP3    H171183   2.030   0.454   5.925  1.2840  0.7187  0.5187
16564TIP3    H271184   2.000   0.334   6.012  1.3100  0.0941 -0.3179
16565TIP3   OH271185   3.068   5.242   1.204  0.5941 -0.6811  0.4646
16565TIP3    H171186   3.035   5.332   1.205 -1.1527 -1.2768  0.5582
16565TIP3    H271187   3.038   5.204   1.287  0.6130 -1.5682  0.0834
16566TIP3   OH271188   4.608   3.079  15.052 -0.1310  0.4941 -0.4956
16566TIP3    H171189   4.536   3.023  15.024  0.1472  0.3691 -0.9704
16566TIP3    H271190   4.686   3.035  15.020  0.2512  0.0672  0.9168
16567TIP3   OH271191   2.045   2.416  15.764  0.0689 -0.1686  0.5183
16567TIP3    H171192   2.130   2.371  15.768  0.7947  0.8573 -1.5730
16567TIP3    H271193   2.004   2.381  15.684 -1.2194 -0.1806  1.1611
16568TIP3   OH271194   6.646   1.353   4.451  0.1884 -0.0502  0.3390
16568TIP3    H171195   6.551   1.350   4.464  0.0995  1.5006  0.3179
16568TIP3    H271196   6.680   1.275   4.495 -0.9728  0.1277  1.6084
16569TIP3   OH271197   1.912   4.174   6.330  0.3335 -0.5642 -0.3619
16569TIP3    H171198   1.925   4.084   6.359  1.5546 -0.1805  0.3794
16569TIP3    H271199   1.991   4.220   6.359 -0.4995  0.8633 -0.2555
16570TIP3   OH271200   1.900   5.829   2.875 -0.3426  0.0884 -0.1420
16570TIP3    H171201   1.944   5.908   2.844 -0.5265  0.3126  0.1524
16570TIP3    H271202   1.807   5.847   2.861 -0.3433 -0.3936 -0.7880
16571TIP3   OH271203   6.163   3.898  17.629 -0.3888  0.3790  0.5352
16571TIP3    H171204   6.174   3.865  17.540  2.0245  1.0877  0.5024
16571TIP3    H271205   6.165   3.819  17.683  1.2913  0.1446  0.1684
16572TIP3   OH271206   3.855   2.674  14.484 -0.2214 -0.3166 -0.3984
16572TIP3    H171207   3.892   2.763  14.482  0.7453 -0.6975  0.2855
16572TIP3    H271208   3.807   2.670  14.567  0.3966 -0.6984 -0.0605
16573TIP3   OH271209   5.261   1.425   0.199  0.4555  0.3169  0.0835
16573TIP3    H171210   5.220   1.413   0.285 -0.0764 -0.5503 -0.2836
16573TIP3    H271211   5.311   1.506   0.208  2.4669 -1.0056  2.0009
16574TIP3   OH271212   0.661   5.526  15.177 -0.0096 -0.2892  0.0152
16574TIP3    H171213   0.576   5.494  15.207 -1.7621  0.9789 -3.1250
16574TIP3    H271214   0.705   5.449  15.141 -2.0258 -0.2526 -2.8269
16575TIP3   OH271215   0.141   4.040  13.725  0.5330  0.3374 -0.0642
16575TIP3    H171216   0.144   4.086  13.810  0.3588  0.0281  0.1084
16575TIP3    H271217   0.150   3.948  13.747 -1.8464  0.0164 -0.1711
16576TIP3   OH271218   0.184   3.435  13.899  0.1103  0.3493  0.0712
16576TIP3    H171219   0.251   3.367  13.885 -0.2023 -0.3840  1.9130
16576TIP3    H271220   0.179   3.480  13.815  1.5256 -0.8351 -0.7062
16577TIP3   OH271221   2.152   6.325  16.369 -0.2485  0.1433 -0.3116
16577TIP3    H171222   2.122   6.394  16.310 -2.6812  1.4382  2.1723
16577TIP3    H271223   2.080   6.261  16.370  0.4539 -0.6666  0.0150
16578TIP3   OH271224   4.350   6.058   3.563 -0.4038  0.2993 -0.7105
16578TIP3    H171225   4.376   6.145   3.534  0.5512  1.1572  2.3230
16578TIP3    H271226   4.299   6.073   3.643 -0.9909 -1.8851 -0.6129
16579TIP3   OH271227   6.557   0.291  12.303  0.2962 -0.2603 -0.0492
16579TIP3    H171228   6.560   0.233  12.379  1.5990 -0.3057 -0.1127
16579TIP3    H271229   6.646   0.324  12.295 -0.4469  1.9214  0.0985
16580TIP3   OH271230   0.208   1.816  15.532  0.8182 -0.1281  0.0452
16580TIP3    H171231   0.120   1.835  15.501  0.8807  2.2627  1.0790
16580TIP3    H271232   0.262   1.817  15.453  0.0809 -0.6169 -0.4803
16581TIP3   OH271233   3.087   6.682  13.587  0.2588 -0.2222 -0.4500
16581TIP3    H171234   3.052   6.692  13.499  0.1249 -0.8670 -0.4767
16581TIP3    H271235   3.015   6.708  13.645 -0.9529 -3.1689 -0.4570
16582TIP3   OH271236   1.394   1.154  13.501 -0.1429 -0.2923 -0.0197
16582TIP3    H171237   1.485   1.123  13.496  0.4971  1.6149 -1.0940
16582TIP3    H271238   1.394   1.237  13.454 -1.7078  1.4672  2.8300
16583TIP3   OH271239   4.612   6.133  16.015  0.0498  0.0834 -0.3386
16583TIP3    H171240   4.636   6.177  15.934  0.7888 -1.1954 -0.8570
16583TIP3    H271241   4.529   6.089  15.994  0.4425 -0.5757 -0.5517
16584TIP3   OH271242   2.050   1.642   1.185 -0.6722  0.0925  0.2223
16584TIP3    H171243   1.966   1.634   1.140 -0.9095  1.6796  0.3245
16584TIP3    H271244   2.034   1.607   1.272 -0.8756 -0.7462 -0.1428
16585TIP3   OH271245   4.602   3.816   2.132  0.1719 -0.2705  0.2081
16585TIP3    H171246   4.630   3.901   2.098  0.1959  0.1488  1.2317
16585TIP3    H271247   4.506   3.821   2.133  0.1882  0.5194  2.0711
16586TIP3   OH271248   2.434   2.936  16.893 -0.6555 -0.2832  0.9693
16586TIP3    H171249   2.513   2.974  16.854  0.0517 -1.4578  1.2242
16586TIP3    H271250   2.384   2.902  16.819  0.5158 -2.1947  1.0018
16587TIP3   OH271251   6.587   0.323  13.582  0.4840  0.4076  0.5654
16587TIP3    H171252   6.613   0.406  13.622 -1.0444  0.8829  0.6336
16587TIP3    H271253   6.542   0.348  13.502 -0.4248 -0.3107  0.8324
16588TIP3   OH271254   1.598   2.250   2.137  0.0428 -0.0167 -0.1322
16588TIP3    H171255   1.663   2.306   2.096 -0.0833  0.8093  0.7570
16588TIP3    H271256   1.631   2.161   2.126  0.7184  0.3078 -0.7265
16589TIP3   OH271257   3.691   1.939   1.192 -0.2324 -0.0335  0.3598
16589TIP3    H171258   3.779   1.942   1.155 -0.3084  1.5795  0.2486
16589TIP3    H271259   3.699   1.881   1.267  0.9557  0.1724  0.4117
16590TIP3   OH271260   0.393   4.277   0.284  0.3427 -0.4787 -0.1335
16590TIP3    H171261   0.354   4.248   0.202  0.3635 -2.4679  0.4868
16590TIP3    H271262   0.459   4.341   0.259 -1.9492  1.5698 -1.3615
16591TIP3   OH271263   3.079   3.023   6.323 -0.6878 -0.0788 -0.2938
16591TIP3    H171264   3.056   3.097   6.379  0.1372 -0.0811  0.0810
16591TIP3    H271265   3.123   2.962   6.383  3.3697  1.3701 -1.4411
16592TIP3   OH271266   0.442   1.065   2.495  0.6166  0.1376  0.0951
16592TIP3    H171267   0.425   0.999   2.428  2.9799  0.4731 -0.9113
16592TIP3    H271268   0.478   1.140   2.448 -1.2224  1.8975  1.3110
16593TIP3   OH271269   2.670   5.534   0.660 -0.1091 -0.3616 -0.2689
16593TIP3    H171270   2.745   5.581   0.625 -0.2757  0.5131  0.5045
16593TIP3    H271271   2.685   5.534   0.755  0.0761 -2.2105 -0.2534
16594TIP3   OH271272   2.153   3.987   1.218 -0.3646  0.7008  0.2084
16594TIP3    H171273   2.224   4.003   1.156 -1.1663  1.4389 -0.5593
16594TIP3    H271274   2.077   4.031   1.179 -1.2336 -0.0259  1.0203
16595TIP3   OH271275   6.202   0.626   3.517 -0.1181 -0.3580 -0.2413
16595TIP3    H171276   6.259   0.698   3.492  0.3951  0.7818  3.5942
16595TIP3    H271277   6.127   0.667   3.557 -0.8290 -1.9524  0.1454
16596TIP3   OH271278   5.727   4.152   2.278 -0.6038 -0.0426 -0.0594
16596TIP3    H171279   5.723   4.122   2.369 -1.0051 -0.4597 -0.2130
16596TIP3    H271280   5.681   4.237   2.279 -1.2276 -0.3728 -0.0011
16597TIP3   OH271281   5.689   4.605  17.644  0.1002 -0.8288 -0.1807
16597TIP3    H171282   5.720   4.519  17.616 -2.1703 -0.9275 -3.0053
16597TIP3    H271283   5.611   4.587  17.697  0.2542 -0.5287  0.1520
16598TIP3   OH271284   2.996   6.662   6.551 -0.1576 -0.0524 -0.5010
16598TIP3    H171285   3.077   6.693   6.510 -1.2299  1.5373 -1.5479
16598TIP3    H271286   2.991   6.710   6.634 -0.6215  0.8427 -1.0236
16599TIP3   OH271287   0.520   6.343   2.431  0.7533 -0.4657 -0.0226
16599TIP3    H171288   0.548   6.316   2.519 -0.8578  0.4316  0.8108
16599TIP3    H271289   0.439   6.295   2.416  0.8639 -0.3908 -0.9199
16600TIP3   OH271290   2.771   2.105  13.884  0.0055 -0.1081  0.7475
16600TIP3    H171291   2.844   2.148  13.839  0.8268 -1.9231  0.2618
16600TIP3    H271292   2.782   2.012  13.864 -1.0475 -0.6963  2.6940
16601TIP3   OH271293   3.237   6.612  16.542  0.7063  0.1906 -0.0903
16601TIP3    H171294   3.247   6.579  16.631 -0.2538  1.0740  0.3689
16601TIP3    H271295   3.174   6.684  16.550  0.2507 -0.0086 -1.5449
16602TIP3   OH271296   6.422   4.433  15.917  0.1413 -0.0281 -0.1887
16602TIP3    H171297   6.462   4.347  15.935  0.1189 -0.0487 -0.2362
16602TIP3    H271298   6.378   4.456  15.999  0.3645  0.0561 -0.0929
16603TIP3   OH271299   0.626   5.966   2.201 -0.3179  0.2284  0.2086
16603TIP3    H171300   0.720   5.960   2.182 -0.7607 -0.5184 -2.1770
16603TIP3    H271301   0.604   6.058   2.183 -0.1824  0.1965 -0.1455
16604TIP3   OH271302   3.603   5.144   4.968  0.0495  0.1133 -0.4134
16604TIP3    H171303   3.573   5.234   4.977  1.4747  0.4846  1.2039
16604TIP3    H271304   3.662   5.131   5.042  2.1452 -1.2246 -2.1748
16605TIP3   OH271305   1.731   5.434  10.867  0.0178  0.2188  0.1130
16605TIP3    H171306   1.796   5.420  10.798 -2.5787 -0.5630 -2.3641
16605TIP3    H271307   1.688   5.517  10.843 -1.3876 -0.4154  0.3377
16606TIP3   OH271308   0.774   4.836   4.565 -0.9927 -0.5942  0.3301
16606TIP3    H171309   0.742   4.895   4.497  0.2212 -0.4183 -0.1024
16606TIP3    H271310   0.751   4.879   4.648  1.4903  1.4473  0.0529
16607TIP3   OH271311   3.867   3.179   5.950  0.0408  0.1745 -0.2006
16607TIP3    H171312   3.842   3.128   6.027  1.5983  0.5102  0.5609
16607TIP3    H271313   3.932   3.124   5.905  2.0821  1.6046  0.8690
16608TIP3   OH271314   4.835   1.735  11.514  0.3672  0.3491  0.2448
16608TIP3    H171315   4.889   1.661  11.486  1.4457  1.5257 -0.9268
16608TIP3    H271316   4.860   1.807  11.455 -2.7688  0.8619 -0.6249
16609TIP3   OH271317   0.914   1.173   3.491  0.1160  0.0961 -0.1328
16609TIP3    H171318   0.953   1.257   3.518 -1.9667  1.2293 -0.4868
16609TIP3    H271319   0.940   1.163   3.399 -0.9444  1.2090 -0.5856
16610TIP3   OH271320   1.635   4.420   4.493 -0.0413 -0.4066 -0.5741
16610TIP3    H171321   1.683   4.495   4.459 -0.7957  1.3179  1.9154
16610TIP3    H271322   1.702   4.361   4.525  0.5406 -0.5273 -1.9516
16611TIP3   OH271323   6.459   0.749  13.784 -0.6253 -0.0571 -0.0804
16611TIP3    H171324   6.548   0.758  13.818 -0.8493  5.4397  0.0148
16611TIP3    H271325   6.403   0.751  13.862 -0.9517 -1.5173 -0.2452
16612TIP3   OH271326   0.623   5.002  14.791  0.5791 -0.5115 -0.7064
16612TIP3    H171327   0.661   4.922  14.755  2.4229  0.7995 -1.8864
16612TIP3    H271328   0.557   5.029  14.727  1.5001  0.0123 -1.4886
16613TIP3   OH271329   3.068   4.001   1.311 -0.0573  0.3677  0.2471
16613TIP3    H171330   3.048   4.094   1.299 -1.0826 -0.1236 -2.3681
16613TIP3    H271331   3.145   3.986   1.257 -1.3255 -0.7486 -1.3388
16614TIP3   OH271332   0.826   3.342   0.574 -0.8196 -0.0398 -0.3361
16614TIP3    H171333   0.855   3.252   0.588 -1.2287  0.1036  1.8065
16614TIP3    H271334   0.894   3.382   0.520 -0.6808 -1.6325 -1.4013
16615TIP3   OH271335   4.628   2.280  12.096  0.4770 -0.1223 -0.2781
16615TIP3    H171336   4.596   2.288  12.186  1.6385 -0.4964  0.1918
16615TIP3    H271337   4.673   2.195  12.093 -1.8770 -1.4267 -2.0017
16616TIP3   OH271338   0.455   4.019  12.523  0.4943 -0.1874  0.0528
16616TIP3    H171339   0.382   4.081  12.526 -0.6115 -1.3361  4.4543
16616TIP3    H271340   0.413   3.933  12.513  1.5880 -0.6329 -0.9928
16617TIP3   OH271341   5.468   0.813   2.475 -0.2507  0.4472  0.6941
16617TIP3    H171342   5.459   0.857   2.391 -2.7905 -1.7952 -0.3532
16617TIP3    H271343   5.384   0.826   2.519  0.5913  0.5201  2.3972
16618TIP3   OH271344   3.687   3.927   1.130  0.5593 -0.0388  0.5500
16618TIP3    H171345   3.726   3.892   1.050 -0.3405 -1.8754  0.8622
16618TIP3    H271346   3.692   3.855   1.193 -0.4121  0.7534  1.5823
16619TIP3   OH271347   3.846   5.191  16.195  0.0826  0.2937  0.0957
16619TIP3    H171348   3.794   5.158  16.268 -1.8899  3.6114  0.4315
16619TIP3    H271349   3.907   5.253  16.235 -0.2381  1.3039 -0.9183
16620TIP3   OH271350   0.917   5.240  12.063  1.0231 -0.1897 -0.0533
16620TIP3    H171351   0.858   5.178  12.104  1.2280  0.9335  2.0976
16620TIP3    H271352   0.899   5.232  11.969 -1.4012 -0.9972  0.4044
16621TIP3   OH271353   3.092   5.523   1.124  0.2243  0.0344 -0.0756
16621TIP3    H171354   3.173   5.474   1.113  0.4839  0.5230 -0.3321
16621TIP3    H271355   3.118   5.615   1.118 -0.5827  0.1952 -1.9682
16622TIP3   OH271356   0.111   3.851  16.206 -0.2391  0.4948  0.4461
16622TIP3    H171357   0.070   3.936  16.191 -0.3516  0.2854 -0.5116
16622TIP3    H271358   0.136   3.820  16.118 -0.0188 -0.3683  0.7960
16623TIP3   OH271359   6.364   5.696  12.188 -0.3247  0.2190  0.0368
16623TIP3    H171360   6.420   5.637  12.238  1.6261 -0.5076 -2.7734
16623TIP3    H271361   6.285   5.646  12.170  0.5850 -0.9596 -0.8139
16624TIP3   OH271362   5.725   3.849  15.304  0.4505  0.0374  0.0837
16624TIP3    H171363   5.815   3.822  15.319  0.0410 -1.0922  0.5934
16624TIP3    H271364   5.693   3.791  15.235 -1.2232 -2.7427  2.9094
16625TIP3   OH271365   6.357   0.224  14.335  0.1761 -0.4848  0.2028
16625TIP3    H171366   6.389   0.267  14.414  0.1793 -0.2549  0.0793
16625TIP3    H271367   6.436   0.189  14.293  0.1665 -0.6654  0.3368
16626TIP3   OH271368   2.224   4.738   0.071  0.6094  0.5906 -0.4904
16626TIP3    H171369   2.276   4.698   0.001 -0.7364 -1.4153 -0.4395
16626TIP3    H271370   2.213   4.668   0.136 -3.2250  0.3776 -1.1192
16627TIP3   OH271371   1.009   3.322   3.822  0.1714  0.1452  0.1749
16627TIP3    H171372   1.105   3.315   3.813  0.0027 -0.6526 -1.5118
16627TIP3    H271373   0.990   3.414   3.809  0.6993  0.2862  0.3795
16628TIP3   OH271374   1.881   4.120  13.698  0.3635  0.0964  0.1957
16628TIP3    H171375   1.787   4.139  13.692  0.7711  2.4119 -0.0433
16628TIP3    H271376   1.888   4.051  13.763 -1.5440 -0.5993 -0.2692
16629TIP3   OH271377   0.619   2.635  17.494  0.0298 -0.0676  0.4565
16629TIP3    H171378   0.587   2.627  17.404 -1.4121 -1.0523  1.0020
16629TIP3    H271379   0.673   2.714  17.494  0.9935 -0.6728 -1.5114
16630TIP3   OH271380   2.582   3.325   0.489 -0.2850  0.6183 -0.2176
16630TIP3    H171381   2.521   3.399   0.492 -1.7054 -0.5267  0.6781
16630TIP3    H271382   2.656   3.352   0.543 -1.3043  0.9554  1.0566
16631TIP3   OH271383   5.845   3.763  14.564 -0.7458  0.1302 -0.3359
16631TIP3    H171384   5.864   3.722  14.480 -0.6004 -2.2077  0.7737
16631TIP3    H271385   5.924   3.813  14.586 -0.7778  0.7328 -1.5433
16632TIP3   OH271386   0.187   3.986   2.570  0.4353  0.1535  0.0581
16632TIP3    H171387   0.173   4.034   2.652 -0.9192  0.7613 -0.5014
16632TIP3    H271388   0.143   4.038   2.503 -0.6199 -1.5659 -0.6619
16633TIP3   OH271389   1.678   5.938  13.573 -0.1354 -0.7250 -0.3745
16633TIP3    H171390   1.690   5.853  13.530 -0.4367 -1.6638  1.2613
16633TIP3    H271391   1.585   5.938  13.598  0.3516 -0.9454  1.5966
16634TIP3   OH271392   2.150   5.322  15.568 -0.2278 -0.1807  0.1690
16634TIP3    H171393   2.132   5.299  15.659 -0.7582 -0.9459 -0.1179
16634TIP3    H271394   2.229   5.271  15.546 -0.5516 -0.6088 -0.0247
16635TIP3   OH271395   3.649   1.060   4.000  0.0285 -0.1855  0.5381
16635TIP3    H171396   3.614   1.043   4.088 -1.1082 -0.1837  0.1049
16635TIP3    H271397   3.707   1.135   4.011  0.6972 -0.8146  1.4648
16636TIP3   OH271398   5.303   4.582   3.579 -0.0919 -0.5843 -0.2127
16636TIP3    H171399   5.340   4.495   3.566 -0.4315 -0.7929  0.1677
16636TIP3    H271400   5.364   4.626   3.638 -0.1403 -0.7220 -0.0571
16637TIP3   OH271401   3.470   2.925  11.396  0.1379  0.1596  0.1328
16637TIP3    H171402   3.381   2.933  11.361  0.1007  3.0810  0.5927
16637TIP3    H271403   3.521   2.887  11.325 -1.2147 -0.2803 -0.6358
16638TIP3   OH271404   3.920   0.569  13.301 -0.0333 -0.8830  0.3028
16638TIP3    H171405   3.895   0.481  13.329  0.5609 -0.9344  0.6807
16638TIP3    H271406   3.986   0.555  13.233 -1.7231 -0.7699 -1.4686
16639TIP3   OH271407   1.516   6.185  14.413  0.1865 -0.3058  0.0320
16639TIP3    H171408   1.456   6.249  14.374 -1.3487 -2.9260 -2.3215
16639TIP3    H271409   1.603   6.216  14.389 -0.3940  1.6034  0.2159
16640TIP3   OH271410   2.471   5.855  11.837  0.1965 -0.0859 -0.0247
16640TIP3    H171411   2.437   5.890  11.754 -0.8255 -0.0016  0.4063
16640TIP3    H271412   2.523   5.780  11.812 -0.6642 -0.4797 -0.7111
16641TIP3   OH271413   5.921   3.840  14.926 -0.1725 -1.0425  0.0273
16641TIP3    H171414   5.848   3.895  14.953  1.2770  1.4080 -0.7436
16641TIP3    H271415   5.883   3.780  14.862 -1.5427  0.1324 -0.3215
16642TIP3   OH271416   2.289   4.262  15.962 -0.0412 -0.0556  0.5811
16642TIP3    H171417   2.237   4.320  16.018 -1.3965  0.6076 -1.2772
16642TIP3    H271418   2.238   4.181  15.958  0.4170 -0.3613  0.8862
16643TIP3   OH271419   4.955   2.038  15.276 -0.5314 -0.4403  0.7482
16643TIP3    H171420   4.911   1.981  15.213 -0.3434 -0.4723  0.6430
16643TIP3    H271421   4.909   2.023  15.358 -0.7804 -0.3948  0.6162
16644TIP3   OH271422   0.470   6.112  13.682  0.5000 -0.2181 -0.4908
16644TIP3    H171423   0.535   6.116  13.611  0.7313  0.6244 -0.2447
16644TIP3    H271424   0.469   6.201  13.717  0.5435 -0.6822  0.7111
16645TIP3   OH271425   0.562   3.315  16.106  0.2042 -0.4394  0.2936
16645TIP3    H171426   0.654   3.292  16.099  0.3524 -0.3142  1.5434
16645TIP3    H271427   0.534   3.331  16.016  2.1411  2.3964  0.0698
16646TIP3   OH271428   5.863   0.259   1.275 -0.6369 -0.0134  0.0583
16646TIP3    H171429   5.841   0.317   1.347 -1.4926  0.2166 -0.3761
16646TIP3    H271430   5.855   0.171   1.312  0.7160  0.1134  0.7319
16647TIP3   OH271431   0.193   2.496  12.056  0.1316 -0.0603 -0.0128
16647TIP3    H171432   0.144   2.432  12.005 -1.3890 -0.4627  1.8562
16647TIP3    H271433   0.240   2.548  11.990 -0.9386 -1.1747 -1.7348
16648TIP3   OH271434   3.398   4.241  13.321 -0.0981 -0.2304 -0.2058
16648TIP3    H171435   3.484   4.274  13.297 -0.2748  0.3473 -0.0365
16648TIP3    H271436   3.345   4.255  13.242 -0.5297  1.1481  0.3103
16649TIP3   OH271437   5.873   1.832  14.399 -0.7267  0.5489  0.6165
16649TIP3    H171438   5.857   1.848  14.306  0.6529  0.2997  0.3161
16649TIP3    H271439   5.924   1.907  14.428  0.5029 -0.2983  0.6938
16650TIP3   OH271440   3.442   0.423   2.071 -0.2632  0.0174 -0.6064
16650TIP3    H171441   3.530   0.389   2.057  1.2432  2.4617  1.9955
16650TIP3    H271442   3.406   0.368   2.142  0.9769  1.7039  1.4309
16651TIP3   OH271443   0.753   2.739  17.068  0.5804  0.1264  0.4383
16651TIP3    H171444   0.734   2.797  16.994  0.5200 -0.8993 -0.3828
16651TIP3    H271445   0.848   2.726  17.064  0.2293 -3.0951 -2.0307
16652TIP3   OH271446   1.112   6.554   0.124  0.0897 -0.1691  0.1875
16652TIP3    H171447   1.193   6.595   0.095 -0.9048  2.1316  0.4555
16652TIP3    H271448   1.066   6.531   0.043  0.4363 -0.2940  0.0260
16653TIP3   OH271449   1.761   6.359  13.359 -0.0031 -0.1050  0.1108
16653TIP3    H171450   1.834   6.401  13.405  0.6509 -0.1649 -0.8388
16653TIP3    H271451   1.756   6.406  13.275 -0.6216 -0.5524 -0.1091
16654TIP3   OH271452   3.012   2.523   1.414  0.3322 -0.0744  0.4944
16654TIP3    H171453   3.006   2.554   1.505 -1.0126 -0.1621  0.4569
16654TIP3    H271454   3.104   2.535   1.391  0.0657  3.4141  0.6712
16655TIP3   OH271455   2.053   2.499  14.310 -0.3450  0.2694 -0.2526
16655TIP3    H171456   2.087   2.583  14.338  0.8126 -0.5230  0.8174
16655TIP3    H271457   2.039   2.509  14.215 -0.3358  1.6813 -0.1142
16656TIP3   OH271458   3.774   2.045  16.793 -0.2403 -0.1820  0.1045
16656TIP3    H171459   3.722   2.117  16.829  1.8629  1.4023  0.2099
16656TIP3    H271460   3.821   2.009  16.868 -0.1556 -0.6967 -0.1837
16657TIP3   OH271461   3.954   5.585  15.294 -0.4297  0.6793  0.0828
16657TIP3    H171462   3.973   5.651  15.227 -0.4148 -0.8795 -1.5261
16657TIP3    H271463   3.901   5.630  15.359 -0.8647  2.1407 -1.2387
16658TIP3   OH271464   6.071   3.528  16.095 -0.1367  0.2840 -0.0159
16658TIP3    H171465   6.079   3.545  16.189 -3.0175 -0.9100  0.5374
16658TIP3    H271466   6.093   3.436  16.085  0.8750  0.5794 -0.6764
16659TIP3   OH271467   4.607   4.025  11.677  0.2325 -0.1608 -0.3062
16659TIP3    H171468   4.639   4.007  11.766 -0.1838 -1.1200 -0.3440
16659TIP3    H271469   4.687   4.030  11.624  0.5811  1.6885  0.3184
16660TIP3   OH271470   5.750   4.680   1.156  0.1536 -0.0768  0.1304
16660TIP3    H171471   5.844   4.661   1.158  0.3640  0.4736 -2.0179
16660TIP3    H271472   5.714   4.615   1.095 -0.8828 -0.3091  0.9644
16661TIP3   OH271473   6.306   3.295   3.420  0.0848  1.0608 -0.1281
16661TIP3    H171474   6.227   3.245   3.404 -0.2106  1.4742  0.0182
16661TIP3    H271475   6.334   3.268   3.508  0.6310  0.2255 -0.5466
16662TIP3   OH271476   4.555   4.402  12.649 -0.0521  0.0952  0.1208
16662TIP3    H171477   4.568   4.319  12.604  2.2237  1.1542 -1.3521
16662TIP3    H271478   4.518   4.378  12.734 -0.5057 -2.3041 -0.6872
16663TIP3   OH271479   0.074   6.553  15.500  0.0668  0.4868 -0.2716
16663TIP3    H171480  -0.012   6.554  15.458  0.9388  1.7686 -2.1534
16663TIP3    H271481   0.099   6.460  15.503 -1.4639  0.0784  0.5398
16664TIP3   OH271482   5.817   2.778  11.791 -0.3212 -0.0276 -0.0807
16664TIP3    H171483   5.820   2.742  11.702 -0.7905  0.2943 -0.2335
16664TIP3    H271484   5.852   2.709  11.846  0.5623  0.0009 -0.5868
16665TIP3   OH271485   4.484   4.422  11.645 -0.5112  0.2503 -0.1419
16665TIP3    H171486   4.425   4.405  11.572  0.1467 -0.1652 -0.5819
16665TIP3    H271487   4.572   4.417  11.608  0.1924 -4.6456  1.4012
16666TIP3   OH271488   0.188   1.107  13.818 -0.6134  0.2703 -0.1971
16666TIP3    H171489   0.252   1.036  13.824 -0.1300  0.7999  1.3636
16666TIP3    H271490   0.105   1.063  13.803 -0.3613 -0.6563  1.0025
16667TIP3   OH271491   1.018   1.800   2.933 -0.0954 -0.0554 -0.1804
16667TIP3    H171492   0.955   1.739   2.895 -0.3955  0.2163 -0.1226
16667TIP3    H271493   0.965   1.872   2.967  0.0682 -0.7681  1.6742
16668TIP3   OH271494   2.949   1.454   0.656 -0.2456 -0.1310  0.9865
16668TIP3    H171495   2.996   1.371   0.651 -1.2133 -0.6381 -0.8613
16668TIP3    H271496   3.017   1.521   0.658  0.5477 -0.9327  1.3539
16669TIP3   OH271497   6.599   2.868  17.399 -0.0068  0.1573  0.0916
16669TIP3    H171498   6.667   2.921  17.357  1.7326  0.1117  2.6385
16669TIP3    H271499   6.518   2.895  17.356  1.4569  1.0495 -2.2788
16670TIP3   OH271500   5.654   6.189   2.899  0.1702  0.2533 -0.1347
16670TIP3    H171501   5.626   6.169   2.810  0.5162 -0.5752 -0.0681
16670TIP3    H271502   5.629   6.112   2.950  0.2350  0.5991  0.4344
16671TIP3   OH271503   1.532   4.827   0.839 -0.5616 -0.3262  0.3633
16671TIP3    H171504   1.561   4.737   0.825 -3.0759 -1.0069 -1.3979
16671TIP3    H271505   1.520   4.862   0.750 -3.2478  0.3726  0.9011
16672TIP3   OH271506   3.779   4.045   1.346  0.4372  0.5191 -0.1974
16672TIP3    H171507   3.712   4.010   1.288 -1.1382  1.6031  0.8884
16672TIP3    H271508   3.847   4.078   1.287 -0.6210  0.6474 -1.4045
16673TIP3   OH271509   5.718   3.559  12.310  0.5751  0.4619  0.4410
16673TIP3    H171510   5.632   3.597  12.326 -0.3784 -2.0733  1.9983
16673TIP3    H271511   5.702   3.465  12.304  3.1602 -0.0355  0.0063
16674TIP3   OH271512   6.237   5.330   1.888  0.2302 -0.3178 -0.2790
16674TIP3    H171513   6.264   5.270   1.818  2.1538  2.1384 -1.8627
16674TIP3    H271514   6.216   5.411   1.842  2.1265  1.6053  1.9513
16675TIP3   OH271515   6.700   0.898  14.126  0.3110 -0.5216  0.2928
16675TIP3    H171516   6.706   0.991  14.148 -0.7982 -0.5873  0.9639
16675TIP3    H271517   6.610   0.874  14.148 -0.1164 -1.2381 -1.9492
16676TIP3   OH271518   0.715   1.382   1.464  0.0248  0.2996 -0.0000
16676TIP3    H171519   0.687   1.304   1.512  1.5690  1.2279  2.6167
16676TIP3    H271520   0.714   1.356   1.372 -1.5392 -2.1032  0.6140
16677TIP3   OH271521   1.294   1.153  11.243  0.0252 -0.2920 -0.2273
16677TIP3    H171522   1.273   1.061  11.226 -0.5870 -0.4292  1.1065
16677TIP3    H271523   1.224   1.182  11.302 -1.4492  1.8624 -2.8364
16678TIP3   OH271524   4.760   3.774   0.738 -0.4445 -0.3899  0.1124
16678TIP3    H171525   4.674   3.816   0.743 -0.6890 -0.5312 -1.8886
16678TIP3    H271526   4.813   3.835   0.686 -0.2156 -1.5712 -1.1119
16679TIP3   OH271527   4.239   6.437  16.319 -0.0158  0.3587 -0.4768
16679TIP3    H171528   4.288   6.505  16.272 -0.1547  0.5568 -0.3368
16679TIP3    H271529   4.159   6.481  16.348  0.8076  0.7139  1.4152
16680TIP3   OH271530   0.337   2.947   2.805 -0.1486  0.4600  0.1687
16680TIP3    H171531   0.401   2.996   2.753 -0.0618  0.9486  0.7343
16680TIP3    H271532   0.255   2.994   2.792 -0.1511  0.5140  0.3931
16681TIP3   OH271533   0.514   3.103   1.402  0.0638  0.2560  0.2791
16681TIP3    H171534   0.549   3.192   1.398 -2.7000  1.4014 -1.9478
16681TIP3    H271535   0.440   3.109   1.463 -0.7866 -0.2173 -0.6781
16682TIP3   OH271536   1.890   4.870   3.116 -0.2036 -0.1244  0.3228
16682TIP3    H171537   1.801   4.894   3.140 -0.3614  0.6842 -0.9787
16682TIP3    H271538   1.945   4.919   3.177 -0.6331 -1.3153  1.7171
16683TIP3   OH271539   4.906   0.190  12.107  0.4628  0.3728  0.4614
16683TIP3    H171540   4.972   0.220  12.170 -0.2081 -0.9477  1.8732
16683TIP3    H271541   4.841   0.260  12.106  0.5907  0.5122  1.0983
16684TIP3   OH271542   4.436   0.591   1.362  0.8757 -0.3912 -0.0910
16684TIP3    H171543   4.459   0.518   1.304  2.3464  0.6434 -0.8726
16684TIP3    H271544   4.410   0.661   1.302 -0.4586 -0.2134  0.6507
16685TIP3   OH271545   3.137   3.418   2.587 -0.0125 -0.4552 -0.1695
16685TIP3    H171546   3.218   3.374   2.612  0.0348  0.1252  0.7515
16685TIP3    H271547   3.068   3.356   2.612  0.1271 -0.7786 -0.5813
16686TIP3   OH271548   5.072   5.396  13.648 -0.2591 -0.1193 -0.0563
16686TIP3    H171549   5.159   5.411  13.685 -1.2835  0.0946  2.5205
16686TIP3    H271550   5.046   5.310  13.684 -1.8575  0.7200  0.9346
16687TIP3   OH271551   6.725   5.516  16.925 -0.3704 -0.0482 -1.0881
16687TIP3    H171552   6.674   5.597  16.922  1.3945  1.1709 -0.5988
16687TIP3    H271553   6.766   5.518  17.012  1.8198 -0.0385 -2.0498
16688TIP3   OH271554   4.330   6.475  15.153  0.3037  0.0599  0.6484
16688TIP3    H171555   4.393   6.495  15.084  0.3262  2.3131  1.2474
16688TIP3    H271556   4.251   6.449  15.106  1.4224 -2.1619 -0.1202
16689TIP3   OH271557   0.456   4.410  17.341  0.2380 -0.2791  0.3345
16689TIP3    H171558   0.460   4.443  17.431  0.6020 -0.2228  0.2993
16689TIP3    H271559   0.459   4.315  17.349 -2.6789 -0.4617  0.5568
16690TIP3   OH271560   5.492   0.254  12.736 -0.1729 -0.0462  0.4698
16690TIP3    H171561   5.517   0.312  12.807  1.6169  0.1969 -0.3124
16690TIP3    H271562   5.501   0.166  12.772 -1.0849  0.1038  1.0894
16691TIP3   OH271563   3.557   5.197   0.502  0.3259 -0.3833  0.1542
16691TIP3    H171564   3.594   5.285   0.500 -0.3354 -0.0869  0.4860
16691TIP3    H271565   3.588   5.160   0.584  1.1689 -0.7205 -0.3073
16692TIP3   OH271566   3.122   5.270   2.919  1.0706  0.5566  0.5385
16692TIP3    H171567   3.059   5.286   2.989  2.4375 -0.7082  2.1827
16692TIP3    H271568   3.084   5.199   2.868  0.6045  0.6486  0.7541
16693TIP3   OH271569   1.902   0.307  12.377 -0.0692  0.5402  0.7484
16693TIP3    H171570   1.869   0.221  12.403 -0.9742  0.8788  0.7646
16693TIP3    H271571   1.963   0.289  12.306  0.7777 -0.2197  1.6389
16694TIP3   OH271572   3.562   5.980  15.337  0.4067  0.0874 -0.4831
16694TIP3    H171573   3.554   5.906  15.397  3.7046 -0.0580 -0.0207
16694TIP3    H271574   3.639   6.027  15.368  0.7855  1.4260 -3.1540
16695TIP3   OH271575   6.461   6.098  13.436  0.5901 -0.4911 -0.6066
16695TIP3    H171576   6.527   6.047  13.389 -1.3577 -2.7150 -1.1405
16695TIP3    H271577   6.480   6.082  13.529 -0.1726 -2.5823 -0.7610
16696TIP3   OH271578   4.720   0.790  12.914 -0.1889  0.0242  0.4491
16696TIP3    H171579   4.745   0.730  12.984 -0.8016 -1.5015 -0.6002
16696TIP3    H271580   4.796   0.792  12.856 -0.6738 -0.8759 -0.2463
16697TIP3   OH271581   1.772   1.919   2.673  0.0358  0.1222  0.1293
16697TIP3    H171582   1.723   1.989   2.716 -1.8817 -1.9419  1.5216
16697TIP3    H271583   1.717   1.892   2.600  1.3330  0.7700 -1.1670
16698TIP3   OH271584   4.486   0.906  14.769  0.3078 -0.0745 -0.5571
16698TIP3    H171585   4.502   0.878  14.859  0.4083  2.2006  0.2156
16698TIP3    H271586   4.512   0.999  14.768  0.3622 -0.0391 -2.9508
16699TIP3   OH271587   6.434   0.363  12.928 -0.0368  0.6213 -0.4296
16699TIP3    H171588   6.393   0.416  12.859 -0.5174  0.8564  0.0328
16699TIP3    H271589   6.380   0.378  13.005  0.7299  0.6844  0.1091
16700TIP3   OH271590   5.000   6.063   3.327 -0.6362 -0.4479  0.3079
16700TIP3    H171591   4.928   6.059   3.264 -0.5139  0.5846  0.0788
16700TIP3    H271592   5.055   5.988   3.306 -0.8249 -0.3595 -0.5513
16701TIP3   OH271593   1.603   4.742  15.063 -0.6419  0.0479 -0.0354
16701TIP3    H171594   1.607   4.837  15.052 -1.0551  0.0737  0.0316
16701TIP3    H271595   1.604   4.707  14.974 -1.3110  0.1497 -0.0895
16702TIP3   OH271596   2.333   0.129   4.990  0.0014 -0.0533 -0.3203
16702TIP3    H171597   2.382   0.210   4.977 -0.0217  0.3967  1.9372
16702TIP3    H271598   2.247   0.146   4.953  0.3841  0.4968 -0.9697
16703TIP3   OH271599   6.524   3.131   0.882  0.3315  0.6164  0.3171
16703TIP3    H171600   6.486   3.101   0.799  2.4489 -0.6141 -0.2853
16703TIP3    H271601   6.578   3.206   0.857  0.8015  0.3796  0.6128
16704TIP3   OH271602   3.343   4.548   5.154  0.5891  0.5820 -0.2763
16704TIP3    H171603   3.349   4.555   5.058  0.9281 -0.8722 -0.3825
16704TIP3    H271604   3.431   4.569   5.185  1.2296 -1.5129 -0.5006
16705TIP3   OH271605   4.668   5.355  13.313  0.1393 -0.0718  0.1635
16705TIP3    H171606   4.735   5.407  13.269  0.9179  0.0381  1.4249
16705TIP3    H271607   4.707   5.268  13.322 -0.0742 -0.1392  0.4755
16706TIP3   OH271608   0.013   5.924   5.378  0.3744  0.4332 -0.5009
16706TIP3    H171609   0.078   5.960   5.438  1.7886 -1.6390 -0.6862
16706TIP3    H271610   0.047   5.944   5.291 -0.3776  1.2429 -0.6145
16707TIP3   OH271611   5.433   3.245  16.892 -0.0868  0.3864  0.9242
16707TIP3    H171612   5.383   3.291  16.960  0.9182  0.5307  1.5857
16707TIP3    H271613   5.410   3.290  16.811 -2.3680 -0.6455  0.9099
16708TIP3   OH271614   4.272   4.060  17.449 -0.2480  0.4024 -0.3484
16708TIP3    H171615   4.269   4.002  17.372 -0.0999  0.6330 -0.5306
16708TIP3    H271616   4.236   4.007  17.520 -2.2661  0.8486 -0.9898
16709TIP3   OH271617   2.748   3.503   7.044  0.6609  0.2237  0.4026
16709TIP3    H171618   2.753   3.582   7.097  0.8256  0.2181  0.3960
16709TIP3    H271619   2.678   3.451   7.084  0.9159  0.1328  0.7266
16710TIP3   OH271620   1.783   3.867   3.020  0.1785 -0.2288 -0.1747
16710TIP3    H171621   1.764   3.780   3.055  0.9455 -0.3857 -0.1462
16710TIP3    H271622   1.722   3.877   2.947 -0.4437 -0.4742  0.3021
16711TIP3   OH271623   0.067   3.048   2.723 -0.6523  0.6862  0.4432
16711TIP3    H171624  -0.007   2.994   2.696 -0.6216  1.0091 -0.3218
16711TIP3    H271625   0.027   3.127   2.760 -0.6943  0.2431  1.3723
16712TIP3   OH271626   3.992   5.163  12.118  0.4887 -0.3276 -0.4686
16712TIP3    H171627   4.022   5.235  12.173  0.5142 -1.6360  1.2947
16712TIP3    H271628   4.071   5.114  12.096  0.3661 -0.3364 -0.8989
16713TIP3   OH271629   2.698   6.697  16.185  0.2436 -0.0764  0.0081
16713TIP3    H171630   2.756   6.658  16.250 -0.2499  0.3931  0.7555
16713TIP3    H271631   2.741   6.778  16.159  0.2114 -0.0261  0.1126
16714TIP3   OH271632   5.359   0.671  11.250  0.3675  0.2899 -0.4581
16714TIP3    H171633   5.311   0.753  11.250  1.3038  0.8962  1.2735
16714TIP3    H271634   5.293   0.604  11.234 -0.9478  1.1523  1.1146
16715TIP3   OH271635   6.042   5.037  13.502  0.0344 -0.4889  0.1617
16715TIP3    H171636   6.131   5.073  13.499 -0.1560  0.1840  1.6989
16715TIP3    H271637   6.028   5.000  13.415  1.8245 -0.6284 -0.0939
16716TIP3   OH271638   5.840   4.911  14.044 -0.1866  0.3034 -0.6426
16716TIP3    H171639   5.770   4.855  14.077  1.3154  0.4195  3.2967
16716TIP3    H271640   5.797   4.968  13.980 -2.8547 -1.8918 -0.9916
16717TIP3   OH271641   2.644   3.279  14.252 -0.2548  0.3630 -0.3295
16717TIP3    H171642   2.659   3.354  14.196 -3.5070  0.1728 -1.6971
16717TIP3    H271643   2.662   3.203  14.197 -1.9842  0.1892 -0.7338
16718TIP3   OH271644   2.082   3.237   4.267  0.6859  0.0409 -0.1901
16718TIP3    H171645   2.134   3.263   4.343  0.1771 -1.3215  0.6643
16718TIP3    H271646   2.146   3.227   4.197  1.8295 -2.4431  1.0439
16719TIP3   OH271647   5.176   1.734   0.262 -1.3897  0.2504  0.1095
16719TIP3    H171648   5.137   1.815   0.295  1.2976  2.2079 -1.0935
16719TIP3    H271649   5.145   1.728   0.171  1.5562  2.3520 -1.1765
16720TIP3   OH271650   0.240   5.814   5.924  0.0617  0.0962 -0.4059
16720TIP3    H171651   0.303   5.745   5.945  0.0729  0.5452  1.1820
16720TIP3    H271652   0.157   5.768   5.909  0.2432 -0.3233 -0.1327
16721TIP3   OH271653   3.975   5.239  12.982 -0.0075  0.0151  0.1433
16721TIP3    H171654   3.960   5.151  13.015  0.7843 -0.1125  0.1905
16721TIP3    H271655   4.071   5.247  12.976 -0.0850  0.0910 -1.9545
16722TIP3   OH271656   6.525   3.965   1.827  0.8616  0.3901  0.0460
16722TIP3    H171657   6.465   3.987   1.898  1.2301  2.2741 -0.1932
16722TIP3    H271658   6.609   3.950   1.870  0.7267 -0.0709  0.1566
16723TIP3   OH271659   4.043   4.604  10.983  0.2272 -0.3372 -0.5517
16723TIP3    H171660   4.053   4.510  10.973  0.3293 -0.4488  0.4491
16723TIP3    H271661   3.948   4.617  10.989  0.2601 -0.5728  0.8260
16724TIP3   OH271662   3.831   0.020   6.068  0.0710  0.0275 -0.4248
16724TIP3    H171663   3.892  -0.015   6.133 -0.2972 -1.7225 -0.9683
16724TIP3    H271664   3.752  -0.034   6.077 -0.5061  0.6657 -1.3791
16725TIP3   OH271665   0.410   1.232   4.196 -0.4497  1.0291 -0.1504
16725TIP3    H171666   0.409   1.214   4.102  0.9769 -0.3151  0.0470
16725TIP3    H271667   0.397   1.326   4.203 -4.6192  0.7796 -1.4837
16726TIP3   OH271668   1.447   1.451  11.609 -0.7923 -0.1750 -0.0135
16726TIP3    H171669   1.470   1.384  11.673  2.4259  1.0345  0.2615
16726TIP3    H271670   1.470   1.534  11.652  0.7895  0.7195 -2.3995
16727TIP3   OH271671   6.232   1.928  16.785  0.3376  0.4740 -0.0649
16727TIP3    H171672   6.276   2.012  16.799  0.1676  0.3274  1.4779
16727TIP3    H271673   6.148   1.937  16.830 -0.0930 -0.2085 -0.6942
16728TIP3   OH271674   5.447   2.804   4.778 -0.1715 -0.2679  0.1971
16728TIP3    H171675   5.408   2.785   4.693 -1.1312  2.3533 -0.0295
16728TIP3    H271676   5.532   2.842   4.757  0.0856 -0.6653  0.4899
16729TIP3   OH271677   1.507   2.071   5.362  1.0909 -0.3193  0.1779
16729TIP3    H171678   1.516   2.098   5.270  2.1216 -0.8510  0.1038
16729TIP3    H271679   1.593   2.089   5.400  0.8991 -0.8069  0.8488
16730TIP3   OH271680   1.466   3.678   5.905 -0.0915 -0.4660  0.1490
16730TIP3    H171681   1.409   3.650   5.977 -0.0045  1.0481  0.8269
16730TIP3    H271682   1.444   3.770   5.891 -0.6002 -0.8886 -2.2523
16731TIP3   OH271683   2.466   4.654  12.264 -0.4386 -0.1125  0.0671
16731TIP3    H171684   2.527   4.718  12.301  1.2288 -0.8198 -1.2590
16731TIP3    H271685   2.449   4.687  12.176  0.3680 -1.3674 -0.6012
16732TIP3   OH271686   5.358   2.280   6.115 -0.0152 -0.0914 -0.7809
16732TIP3    H171687   5.405   2.197   6.115  0.4780  0.1693 -2.0059
16732TIP3    H271688   5.357   2.307   6.207  0.7256 -0.9453 -0.5123
16733TIP3   OH271689   3.161   3.319  16.711  0.0900  0.2914 -0.0152
16733TIP3    H171690   3.159   3.224  16.722  1.1798  0.1655 -0.7611
16733TIP3    H271691   3.240   3.347  16.757 -0.8121  0.9945  1.1606
16734TIP3   OH271692   0.629   2.899  15.669 -0.1749 -0.6236  0.0099
16734TIP3    H171693   0.697   2.922  15.606 -0.2579 -0.5528 -0.0537
16734TIP3    H271694   0.565   2.849  15.618  0.3937 -1.6952  0.3116
16735TIP3   OH271695   1.716   2.521   1.116  0.3624 -0.1706  0.5036
16735TIP3    H171696   1.718   2.608   1.076 -1.1548  0.0380  0.8132
16735TIP3    H271697   1.628   2.513   1.153  0.7995 -1.4517  1.3645
16736TIP3   OH271698   0.530   0.904  11.786 -0.3718 -0.0302  0.4612
16736TIP3    H171699   0.622   0.907  11.759 -0.9114 -0.1644 -1.5561
16736TIP3    H271700   0.485   0.962  11.724 -1.9179 -1.4728  0.1518
16737TIP3   OH271701   6.538   1.221   2.574 -0.0455  0.6502  0.2124
16737TIP3    H171702   6.476   1.243   2.644 -1.5967  1.0940 -1.2361
16737TIP3    H271703   6.620   1.262   2.601 -1.2235  2.8928  0.6563
16738TIP3   OH271704   0.041   6.038   1.896  0.2973  0.2096  0.0313
16738TIP3    H171705  -0.049   6.005   1.901  0.0545  0.9478  0.9348
16738TIP3    H271706   0.094   5.972   1.942  0.1769 -0.0920 -0.2628
16739TIP3   OH271707   5.479   6.732   3.434 -0.3055  0.8088  0.0336
16739TIP3    H171708   5.559   6.697   3.395 -1.2552 -0.7121 -0.6150
16739TIP3    H271709   5.507   6.763   3.521  1.0942  0.8876 -0.4163
16740TIP3   OH271710   1.578   1.690   5.458 -0.0871 -0.0775 -0.4737
16740TIP3    H171711   1.517   1.640   5.511 -0.1274  0.0569 -0.3942
16740TIP3    H271712   1.527   1.717   5.382 -0.3525  0.7146 -0.0277
16741TIP3   OH271713   0.715   2.419   5.788 -0.2935 -0.4303  0.3454
16741TIP3    H171714   0.761   2.480   5.845  0.2729 -0.0606 -0.4793
16741TIP3    H271715   0.764   2.337   5.794  0.4214 -0.0775 -0.4231
16742TIP3   OH271716   2.860   1.008   0.189 -0.0120 -0.9657 -0.0459
16742TIP3    H171717   2.832   1.095   0.160 -1.0607 -1.1868  0.2486
16742TIP3    H271718   2.778   0.960   0.203  0.5449 -2.4865 -1.6187
16743TIP3   OH271719   6.647   6.297   2.378  0.1479  0.3099 -0.1039
16743TIP3    H171720   6.588   6.344   2.437  0.6077 -0.5429  1.0722
16743TIP3    H271721   6.595   6.223   2.347  0.1083  0.4049 -0.2615
16744TIP3   OH271722   3.364   5.007  14.116 -0.0030  0.1922 -0.3408
16744TIP3    H171723   3.348   4.978  14.206  1.5857  2.0282  0.6031
16744TIP3    H271724   3.402   5.094  14.125 -0.1401  0.5852 -2.8318
16745TIP3   OH271725   2.361   6.626   5.868  0.5674  0.0273 -0.4820
16745TIP3    H171726   2.447   6.609   5.830 -0.2981 -2.0127 -1.7221
16745TIP3    H271727   2.303   6.640   5.793 -0.2684  0.9847  0.3137
16746TIP3   OH271728   2.163   1.681   6.005  0.8401  0.3417 -0.0983
16746TIP3    H171729   2.201   1.679   6.093  1.1661 -0.0386 -0.2422
16746TIP3    H271730   2.185   1.769   5.972  1.4448  0.1977 -0.1049
16747TIP3   OH271731   2.387   0.881   0.705  0.4239 -0.0533  0.0494
16747TIP3    H171732   2.345   0.966   0.694 -2.3145 -1.0869  1.5901
16747TIP3    H271733   2.465   0.886   0.650 -1.4001  2.2242 -2.6006
16748TIP3   OH271734   5.309   5.872  16.508 -0.1961 -0.8696  0.3230
16748TIP3    H171735   5.241   5.936  16.531  0.6226  0.2419 -0.2665
16748TIP3    H271736   5.284   5.842  16.420  1.0513  0.9737 -0.7329
16749TIP3   OH271737   0.891   3.706  11.078 -0.4958 -0.0737 -0.2566
16749TIP3    H171738   0.796   3.711  11.073 -0.5354  0.5433  0.8078
16749TIP3    H271739   0.921   3.784  11.032 -0.5226  0.0088 -0.1347
16750TIP3   OH271740   5.001   2.409   2.901 -0.0648  0.3937  0.1485
16750TIP3    H171741   4.907   2.415   2.880 -0.0350 -0.9216 -0.4279
16750TIP3    H271742   5.044   2.458   2.831 -0.2052 -0.8926 -0.8788
16751TIP3   OH271743   6.429   1.634  12.871 -0.1454 -0.1714 -0.4031
16751TIP3    H171744   6.504   1.608  12.818  0.7091 -0.2348  0.8147
16751TIP3    H271745   6.417   1.562  12.932  0.1061  0.7437  0.7615
16752TIP3   OH271746   3.853   5.561  13.629 -0.3303 -0.4900  0.0111
16752TIP3    H171747   3.764   5.590  13.647  0.4545  2.2120  0.0253
16752TIP3    H271748   3.852   5.533  13.538 -0.9872  0.6303 -0.3432
16753TIP3   OH271749   4.942   1.007  11.714 -0.6352  0.5776  0.5771
16753TIP3    H171750   5.009   1.035  11.776 -1.3349  0.2914  1.4732
16753TIP3    H271751   4.940   0.911  11.723 -1.7117  0.6447  1.1366
16754TIP3   OH271752   1.813   1.645  15.869 -0.0546  0.0899  0.2137
16754TIP3    H171753   1.801   1.554  15.844 -0.4685  0.2439 -0.1590
16754TIP3    H271754   1.821   1.643  15.964 -0.6754 -0.2692  0.2625
16755TIP3   OH271755   5.748   1.248  12.141 -0.0017  0.8528  0.3941
16755TIP3    H171756   5.723   1.157  12.156 -0.9610  0.9348 -0.6155
16755TIP3    H271757   5.666   1.292  12.118  0.7456  1.5682 -1.0300
16756TIP3   OH271758   0.259   0.194   6.426  0.6019  0.2768  0.6083
16756TIP3    H171759   0.254   0.257   6.498 -0.8349  1.1375 -0.2137
16756TIP3    H271760   0.306   0.119   6.464  1.1351  1.2760  2.0074
16757TIP3   OH271761   3.759   0.771   1.437  0.2748 -0.0587 -0.8055
16757TIP3    H171762   3.752   0.698   1.376  0.9951 -0.8978  0.0758
16757TIP3    H271763   3.764   0.730   1.523  0.9753  1.0192 -0.3079
16758TIP3   OH271764   6.429   2.999   3.049  0.4915 -0.3292 -0.2927
16758TIP3    H171765   6.492   3.062   3.082  1.1902 -0.6319 -1.0195
16758TIP3    H271766   6.373   3.049   2.989  0.9912 -0.3737 -0.8029
16759TIP3   OH271767   5.655   3.842  13.983  0.2330 -0.0870  0.3805
16759TIP3    H171768   5.742   3.820  14.018 -0.1023  0.7417  1.8125
16759TIP3    H271769   5.623   3.911  14.041 -2.1396 -1.6211  1.0256
16760TIP3   OH271770   4.715   1.471  14.898  0.2929 -0.2564  0.2673
16760TIP3    H171771   4.635   1.472  14.950  0.7514 -0.8522  1.0029
16760TIP3    H271772   4.710   1.390  14.848 -0.7575  0.9183 -1.6306
16761TIP3   OH271773   3.688   3.597   3.443 -0.2263  0.1874 -0.2192
16761TIP3    H171774   3.639   3.536   3.499 -1.3530  1.2501 -0.0060
16761TIP3    H271775   3.648   3.682   3.459  0.5412  0.7971 -1.3892
16762TIP3   OH271776   1.656   2.998   3.619  0.4672 -0.5585  0.3459
16762TIP3    H171777   1.671   3.075   3.673 -0.3203  0.9689 -1.4852
16762TIP3    H271778   1.743   2.963   3.601  0.8896  0.3362  0.6164
16763TIP3   OH271779   4.153   0.566  13.088  0.0618  0.1297  0.2307
16763TIP3    H171780   4.104   0.598  13.012 -0.1870 -0.7873 -0.0026
16763TIP3    H271781   4.219   0.634  13.104  0.4720  0.0933 -1.1415
16764TIP3   OH271782   6.585   2.222  12.845 -0.0517 -0.0734  0.2652
16764TIP3    H171783   6.509   2.167  12.865 -0.1390 -0.1939 -0.3758
16764TIP3    H271784   6.639   2.168  12.787 -0.6197  0.8670 -1.1979
16765TIP3   OH271785   2.241   4.078  14.702 -0.2424  0.4989 -0.1492
16765TIP3    H171786   2.305   4.033  14.757  0.5188  1.2801 -0.3840
16765TIP3    H271787   2.166   4.093  14.759 -0.7188 -1.4570 -0.1741
16766TIP3   OH271788   4.941   2.584  12.022  0.1248 -0.0271  0.8770
16766TIP3    H171789   4.909   2.546  12.104 -0.4183  0.1365  0.7452
16766TIP3    H271790   5.001   2.653  12.050 -0.7640  0.6469  1.1656
16767TIP3   OH271791   5.329   0.601   2.736 -0.2561 -0.0103  0.1617
16767TIP3    H171792   5.267   0.541   2.777  1.1021 -2.2778 -0.9157
16767TIP3    H271793   5.415   0.573   2.768  0.4132  1.9468  0.2658
16768TIP3   OH271794   3.887   4.221  15.339 -1.0143 -0.3587  0.3801
16768TIP3    H171795   3.983   4.223  15.337 -1.0093 -0.6437  0.3731
16768TIP3    H271796   3.864   4.138  15.298 -1.2794 -0.0743 -0.0528
16769TIP3   OH271797   2.515   4.848   5.056  0.6131  0.0394  0.3518
16769TIP3    H171798   2.610   4.845   5.068  0.7436 -2.1711 -0.6073
16769TIP3    H271799   2.503   4.868   4.963  0.2888 -2.1616 -0.1513
16770TIP3   OH271800   5.924   4.232  17.564 -0.3885 -0.1024  0.7375
16770TIP3    H171801   5.986   4.301  17.542  2.1397 -2.3968  0.0507
16770TIP3    H271802   5.852   4.277  17.609  1.4018  2.8280  0.9205
16771TIP3   OH271803   6.490   0.777  14.289 -0.2669 -0.1552  0.5949
16771TIP3    H171804   6.398   0.794  14.309 -0.2573  0.1522  0.3786
16771TIP3    H271805   6.502   0.685  14.310 -1.3663 -1.0118 -2.1173
16772TIP3   OH271806   0.781   1.464   3.600  0.1909 -0.0034 -0.4917
16772TIP3    H171807   0.769   1.551   3.561  0.5255  0.6223  0.7500
16772TIP3    H271808   0.699   1.418   3.580 -1.0685  1.4558  0.9292
16773TIP3   OH271809   2.604   6.037   5.059  0.3984 -0.1273  0.2035
16773TIP3    H171810   2.554   6.012   5.136  1.0152 -2.0464  0.0277
16773TIP3    H271811   2.648   5.957   5.031 -2.0624 -0.3056 -3.8872
16774TIP3   OH271812   3.023   1.258   2.304 -0.4228 -0.0297 -0.1295
16774TIP3    H171813   2.941   1.211   2.320 -0.9652  1.4332  1.7588
16774TIP3    H271814   3.091   1.197   2.332 -1.0155 -0.3528  0.6337
16775TIP3   OH271815   5.103   3.605   2.436  0.5823 -0.2430  0.5792
16775TIP3    H171816   5.016   3.641   2.415  1.2599  1.9091  1.1708
16775TIP3    H271817   5.087   3.548   2.511 -0.3533 -0.0021  0.5835
16776TIP3   OH271818   5.499   0.482  15.971 -0.3096  0.0307 -0.4871
16776TIP3    H171819   5.531   0.539  15.900  1.1088  0.8640  0.7499
16776TIP3    H271820   5.573   0.477  16.032 -0.3816 -3.1678 -0.5114
16777TIP3   OH271821   1.489   1.107  17.148  0.3770  0.2908 -0.4092
16777TIP3    H171822   1.458   1.034  17.095 -0.5422  0.5172 -0.2127
16777TIP3    H271823   1.499   1.070  17.236 -0.7327  0.5354 -0.1617
16778TIP3   OH271824   1.588   4.822   2.288 -0.1156 -0.1105 -0.2416
16778TIP3    H171825   1.566   4.780   2.371  2.1864  2.0584  1.6603
16778TIP3    H271826   1.511   4.877   2.268  0.3464  1.5843  2.1501
16779TIP3   OH271827   0.908   1.001   4.477  0.1974  0.4366  0.4384
16779TIP3    H171828   0.994   1.033   4.503 -0.4163  1.5161  1.2294
16779TIP3    H271829   0.922   0.909   4.452  1.5413  0.5701  0.6681
16780TIP3   OH271830   1.302   5.084  13.585 -0.0133  0.1063 -0.3956
16780TIP3    H171831   1.354   5.016  13.543 -0.1067 -0.2553  0.0775
16780TIP3    H271832   1.247   5.119  13.514 -0.3386 -0.6655 -0.5311
16781TIP3   OH271833   0.167   1.999  15.976  0.1691  0.1808 -0.2575
16781TIP3    H171834   0.219   2.005  16.056 -0.4129 -1.2155  0.2611
16781TIP3    H271835   0.230   2.011  15.905  0.9858 -0.1831  0.3866
16782TIP3   OH271836   3.750   2.368  13.755  0.0578 -0.0996 -0.1652
16782TIP3    H171837   3.676   2.308  13.762 -0.0199  0.1477  1.3754
16782TIP3    H271838   3.826   2.311  13.741  0.1272 -0.6838  2.2103
16783TIP3   OH271839   5.569   3.313  14.693  0.3352 -0.6638 -0.4420
16783TIP3    H171840   5.532   3.287  14.608  0.2644 -0.1922 -0.5571
16783TIP3    H271841   5.531   3.399  14.711  1.3963 -0.1499 -0.5757
16784TIP3   OH271842   1.093   4.211  14.310 -0.4757 -0.0664 -0.2872
16784TIP3    H171843   1.058   4.294  14.343  1.8087  1.5842 -1.7506
16784TIP3    H271844   1.038   4.191  14.234 -1.2570 -0.1251  0.2775
16785TIP3   OH271845   6.384   5.727   5.575  0.4605 -0.1037 -0.3620
16785TIP3    H171846   6.475   5.725   5.545  0.6434 -1.5907  0.2099
16785TIP3    H271847   6.386   5.779   5.655  1.0444 -1.0811  0.2881
16786TIP3   OH271848   5.796   0.662   2.022  0.6723 -0.1380 -0.3079
16786TIP3    H171849   5.791   0.644   2.116  0.2216  0.4453 -0.2162
16786TIP3    H271850   5.888   0.683   2.007  0.7242 -0.1248  0.0219
16787TIP3   OH271851   4.840   2.997   3.509  0.0875 -0.4951 -0.4260
16787TIP3    H171852   4.845   2.916   3.458  0.0383 -0.1228 -1.0380
16787TIP3    H271853   4.789   3.056   3.454  0.0566 -0.0771  0.0528
16788TIP3   OH271854   1.950   6.026   4.520  0.3520 -0.3044 -0.3634
16788TIP3    H171855   1.921   5.997   4.606  2.7096  2.0332  1.3771
16788TIP3    H271856   2.044   6.005   4.518  1.1627  2.8525 -0.8083
16789TIP3   OH271857   3.756   0.112  13.015  0.1286  0.1297  0.4104
16789TIP3    H171858   3.711   0.197  13.020 -0.1137 -0.0388  1.2890
16789TIP3    H271859   3.849   0.134  13.021  0.0686  0.3425  0.5937
16790TIP3   OH271860   0.216   1.498   1.280  0.0367 -0.3544 -0.5173
16790TIP3    H171861   0.216   1.468   1.370 -1.4886  0.4769 -0.2051
16790TIP3    H271862   0.290   1.558   1.274  0.3158 -0.6371  0.0969
16791TIP3   OH271863   0.935   4.093   2.053  0.0174 -0.0884 -0.4727
16791TIP3    H171864   0.840   4.084   2.049 -0.0563  0.5422 -0.1989
16791TIP3    H271865   0.966   4.062   1.968 -0.4680  0.1672 -0.7477
16792TIP3   OH271866   4.682   4.973   5.717  0.0712 -0.4222  0.2856
16792TIP3    H171867   4.718   4.895   5.675 -0.1419  1.0830 -2.9498
16792TIP3    H271868   4.660   4.944   5.806  1.0441 -3.7007 -0.4117
16793TIP3   OH271869   0.876   4.619   3.867 -0.0350 -0.1570  0.4359
16793TIP3    H171870   0.950   4.674   3.893 -0.5123  0.6459  0.1689
16793TIP3    H271871   0.908   4.569   3.792  0.3317 -0.0358  0.5102
16794TIP3   OH271872   5.079   3.966   2.417  0.1290  0.2152  0.6318
16794TIP3    H171873   5.122   4.013   2.346 -1.1307 -0.0326 -0.3288
16794TIP3    H271874   5.140   3.895   2.439 -0.2063 -0.8022 -1.4492
16795TIP3   OH271875   0.470   0.038  16.436 -0.3381 -0.4136  0.1620
16795TIP3    H171876   0.512   0.122  16.414 -1.2055  0.2259  0.8514
16795TIP3    H271877   0.491   0.024  16.528 -0.1216 -1.0092  0.0252
16796TIP3   OH271878   3.649   0.470   3.796  0.0087 -0.0199  0.2770
16796TIP3    H171879   3.594   0.392   3.805 -0.9358  0.1215 -3.0769
16796TIP3    H271880   3.590   0.544   3.810  0.1624  0.1053  0.2703
16797TIP3   OH271881   0.398   1.626  17.521 -0.0759 -0.1950 -0.0196
16797TIP3    H171882   0.428   1.644  17.610 -0.9130 -2.3241  0.7606
16797TIP3    H271883   0.321   1.682  17.510 -0.8959 -1.0329  1.2138
16798TIP3   OH271884   6.512   2.782   5.553 -0.6035 -0.4129  0.2169
16798TIP3    H171885   6.432   2.774   5.605 -0.9841  1.0836 -0.1068
16798TIP3    H271886   6.485   2.764   5.464 -0.2759 -1.3287  0.2908
16799TIP3   OH271887   3.397   3.427   1.095 -0.4694 -0.0636 -0.1652
16799TIP3    H171888   3.336   3.487   1.136 -0.7210  0.0034 -0.6309
16799TIP3    H271889   3.367   3.420   1.005  0.6208  0.5114 -0.5888
16800TIP3   OH271890   2.340   1.911   3.546 -0.4403 -0.3580 -0.2391
16800TIP3    H171891   2.259   1.953   3.576 -0.0226 -0.4218  1.0395
16800TIP3    H271892   2.311   1.842   3.486 -1.3144 -0.1956 -0.0164
16801TIP3   OH271893   0.518   1.500  15.257  0.1251  0.4059 -0.7103
16801TIP3    H171894   0.612   1.516  15.245  0.3533  0.0089  0.4335
16801TIP3    H271895   0.502   1.522  15.349 -0.9272  0.5451 -0.9172
16802TIP3   OH271896   4.290   1.783   2.045 -0.5381  0.1763 -0.7310
16802TIP3    H171897   4.241   1.855   2.007  2.4328  1.3867 -2.6592
16802TIP3    H271898   4.351   1.824   2.107 -0.0988 -0.9050 -0.4059
16803TIP3   OH271899   6.277   3.609  14.678  0.3795  0.2237 -0.0062
16803TIP3    H171900   6.238   3.522  14.665  3.7020 -1.3689 -0.5785
16803TIP3    H271901   6.310   3.633  14.591 -0.3081  2.0189  0.1932
16804TIP3   OH271902   6.337   1.162   5.347 -0.2017  0.1320 -0.2370
16804TIP3    H171903   6.340   1.235   5.286  1.5521  0.5944  0.3385
16804TIP3    H271904   6.402   1.100   5.314 -0.5822 -0.4710  0.1257
16805TIP3   OH271905   2.630   0.421   0.586 -0.0551 -0.2252 -0.2489
16805TIP3    H171906   2.632   0.330   0.556  2.5871  0.0375 -1.0607
16805TIP3    H271907   2.670   0.420   0.672 -0.7935  0.0872  0.1143
16806TIP3   OH271908   6.508   1.812  11.219 -0.2993  0.0720 -0.3895
16806TIP3    H171909   6.579   1.839  11.161  0.7901 -2.2595 -0.2352
16806TIP3    H271910   6.454   1.754  11.165 -0.2574 -0.7247  0.4115
16807TIP3   OH271911   5.986   6.202   5.987 -1.0777  0.4450  0.6762
16807TIP3    H171912   5.930   6.242   6.054 -0.3078 -1.2598  2.4339
16807TIP3    H271913   5.928   6.140   5.942 -1.0069 -0.2712  1.5324
16808TIP3   OH271914   2.736   2.275   3.903  0.1325  0.3690  0.3626
16808TIP3    H171915   2.761   2.281   3.810  0.6412  1.7004  0.5517
16808TIP3    H271916   2.700   2.187   3.913  0.2595  0.1286 -1.0534
16809TIP3   OH271917   5.017   4.652  17.492 -0.0206 -0.1061  0.3039
16809TIP3    H171918   5.065   4.646  17.575 -1.2322 -1.1670  0.9602
16809TIP3    H271919   4.979   4.565  17.480 -1.3549  0.5524 -0.4412
16810TIP3   OH271920   3.726   5.241  11.859 -0.3985  0.0046 -0.0579
16810TIP3    H171921   3.745   5.313  11.799  1.8554 -1.0301 -0.7139
16810TIP3    H271922   3.656   5.191  11.815  1.1211 -0.6618 -1.8531
16811TIP3   OH271923   2.381   4.502   3.974 -0.0831 -0.2749 -0.1647
16811TIP3    H171924   2.410   4.591   3.957  0.7951 -0.4980  0.1120
16811TIP3    H271925   2.363   4.465   3.887 -0.2909  0.1120 -0.2875
16812TIP3   OH271926   5.682   3.100   2.084  0.5708 -0.1514  0.2569
16812TIP3    H171927   5.691   3.006   2.101  0.7031 -0.1820  0.0303
16812TIP3    H271928   5.658   3.138   2.168 -1.4845 -0.6533 -0.0590
16813TIP3   OH271929   3.942   5.410   1.220  0.3850 -0.1657 -0.1638
16813TIP3    H171930   3.875   5.478   1.220 -1.7232 -2.1119 -0.7916
16813TIP3    H271931   3.982   5.416   1.307 -1.6506  0.1492  0.8146
16814TIP3   OH271932   2.313   1.453  16.561 -0.3651 -0.2297 -0.0058
16814TIP3    H171933   2.266   1.472  16.642 -2.2223  0.0474 -1.0869
16814TIP3    H271934   2.246   1.421  16.501  0.5922  1.2009 -1.9781
16815TIP3   OH271935   1.162   5.158  15.975  0.6609 -0.5348  0.5982
16815TIP3    H171936   1.230   5.094  15.953  0.0045 -0.8963 -0.4525
16815TIP3    H271937   1.191   5.239  15.933 -0.7723 -1.3087 -2.1569
16816TIP3   OH271938   2.538   1.993   4.939 -0.0382 -0.4687 -0.0720
16816TIP3    H171939   2.508   1.909   4.975  0.7784 -0.4003  0.8106
16816TIP3    H271940   2.626   1.975   4.906  0.3161  0.1351  0.5189
16817TIP3   OH271941   3.957   4.972  14.794  0.2764  0.0695  0.2719
16817TIP3    H171942   3.984   4.929  14.713 -0.4192 -1.4468  0.8042
16817TIP3    H271943   3.872   4.932  14.815 -1.0028  2.5530  0.2161
16818TIP3   OH271944   5.404   1.723   4.318  0.9665  0.2456 -0.2488
16818TIP3    H171945   5.359   1.649   4.277 -0.3953  0.2499  1.1259
16818TIP3    H271946   5.464   1.683   4.381 -0.6133  0.2427  1.3494
16819TIP3   OH271947   3.593   1.348  17.200 -0.5533  0.5521 -0.1938
16819TIP3    H171948   3.599   1.436  17.239 -1.9879 -0.2882  2.1434
16819TIP3    H271949   3.672   1.303  17.230 -0.1449  0.8174 -0.8457
16820TIP3   OH271950   5.083   1.980   6.057 -0.1216 -0.5007 -0.0030
16820TIP3    H171951   4.994   1.985   6.022 -0.3335 -0.1833  0.5641
16820TIP3    H271952   5.071   1.982   6.152  0.4574 -1.0755  0.0852
16821TIP3   OH271953   5.753   5.013   0.215  0.3227 -0.3243 -0.1919
16821TIP3    H171954   5.783   4.967   0.137  1.5116 -1.3765  0.8450
16821TIP3    H271955   5.801   4.972   0.287 -0.7006  0.6565  1.0909
16822TIP3   OH271956   0.674   3.774   5.275 -0.0826 -0.1071  0.2654
16822TIP3    H171957   0.589   3.774   5.319 -0.1963 -1.8500  0.1192
16822TIP3    H271958   0.667   3.704   5.210  0.8381  0.9591 -1.0357
16823TIP3   OH271959   4.549   3.557  16.073 -0.0115 -0.6733 -0.1249
16823TIP3    H171960   4.628   3.595  16.111  0.2204 -0.2999 -0.9547
16823TIP3    H271961   4.480   3.621  16.089 -0.7547 -2.0014  2.7146
16824TIP3   OH271962   4.968   2.219  16.291  0.7490 -0.0398 -0.3027
16824TIP3    H171963   4.995   2.311  16.293 -0.5680  0.3455  1.0577
16824TIP3    H271964   5.029   2.174  16.350  0.3929  0.2687  0.3117
16825TIP3   OH271965   0.004   5.026  14.157 -0.1754  0.2133  0.6235
16825TIP3    H171966  -0.005   5.002  14.250 -0.6481 -1.4519  0.1675
16825TIP3    H271967  -0.086   5.031  14.125 -0.0012  0.6217  0.1883
16826TIP3   OH271968   5.747   2.585  12.415  0.2328 -0.2134 -0.2280
16826TIP3    H171969   5.721   2.661  12.467 -1.2852  0.5345 -1.9342
16826TIP3    H271970   5.840   2.598  12.397  0.4190  0.2703  0.9939
16827TIP3   OH271971   4.714   6.376  13.207  0.3098  0.6370 -0.3651
16827TIP3    H171972   4.797   6.352  13.248 -0.4434 -1.0109  0.2841
16827TIP3    H271973   4.725   6.353  13.115  0.5222  0.2401 -0.2430
16828TIP3   OH271974   2.392   1.908   6.318  0.2482 -0.0022 -0.4531
16828TIP3    H171975   2.385   1.816   6.289  0.0142 -1.1621  2.8727
16828TIP3    H271976   2.309   1.925   6.363 -0.0037  2.1729 -1.5817
16829TIP3   OH271977   2.707   2.344   1.277 -0.4802 -0.5211  0.0072
16829TIP3    H171978   2.667   2.430   1.267  0.8572  0.0700 -0.4977
16829TIP3    H271979   2.730   2.340   1.370 -0.1786 -0.1581 -0.0481
16830TIP3   OH271980   6.184   6.417   6.127  0.6790 -0.7341 -0.1542
16830TIP3    H171981   6.224   6.331   6.117 -0.9766 -1.5390 -0.1762
16830TIP3    H271982   6.090   6.402   6.114  0.4268  1.2036 -0.9093
16831TIP3   OH271983   6.462   1.448   0.351 -0.0620  0.4391 -0.4324
16831TIP3    H171984   6.489   1.538   0.336  0.3059  0.3227 -0.4832
16831TIP3    H271985   6.438   1.415   0.264  0.3561  0.3126 -0.5012
16832TIP3   OH271986   1.018   3.836   1.486  0.2175 -0.0435 -0.3083
16832TIP3    H171987   0.947   3.896   1.509  0.4021 -0.0687  0.3239
16832TIP3    H271988   0.983   3.749   1.504  0.7873 -0.0074  1.0698
16833TIP3   OH271989   3.350   2.761   1.479  0.0747 -0.4667 -0.2051
16833TIP3    H171990   3.305   2.734   1.399  0.4077 -0.3877 -0.4226
16833TIP3    H271991   3.420   2.696   1.489 -1.8554 -2.4302  1.7748
16834TIP3   OH271992   5.181   6.192   2.210  0.5717  0.1464  0.9401
16834TIP3    H171993   5.248   6.259   2.226  0.1604  0.6541  0.5781
16834TIP3    H271994   5.107   6.241   2.174  0.6844 -0.6542 -0.4549
16835TIP3   OH271995   5.362   4.814  10.495 -0.3900 -0.4763  0.0650
16835TIP3    H171996   5.296   4.801  10.563 -1.2684 -0.6690 -0.8118
16835TIP3    H271997   5.374   4.728  10.456 -1.9669  0.1227 -1.8798
16836TIP3   OH271998   5.810   1.703  13.815 -0.0923 -0.5223  0.0968
16836TIP3    H171999   5.839   1.614  13.835  0.7000  0.0548  1.6705
16836TIP3    H272000   5.757   1.728  13.891  0.6416  0.7491  0.2012
16837TIP3   OH272001   1.719   4.587   1.046  0.0009 -0.5106 -0.2901
16837TIP3    H172002   1.728   4.662   1.105  1.9288 -0.7955 -0.1620
16837TIP3    H272003   1.630   4.554   1.062 -0.0592  0.3338  1.3422
16838TIP3   OH272004   1.915   5.672   5.464 -0.4401 -0.0944 -0.0414
16838TIP3    H172005   1.873   5.628   5.537  1.4912  0.2236  1.3402
16838TIP3    H272006   1.865   5.753   5.452 -0.2058  0.3096  1.5897
16839TIP3   OH272007   0.859   1.978   3.038  0.0892  0.6044 -0.2483
16839TIP3    H172008   0.861   1.998   3.131  0.0458  3.5173 -0.7869
16839TIP3    H272009   0.767   1.956   3.020  0.2213 -0.6274  0.4621
16840TIP3   OH272010   2.739   6.700   3.525 -0.4632  0.1871  0.0658
16840TIP3    H172011   2.794   6.669   3.598 -1.5888 -1.7526  0.1672
16840TIP3    H272012   2.752   6.634   3.456 -3.3547 -0.9656  0.4648
16841TIP3   OH272013   3.304   2.038  12.531  0.5618  0.5459  0.0603
16841TIP3    H172014   3.247   1.961  12.540 -0.1110  1.0440  0.1323
16841TIP3    H272015   3.344   2.028  12.445  1.3366 -0.4515  0.5169
16842TIP3   OH272016   0.057   2.616   0.976 -0.6031  0.0044  0.1748
16842TIP3    H172017   0.090   2.572   0.897 -1.3370  0.2561 -0.2752
16842TIP3    H272018   0.026   2.701   0.945 -0.3294  0.3549  0.8419
16843TIP3   OH272019   0.926   6.067   0.182 -0.4433  0.0065  0.0266
16843TIP3    H172020   0.871   6.084   0.258 -1.4913  1.9951 -1.0958
16843TIP3    H272021   1.015   6.092   0.210 -0.7000  0.0243  0.8229
16844TIP3   OH272022   2.140   3.998  11.748 -0.6123 -0.2769  0.4046
16844TIP3    H172023   2.066   3.973  11.693  0.4436  0.1112 -1.2590
16844TIP3    H272024   2.160   3.919  11.799 -0.7357 -1.1117 -0.8051
16845TIP3   OH272025   6.365   2.147  15.174 -0.3302  1.0046 -0.0831
16845TIP3    H172026   6.291   2.120  15.228  2.1451 -1.9099  2.2538
16845TIP3    H272027   6.413   2.209  15.229  1.7854 -1.3887  1.0071
16846TIP3   OH272028   4.793   5.161  12.523 -0.0296 -0.2361  0.2996
16846TIP3    H172029   4.700   5.157  12.545  0.5448 -0.4139  2.9963
16846TIP3    H272030   4.826   5.236  12.573  1.3048 -0.2343 -0.5500
16847TIP3   OH272031   6.041   4.065  12.128  0.2683 -0.1469 -0.0307
16847TIP3    H172032   6.125   4.112  12.127 -0.0880  0.5066  0.2582
16847TIP3    H272033   5.990   4.106  12.059  0.6741 -1.4961 -1.1871
16848TIP3   OH272034   4.953   2.899  11.487  0.3723  0.6964 -0.2143
16848TIP3    H172035   4.876   2.935  11.531 -0.2133 -1.9598  1.1663
16848TIP3    H272036   4.927   2.894  11.395 -0.5345  1.2355 -0.0046
16849TIP3   OH272037   3.466   2.423  12.700 -0.1622 -0.1066 -0.0282
16849TIP3    H172038   3.524   2.497  12.682  0.5638 -0.7958 -0.6304
16849TIP3    H272039   3.462   2.376  12.617  0.2444 -1.3137  0.6132
16850TIP3   OH272040   5.669   0.771   1.295  0.1371  0.0476  0.1149
16850TIP3    H172041   5.687   0.853   1.247  0.7854  0.1108  0.4502
16850TIP3    H272042   5.728   0.707   1.255  1.4528  0.3450  1.4865
16851TIP3   OH272043   1.547   5.332  17.515  0.0959  0.4562  0.1568
16851TIP3    H172044   1.479   5.399  17.513  0.2112  0.5617 -1.1629
16851TIP3    H272045   1.500   5.251  17.537 -0.1408  0.8416  1.1296
16852TIP3   OH272046   4.909   4.561   6.098 -0.1273 -0.6443  0.7817
16852TIP3    H172047   4.984   4.520   6.057 -0.4975 -0.2120 -0.3734
16852TIP3    H272048   4.944   4.605   6.176  1.2761  1.5537 -0.9902
16853TIP3   OH272049   1.776   3.933   2.330 -0.1085  0.1095  0.6009
16853TIP3    H172050   1.705   3.945   2.393 -0.1368  1.1574  0.3869
16853TIP3    H272051   1.856   3.951   2.379 -0.0927  0.4015  0.4670
16854TIP3   OH272052   0.296   3.499   1.690 -0.1837  0.4039  0.2127
16854TIP3    H172053   0.284   3.503   1.785 -1.4555 -0.9086  0.1401
16854TIP3    H272054   0.305   3.405   1.671  1.2655  0.7107 -0.8492
16855TIP3   OH272055   2.113   3.158   0.873 -0.0604  0.2062  0.2544
16855TIP3    H172056   2.093   3.252   0.876  1.2325  0.5413 -0.6174
16855TIP3    H272057   2.166   3.142   0.951 -0.4423  0.1481  0.5058
16856TIP3   OH272058   6.254   1.263   2.299 -0.3811 -0.0410 -0.0830
16856TIP3    H172059   6.323   1.329   2.300 -0.4441  0.4036 -4.4116
16856TIP3    H272060   6.175   1.310   2.325  0.1341  0.7423  0.0895
16857TIP3   OH272061   2.629   4.786   1.103  0.1520  0.1417  0.0370
16857TIP3    H172062   2.559   4.846   1.131 -1.6062 -0.8375 -1.9216
16857TIP3    H272063   2.685   4.839   1.046 -0.5908  0.3039 -0.5614
16858TIP3   OH272064   3.071   0.854  11.409  0.5120  0.4110  0.0398
16858TIP3    H172065   2.994   0.886  11.361  1.0943  1.4973 -0.2005
16858TIP3    H272066   3.102   0.780  11.356 -0.9164 -0.6918  0.6621
16859TIP3   OH272067   3.933   0.902  13.002 -0.2389  0.4126 -0.1837
16859TIP3    H172068   3.848   0.888  12.962 -0.7612 -0.8686  1.2739
16859TIP3    H272069   3.993   0.847  12.952 -0.3189  1.0743 -1.0129
16860TIP3   OH272070   5.558   6.252   3.520  0.0420  0.4341  0.3080
16860TIP3    H172071   5.543   6.204   3.601 -1.4352 -1.1754 -0.8593
16860TIP3    H272072   5.643   6.220   3.489  0.2390  0.4620  0.8106
16861TIP3   OH272073   0.698   5.722  15.687  0.2168 -0.4476  0.3796
16861TIP3    H172074   0.757   5.673  15.629 -1.3223 -0.6157 -1.1428
16861TIP3    H272075   0.698   5.672  15.769  0.5142 -1.6689 -0.3357
16862TIP3   OH272076   6.120   5.072  17.300 -0.4557  0.3539  0.4422
16862TIP3    H172077   6.133   5.072  17.395  0.8607  0.8189  0.2861
16862TIP3    H272078   6.146   4.984  17.273  0.5905  0.6824  0.3532
16863TIP3   OH272079   5.593   2.772   5.169 -0.9418 -0.2346 -0.4675
16863TIP3    H172080   5.589   2.867   5.157 -2.9435 -0.2720 -0.5648
16863TIP3    H272081   5.563   2.758   5.259 -0.8288 -0.7815 -0.5113
16864TIP3   OH272082   5.102   2.785   4.615  0.3577  0.5777 -0.8121
16864TIP3    H172083   5.120   2.708   4.561  0.1224  0.8672 -1.3069
16864TIP3    H272084   5.010   2.776   4.639  0.2700  0.8170 -1.0561
16865TIP3   OH272085   5.013   1.427  13.176  0.0648  0.0623  0.2946
16865TIP3    H172086   5.098   1.470  13.178 -0.5782  1.4267 -0.1991
16865TIP3    H272087   4.968   1.460  13.254 -0.8745  1.2936 -0.7193
16866TIP3   OH272088   4.483   0.542  15.753  0.1412  0.0810 -0.3634
16866TIP3    H172089   4.444   0.512  15.671 -1.5600  0.9144  0.0844
16866TIP3    H272090   4.542   0.612  15.727  0.0354 -0.0322 -0.9230
16867TIP3   OH272091   5.668   1.180   6.269 -0.3759  0.5436  0.0805
16867TIP3    H172092   5.633   1.214   6.352 -1.7638 -0.6200  0.0019
16867TIP3    H272093   5.607   1.212   6.202 -1.3058 -1.4138 -0.0699
16868TIP3   OH272094   3.817   0.278  11.899 -0.0960  0.1069  0.3335
16868TIP3    H172095   3.748   0.250  11.959  0.9543  0.9467  2.0333
16868TIP3    H272096   3.897   0.277  11.953  1.3888 -1.5182 -1.7340
16869TIP3   OH272097   6.618   1.670   3.776  0.0146  0.6179  0.3406
16869TIP3    H172098   6.546   1.718   3.818  0.2027  1.2091  0.0049
16869TIP3    H272099   6.575   1.616   3.710 -0.1458  0.7969  0.2964
16870TIP3   OH272100   2.114   6.350  14.575 -0.0339  0.2547  0.4853
16870TIP3    H172101   2.107   6.355  14.480 -0.3871  1.0139  0.5508
16870TIP3    H272102   2.024   6.346  14.605  0.0810 -1.1821  0.7423
16871TIP3   OH272103   3.473   6.538  12.989  0.6409 -0.2721 -0.4470
16871TIP3    H172104   3.464   6.444  12.979  0.6590 -0.3513  0.2686
16871TIP3    H272105   3.549   6.550  13.046  0.0246  0.1371  0.3064
16872TIP3   OH272106   2.228   0.322  15.486  0.5610  0.1259  0.0498
16872TIP3    H172107   2.239   0.361  15.572 -1.1177 -1.1748  0.9264
16872TIP3    H272108   2.270   0.383  15.425  0.8729  1.5777  1.6656
16873TIP3   OH272109   0.275   1.494  16.774 -0.3899 -0.6801  0.3225
16873TIP3    H172110   0.241   1.452  16.695  0.6473  0.0725 -0.5601
16873TIP3    H272111   0.277   1.587  16.752  0.1961 -0.4964  1.1227
16874TIP3   OH272112   1.660   5.814   2.406  0.3596  0.5336  0.3514
16874TIP3    H172113   1.664   5.904   2.439  1.9536  0.2172  1.0966
16874TIP3    H272114   1.752   5.787   2.400  0.1471  0.1430 -3.2338
16875TIP3   OH272115   1.930   1.385   1.847  0.6318 -0.6079 -0.1632
16875TIP3    H172116   1.979   1.356   1.924  1.9465  1.1629 -0.2553
16875TIP3    H272117   1.839   1.385   1.874  1.0819  0.1629  1.5016
16876TIP3   OH272118   3.408   4.431   1.297 -0.1313 -0.3347  0.3864
16876TIP3    H172119   3.374   4.517   1.271  1.1487 -0.4279 -1.9144
16876TIP3    H272120   3.492   4.450   1.338  0.5171 -0.4804 -0.8238
16877TIP3   OH272121   3.112   2.787  14.240 -0.3497 -0.0793  0.0222
16877TIP3    H172122   3.171   2.779  14.165 -0.1061  0.8533  0.1106
16877TIP3    H272123   3.054   2.860  14.218 -1.1357 -0.6370  0.1781
16878TIP3   OH272124   5.035   0.990   1.698  0.5382 -0.4530  0.2391
16878TIP3    H172125   5.124   1.016   1.719  0.5599 -0.4212  0.1101
16878TIP3    H272126   4.989   1.073   1.686  0.6231 -0.4740 -0.2400
16879TIP3   OH272127   6.135   4.298  13.377 -0.3596  1.2650 -0.3856
16879TIP3    H172128   6.091   4.341  13.451  1.3807  0.1995  1.3708
16879TIP3    H272129   6.071   4.235  13.344 -0.4701  0.1944  1.6874
16880TIP3   OH272130   4.541   4.342   2.100 -0.0717 -0.5743  0.1566
16880TIP3    H172131   4.630   4.378   2.098  0.3665 -1.6128  0.5870
16880TIP3    H272132   4.494   4.399   2.160  0.7342 -0.9612  1.1806
16881TIP3   OH272133   3.404   0.098   2.965  0.1611  0.9074 -0.4004
16881TIP3    H172134   3.363   0.042   2.900 -1.1669 -0.1351  1.2730
16881TIP3    H272135   3.338   0.164   2.986  0.5501  1.1968 -0.0514
16882TIP3   OH272136   5.883   5.468  17.065 -0.4447 -0.4175 -0.4369
16882TIP3    H172137   5.951   5.526  17.033 -1.0762 -0.9194 -2.9238
16882TIP3    H272138   5.917   5.433  17.148 -0.0876  3.4551  1.2419
16883TIP3   OH272139   5.503   3.593  12.496  0.5218 -0.3213 -0.4303
16883TIP3    H172140   5.449   3.658  12.451 -0.7025 -1.2024 -0.2947
16883TIP3    H272141   5.441   3.524  12.521  1.2615 -0.2021  1.9801
16884TIP3   OH272142   1.480   0.596  15.493 -0.1686  0.7460  0.2315
16884TIP3    H172143   1.537   0.521  15.507  0.7495  0.9270 -2.1089
16884TIP3    H272144   1.419   0.568  15.425  0.3675  2.1447 -0.8905
16885TIP3   OH272145   3.950   3.724  15.927  0.2601 -0.5063 -0.4937
16885TIP3    H172146   3.923   3.642  15.967  0.0883  0.7939  2.2646
16885TIP3    H272147   3.923   3.792  15.989  1.6158  1.5661 -1.9990
16886TIP3   OH272148   1.157   3.499  17.012  0.3134 -0.1523  0.8014
16886TIP3    H172149   1.205   3.483  17.094  0.4926 -3.4607  0.1855
16886TIP3    H272150   1.080   3.444  17.018  0.0478 -0.0381 -1.0413
16887TIP3   OH272151   5.541   2.708   0.177 -0.2966 -0.0955  0.4837
16887TIP3    H172152   5.591   2.694   0.258  1.3285 -0.1292 -0.4884
16887TIP3    H272153   5.554   2.801   0.157  2.2424 -0.7768 -1.5412
16888TIP3   OH272154   4.614   1.628  16.415 -0.2817 -0.8119 -0.0544
16888TIP3    H172155   4.561   1.587  16.484 -0.2096 -1.2113 -0.2337
16888TIP3    H272156   4.663   1.556  16.376 -0.5770 -0.6468 -0.7550
16889TIP3   OH272157   2.041   2.377  11.694  0.7164  0.2140  0.3257
16889TIP3    H172158   1.985   2.444  11.652  1.7718  0.9840  0.1093
16889TIP3    H272159   2.112   2.427  11.733  0.5513 -0.6367  1.7724
16890TIP3   OH272160   1.143   6.243   5.375 -0.1889 -0.0621  0.2295
16890TIP3    H172161   1.114   6.322   5.329 -0.5064 -1.4958 -2.2028
16890TIP3    H272162   1.079   6.231   5.445 -1.7762  0.3263 -1.1055
16891TIP3   OH272163   1.991   6.696  13.744 -0.3782  0.1643 -0.2977
16891TIP3    H172164   1.981   6.646  13.825  0.1225 -0.3965 -0.5760
16891TIP3    H272165   2.085   6.712  13.737 -0.1200 -1.7084 -1.8840
16892TIP3   OH272166   4.243   5.195  15.141  0.4297  0.4209  0.3478
16892TIP3    H172167   4.188   5.159  15.071  2.9640 -2.5575 -0.3619
16892TIP3    H272168   4.203   5.279  15.163 -2.1533  0.1561 -2.6588
16893TIP3   OH272169   5.541   3.592  14.776  0.5851  0.0723  0.4557
16893TIP3    H172170   5.634   3.592  14.800  0.9923 -0.0663 -1.0176
16893TIP3    H272171   5.495   3.608  14.858  1.8632 -0.8641  1.4043
16894TIP3   OH272172   0.727   2.714  16.387 -0.1065 -0.7438 -0.3475
16894TIP3    H172173   0.718   2.687  16.479  0.1322  0.3670  0.0181
16894TIP3    H272174   0.708   2.635  16.337  0.2517 -1.4957  0.6709
16895TIP3   OH272175   3.281   6.545   0.198  0.2870  0.2092 -0.1212
16895TIP3    H172176   3.346   6.540   0.268 -0.7664  1.7240  1.0580
16895TIP3    H272177   3.326   6.512   0.120  1.5663 -1.3549  1.2042
16896TIP3   OH272178   5.542   0.102   1.520  0.1350 -0.1882 -0.5596
16896TIP3    H172179   5.483   0.122   1.447  1.8735  0.9073 -1.7599
16896TIP3    H272180   5.538   0.180   1.575 -1.1163 -0.9842  0.5188
16897TIP3   OH272181   1.127   4.716   5.539 -0.9198  0.1561  0.2970
16897TIP3    H172182   1.155   4.709   5.631  0.9785  1.9063 -0.0994
16897TIP3    H272183   1.158   4.635   5.499  0.6896  0.5638  0.6351
16898TIP3   OH272184   6.649   1.757  15.082 -0.0955  0.8282  0.8379
16898TIP3    H172185   6.716   1.740  15.016  0.6214  0.2700  1.6926
16898TIP3    H272186   6.596   1.827  15.044 -1.2051 -1.0476 -1.4206
16899TIP3   OH272187   5.705   4.061  13.130 -0.0497  0.3851  0.2128
16899TIP3    H172188   5.673   3.984  13.083  1.4061  0.7765 -1.5256
16899TIP3    H272189   5.656   4.061  13.212 -1.3730 -1.3725 -0.5134
16900TIP3   OH272190   5.569   3.171  13.801 -0.6636  0.1785  0.5773
16900TIP3    H172191   5.655   3.162  13.842 -1.5443  1.6789  2.9197
16900TIP3    H272192   5.534   3.253  13.835 -2.5967  0.1626 -1.1839
16901TIP3   OH272193   0.859   2.925  11.620  0.3486  0.4690  0.2667
16901TIP3    H172194   0.954   2.916  11.624  0.1308 -1.9488  2.1388
16901TIP3    H272195   0.834   2.878  11.540  0.6723  0.7300  0.0082
16902TIP3   OH272196   4.825   0.021   4.865 -0.1301  0.3406 -0.1692
16902TIP3    H172197   4.784  -0.056   4.905 -0.1376 -0.1133 -1.0056
16902TIP3    H272198   4.881  -0.016   4.796 -2.2562  1.1778 -2.4877
16903TIP3   OH272199   3.745   4.160   2.215 -0.1738  0.1628 -0.0792
16903TIP3    H172200   3.815   4.210   2.172  0.6762 -0.6036  0.3736
16903TIP3    H272201   3.754   4.180   2.308  1.0538 -1.7956  0.2947
16904TIP3   OH272202   0.814   3.144  17.529 -0.1138  0.0926  0.3422
16904TIP3    H172203   0.801   3.114  17.439  0.9062  1.1113 -0.1668
16904TIP3    H272204   0.732   3.124  17.573 -0.9652  0.4044 -1.0430
16905TIP3   OH272205   3.678   4.563   1.687  0.4298  0.2312 -0.3236
16905TIP3    H172206   3.686   4.641   1.743 -1.0582 -0.2992  0.6762
16905TIP3    H272207   3.732   4.498   1.730 -1.1865 -0.3608  0.8984
16906TIP3   OH272208   6.376   1.002   0.778  0.0518  0.0689  0.4753
16906TIP3    H172209   6.296   0.949   0.776  0.0326  0.1152 -0.2568
16906TIP3    H272210   6.419   0.985   0.694  1.4224 -0.8662  1.3258
16907TIP3   OH272211   0.444   1.243   3.937  0.3118  0.1086 -0.0872
16907TIP3    H172212   0.436   1.338   3.935  1.4233  0.2183  0.1621
16907TIP3    H272213   0.399   1.214   3.858  0.5309  0.8829 -0.5092
16908TIP3   OH272214   0.622   1.281  13.349 -0.2772  0.4076  0.0547
16908TIP3    H172215   0.655   1.329  13.425  0.7075 -1.2658  0.7552
16908TIP3    H272216   0.668   1.197  13.352 -0.7360  0.0245 -2.0147
16909TIP3   OH272217   5.785   1.317  12.615 -0.2556 -0.3396 -0.3412
16909TIP3    H172218   5.826   1.241  12.656 -0.1482 -0.4595 -0.6655
16909TIP3    H272219   5.854   1.384  12.613 -0.0363 -0.5763 -0.9813
16910TIP3   OH272220   4.070   3.195  14.196 -0.7193  0.2493  0.2091
16910TIP3    H172221   4.054   3.204  14.102  0.6541 -0.8677 -0.1768
16910TIP3    H272222   4.050   3.281  14.233  0.6179  1.3283 -1.4196
16911TIP3   OH272223   6.539   6.460   6.840  0.1686  0.6452 -0.1202
16911TIP3    H172224   6.589   6.471   6.760 -1.7490  2.5591 -1.1862
16911TIP3    H272225   6.568   6.532   6.896  0.4192  0.2298  0.2843
16912TIP3   OH272226   5.067   6.553   4.022 -0.1565  0.0037  0.3781
16912TIP3    H172227   5.075   6.615   3.949 -2.0368 -0.0285  0.1086
16912TIP3    H272228   5.057   6.609   4.099  0.8440  0.0246  0.5122
16913TIP3   OH272229   6.723   6.654   0.655  0.1799 -0.2537 -0.1946
16913TIP3    H172230   6.763   6.703   0.584  0.3882  0.5384  0.4549
16913TIP3    H272231   6.796   6.633   0.714 -0.1078 -0.2014  0.1870
16914TIP3   OH272232   2.700   2.723  11.265 -0.4075  0.4998  0.4550
16914TIP3    H172233   2.697   2.645  11.209 -0.7373 -0.4493  1.7272
16914TIP3    H272234   2.772   2.707  11.326  0.9363  2.2080 -0.6226
16915TIP3   OH272235   0.940   0.010  11.084 -0.2750 -0.2396  0.0312
16915TIP3    H172236   0.863  -0.032  11.047  0.7837 -2.3015 -0.0184
16915TIP3    H272237   0.937  -0.011  11.178 -0.4518  0.8315  0.2807
16916TIP3   OH272238   5.412   2.776  16.654  0.7159 -0.2710 -0.0233
16916TIP3    H172239   5.367   2.817  16.580 -1.0823 -0.1833  1.0582
16916TIP3    H272240   5.446   2.850  16.705  0.7740 -0.2791 -0.0515
16917TIP3   OH272241   2.210   4.769  15.101  0.0219 -0.0414  0.0291
16917TIP3    H172242   2.243   4.794  15.015 -0.6703  1.3561  0.1424
16917TIP3    H272243   2.191   4.676  15.094  1.3960 -0.2742 -0.8571
16918TIP3   OH272244   4.720   2.379  11.387 -0.0527 -0.0452 -0.5190
16918TIP3    H172245   4.801   2.358  11.433  0.2457  0.6458 -0.7059
16918TIP3    H272246   4.721   2.474  11.380 -0.0096 -0.1321 -2.0613
16919TIP3   OH272247   4.598   2.099  11.495 -0.2852  0.1163  0.2683
16919TIP3    H172248   4.686   2.084  11.530  0.4606  0.5780 -1.3093
16919TIP3    H272249   4.541   2.049  11.552  1.1762 -1.5383  0.3621
16920TIP3   OH272250   6.429   3.224   0.410 -0.1720  0.1582  0.1436
16920TIP3    H172251   6.468   3.163   0.347 -0.2989  0.0811  0.1395
16920TIP3    H272252   6.502   3.281   0.436 -0.8312  2.6239 -2.8553
16921TIP3   OH272253   4.794   2.358  15.886  0.0995  0.3473  0.2269
16921TIP3    H172254   4.794   2.285  15.949 -2.3359  0.0376 -0.0292
16921TIP3    H272255   4.744   2.427  15.930  1.5376  1.5260  0.0623
16922TIP3   OH272256   3.283   2.628  11.497  0.4456  0.0419  0.2105
16922TIP3    H172257   3.292   2.669  11.411 -1.4425  1.7223  0.7625
16922TIP3    H272258   3.356   2.663  11.548  0.9820 -0.1863 -0.3767
16923TIP3   OH272259   1.607   4.774  16.591  0.5384 -0.3829  0.3417
16923TIP3    H172260   1.584   4.856  16.547  1.6113 -0.5231 -0.5198
16923TIP3    H272261   1.557   4.707  16.544 -0.2755 -0.2646  0.9957
16924TIP3   OH272262   5.806   1.348   2.595 -0.3166  0.1871  0.2627
16924TIP3    H172263   5.836   1.264   2.561 -0.5570 -0.3179  1.2534
16924TIP3    H272264   5.710   1.343   2.591 -0.3347  0.3339  0.4785
16925TIP3   OH272265   2.880   2.194  17.556  0.2626  0.6668 -0.0455
16925TIP3    H172266   2.973   2.172  17.554 -0.0144 -0.5065 -0.8734
16925TIP3    H272267   2.853   2.194  17.465 -1.0971 -1.5715  0.2899
16926TIP3   OH272268   2.573   2.796   1.327  0.4408  0.0870 -0.3207
16926TIP3    H172269   2.613   2.716   1.360 -0.8235 -0.3825  0.1337
16926TIP3    H272270   2.556   2.777   1.234  0.8588  0.1259 -0.4063
16927TIP3   OH272271   0.572   3.874  12.752 -0.0541 -0.3735 -0.7808
16927TIP3    H172272   0.504   3.913  12.697 -2.0041 -0.0328  1.6835
16927TIP3    H272273   0.525   3.816  12.811  1.5240  0.9924  2.0272
16928TIP3   OH272274   6.052   5.399   3.770  0.7421  0.1989  0.2945
16928TIP3    H172275   6.023   5.483   3.807 -2.1232 -0.5168 -0.0683
16928TIP3    H272276   6.046   5.411   3.675 -1.5010 -0.8513  0.2180
16929TIP3   OH272277   4.522   2.641  11.587 -0.1582 -0.9232 -0.3196
16929TIP3    H172278   4.458   2.615  11.654  0.7171 -1.6139  0.2772
16929TIP3    H272279   4.532   2.736  11.599  1.4890 -1.2832  1.9643
16930TIP3   OH272280   3.845   5.386  12.310  0.3546  0.4493  0.3892
16930TIP3    H172281   3.815   5.302  12.345  2.0710 -1.6288 -2.6642
16930TIP3    H272282   3.937   5.391  12.336  0.3594  1.2072  0.2363
16931TIP3   OH272283   6.695   1.588  16.036 -0.3797  0.3752  0.2347
16931TIP3    H172284   6.718   1.512  15.982  3.2429 -0.4583  2.5896
16931TIP3    H272285   6.716   1.561  16.125 -2.3506  3.0201  1.6453
16932TIP3   OH272286   0.792   2.283   5.400 -0.0625 -0.0210  0.0321
16932TIP3    H172287   0.835   2.352   5.349  0.5054  0.3058  0.9266
16932TIP3    H272288   0.704   2.316   5.414 -0.3894 -0.3426 -1.1522
16933TIP3   OH272289   5.041   5.445   0.215  0.2194  0.7438  0.3305
16933TIP3    H172290   4.999   5.415   0.295 -0.9834  1.9525  0.1985
16933TIP3    H272291   4.972   5.439   0.149  0.7632  1.1582 -0.2871
16934TIP3   OH272292   6.552   0.729  16.562  0.0387 -0.3300  0.1370
16934TIP3    H172293   6.545   0.655  16.623  0.0199  0.6167  1.3146
16934TIP3    H272294   6.581   0.802  16.617  0.2318  0.4953 -1.0445
16935TIP3   OH272295   4.100   0.644   6.089  1.0670  0.6043 -0.0464
16935TIP3    H172296   4.085   0.640   5.995  1.1595 -1.6193 -0.0291
16935TIP3    H272297   4.180   0.695   6.099  1.8532 -0.3279 -1.3088
16936TIP3   OH272298   6.230   5.528  15.505 -1.1877 -0.1627 -0.0739
16936TIP3    H172299   6.325   5.533  15.516 -1.2716  1.4931  0.1270
16936TIP3    H272300   6.214   5.438  15.475  0.5773 -0.0436 -1.5616
16937TIP3   OH272301   3.903   6.676  12.051 -0.0731  0.0183  0.1505
16937TIP3    H172302   3.964   6.707  11.984 -0.3990 -0.0929 -0.1997
16937TIP3    H272303   3.875   6.756  12.096 -0.6443  0.1972 -0.5230
16938TIP3   OH272304   0.624   5.404   4.057  0.1064 -0.2790  0.6759
16938TIP3    H172305   0.556   5.472   4.060  0.9482  0.5982  0.4571
16938TIP3    H272306   0.702   5.448   4.090  1.2246 -0.4600 -1.5708
16939TIP3   OH272307   5.425   6.386  15.441 -0.1433  1.2063 -1.0081
16939TIP3    H172308   5.428   6.331  15.519 -1.4232  0.4053 -1.4856
16939TIP3    H272309   5.333   6.412  15.435  0.3196  2.9693 -1.1145
16940TIP3   OH272310   2.749   2.452  14.686 -0.1346 -0.5959  0.5005
16940TIP3    H172311   2.676   2.394  14.661  0.1345 -0.4451 -0.6932
16940TIP3    H272312   2.811   2.394  14.729  0.1096 -1.2270 -0.6410
16941TIP3   OH272313   3.080   6.412   2.350  0.2484 -0.3752  0.0912
16941TIP3    H172314   3.051   6.444   2.265  0.6221  1.9485  0.7734
16941TIP3    H272315   3.004   6.422   2.407  0.6166  0.0668  0.5098
16942TIP3   OH272316   0.295   5.500  15.055  0.1488  0.5508 -0.0987
16942TIP3    H172317   0.223   5.498  15.118  1.3050 -0.2681  1.2518
16942TIP3    H272318   0.274   5.573  14.997 -2.2083 -0.2299 -0.3065
16943TIP3   OH272319   5.848   3.526   3.113 -0.0794 -0.2251 -0.1326
16943TIP3    H172320   5.834   3.580   3.190  0.3119 -0.5098  0.1372
16943TIP3    H272321   5.768   3.537   3.062 -0.4158 -0.1836  0.3983
16944TIP3   OH272322   2.917   1.276  14.194  0.9555 -0.2451 -0.2690
16944TIP3    H172323   2.851   1.345  14.194  0.7604 -0.4179  0.6447
16944TIP3    H272324   2.934   1.259  14.101  0.2684  0.3225 -0.5102
16945TIP3   OH272325   5.339   1.654  14.798 -0.2747  0.1040 -0.2972
16945TIP3    H172326   5.324   1.744  14.830 -0.0913 -0.9421  3.2056
16945TIP3    H272327   5.327   1.660  14.704  0.2388  3.9168 -0.3043
16946TIP3   OH272328   4.256   5.103   3.079 -0.0013 -0.3976  0.0853
16946TIP3    H172329   4.292   5.177   3.128 -0.9275  0.4205 -0.4473
16946TIP3    H272330   4.284   5.118   2.989  0.9312 -1.4222  0.1796
16947TIP3   OH272331   0.677   6.348  13.161 -0.2223 -0.0355  0.2794
16947TIP3    H172332   0.605   6.407  13.180  0.0964  0.3461  0.3134
16947TIP3    H272333   0.677   6.339  13.065 -1.1244 -1.0708  0.3591
16948TIP3   OH272334   5.064   2.628  16.574 -0.3891 -0.3262  0.4781
16948TIP3    H172335   5.158   2.624  16.560 -0.0715  0.3777  2.0812
16948TIP3    H272336   5.050   2.582  16.657 -1.6181 -1.3493 -0.2522
16949TIP3   OH272337   1.079   2.063   4.265 -0.2271 -0.1548 -0.1864
16949TIP3    H172338   1.074   2.110   4.348  1.1885 -1.4004  0.6460
16949TIP3    H272339   1.115   2.126   4.203  1.7168 -0.0883  0.9319
16950TIP3   OH272340   5.237   5.179  11.554  0.5630  0.2509  0.0681
16950TIP3    H172341   5.247   5.259  11.605  0.1477  0.0811  0.4199
16950TIP3    H272342   5.325   5.141  11.551  0.3726 -0.3771  1.7096
16951TIP3   OH272343   3.213   1.690   4.141  0.4987  0.5070  0.0736
16951TIP3    H172344   3.199   1.601   4.110  2.6011 -0.0918  0.6856
16951TIP3    H272345   3.198   1.745   4.063 -0.3675 -0.4051 -0.4199
16952TIP3   OH272346   4.004   6.700   5.179 -0.1563 -0.1162  0.3552
16952TIP3    H172347   3.990   6.779   5.127 -0.8726 -1.1061 -1.0074
16952TIP3    H272348   3.948   6.713   5.256  0.7954  1.2902  0.8641
16953TIP3   OH272349   1.613   0.465  15.975  0.3984 -0.2397 -0.0216
16953TIP3    H172350   1.695   0.512  15.990  1.5919 -0.5203 -4.2989
16953TIP3    H272351   1.639   0.373  15.969 -1.1636 -1.0693  3.3585
16954TIP3   OH272352   5.395   2.471   0.147  0.0828  0.3054  0.4788
16954TIP3    H172353   5.444   2.414   0.207 -0.6248 -1.2784 -0.3670
16954TIP3    H272354   5.419   2.560   0.172  0.0886 -0.3117  2.8546
16955TIP3   OH272355   2.840   6.332  15.432 -0.4795 -0.3130  0.1652
16955TIP3    H172356   2.859   6.239  15.421 -1.6106 -0.7195  1.4107
16955TIP3    H272357   2.745   6.338  15.426 -0.3406  1.0189 -1.4582
16956TIP3   OH272358   4.352   6.403  12.485  0.3359 -0.2092  0.6614
16956TIP3    H172359   4.314   6.483  12.522  0.2161  0.5002 -0.9169
16956TIP3    H272360   4.279   6.341  12.484 -0.1558  0.3698 -0.1136
16957TIP3   OH272361   6.532   3.535   2.616 -0.3898 -0.0199  0.1353
16957TIP3    H172362   6.544   3.445   2.647 -1.1001 -0.6881 -1.3989
16957TIP3    H272363   6.438   3.541   2.598 -0.2449  0.8338 -0.3529
16958TIP3   OH272364   4.687   5.758  14.698 -0.2654 -0.0808 -0.8003
16958TIP3    H172365   4.624   5.816  14.741 -0.0618 -1.1776  1.0661
16958TIP3    H272366   4.633   5.695  14.651 -0.6001 -0.7409  0.4221
16959TIP3   OH272367   1.988   2.168  11.275 -0.4796  0.2119  0.0490
16959TIP3    H172368   1.964   2.239  11.216 -1.8194  0.0188  0.3337
16959TIP3    H272369   2.073   2.136  11.242 -0.9420  0.4569 -1.4340
16960TIP3   OH272370   6.632   4.032  13.606 -0.1743  0.4394  0.0435
16960TIP3    H172371   6.719   4.003  13.632 -0.2195  0.2497 -0.0092
16960TIP3    H272372   6.586   4.049  13.688 -0.3984 -0.3991  0.0976
16961TIP3   OH272373   0.629   4.100  15.456 -0.4632  0.2326 -0.0342
16961TIP3    H172374   0.668   4.172  15.507  1.9402  0.7728 -2.3986
16961TIP3    H272375   0.547   4.136  15.422  0.2136  1.5158 -0.3560
16962TIP3   OH272376   6.386   5.385   0.397  0.2261  0.2883 -0.1377
16962TIP3    H172377   6.383   5.316   0.330  0.7304  0.2895 -0.1701
16962TIP3    H272378   6.328   5.353   0.466  1.7635 -1.0342  0.6291
16963TIP3   OH272379   4.810   1.491  17.416 -0.3282  0.0627 -0.3349
16963TIP3    H172380   4.834   1.424  17.353  0.2146 -0.1656  0.1022
16963TIP3    H272381   4.893   1.533  17.439 -0.9021  2.6989 -2.5734
16964TIP3   OH272382   3.787   0.901   0.893  0.4124 -0.1866 -0.5572
16964TIP3    H172383   3.810   0.814   0.924 -3.1204 -1.0316  0.1272
16964TIP3    H272384   3.785   0.955   0.971 -0.6156 -0.3450 -0.4583
16965TIP3   OH272385   3.821   5.221  12.747  0.3061  0.1633 -0.1031
16965TIP3    H172386   3.873   5.237  12.825  1.1675  0.7553 -0.7778
16965TIP3    H272387   3.873   5.257  12.675 -0.4303 -0.4269 -0.9626
16966TIP3   OH272388   2.153   6.461   0.171 -0.8429 -0.2990  0.0457
16966TIP3    H172389   2.221   6.419   0.119 -0.7062  0.5311 -0.4700
16966TIP3    H272390   2.093   6.390   0.195 -1.2099 -0.6208 -1.7218
16967TIP3   OH272391   0.105   2.972  14.806  0.0790 -0.1144 -0.5259
16967TIP3    H172392   0.014   2.995  14.828 -0.0388 -1.2290  0.1992
16967TIP3    H272393   0.158   3.032  14.859 -0.2268 -0.6667  0.4180
16968TIP3   OH272394   6.063   6.357  17.138  0.0171  0.1087 -0.0046
16968TIP3    H172395   6.097   6.298  17.071 -1.1980 -2.5670  1.5711
16968TIP3    H272396   6.108   6.332  17.218 -1.6008  0.2651  1.0026
16969TIP3   OH272397   3.719   4.003   6.334 -0.6572 -0.2260 -0.5102
16969TIP3    H172398   3.776   3.951   6.389  0.1441 -1.2465 -2.2293
16969TIP3    H272399   3.760   4.090   6.332 -0.9648 -0.0325  0.8425
16970TIP3   OH272400   0.663   6.381  12.877  0.1582  0.2137 -0.0908
16970TIP3    H172401   0.750   6.344  12.861 -0.0780 -0.3702 -0.0555
16970TIP3    H272402   0.658   6.457  12.819 -0.4933 -1.5385 -2.4869
16971TIP3   OH272403   4.341   0.356  13.094  0.6567  0.2050  0.4813
16971TIP3    H172404   4.408   0.414  13.057  1.7840 -0.3860  1.5499
16971TIP3    H272405   4.271   0.415  13.122 -0.4248  0.6846 -2.7808
16972TIP3   OH272406   3.567   0.018  16.719  0.4817  0.6224 -0.0536
16972TIP3    H172407   3.609  -0.045  16.660 -0.0870  1.3069 -1.2467
16972TIP3    H272408   3.538   0.088  16.661 -2.6645  0.0148  0.6162
16973TIP3   OH272409   5.960   0.017   2.784 -0.2161 -0.2179  0.1685
16973TIP3    H172410   6.036  -0.036   2.810  0.0152 -1.4201 -2.5792
16973TIP3    H272411   5.901  -0.045   2.741 -1.3784  1.2305 -0.4360
16974TIP3   OH272412   3.537   2.383  16.382  0.2473  0.3203  0.1434
16974TIP3    H172413   3.537   2.376  16.287 -2.0934  0.8504  0.0424
16974TIP3    H272414   3.626   2.360  16.408  0.7215 -0.6006 -2.0968
16975TIP3   OH272415   5.808   3.643  17.220  0.4688  0.3672  0.5135
16975TIP3    H172416   5.822   3.737  17.205  1.6417  0.3738  1.4637
16975TIP3    H272417   5.881   3.601  17.173  1.3142  0.0938  2.0304
16976TIP3   OH272418   3.883   0.530   1.976  0.1908 -0.2192 -0.4189
16976TIP3    H172419   3.956   0.495   2.027  0.7851  2.2603  0.5522
16976TIP3    H272420   3.805   0.488   2.013  0.6370  1.2132  2.3551
16977TIP3   OH272421   5.818   3.138  13.893  0.3425  0.4740 -0.5770
16977TIP3    H172422   5.876   3.062  13.890 -0.9888 -0.5410 -1.4780
16977TIP3    H272423   5.878   3.213  13.893  1.7137 -0.5346  1.1175
16978TIP3   OH272424   2.137   0.213   0.192  0.3763 -0.4773  0.0432
16978TIP3    H172425   2.060   0.165   0.223  0.6143 -0.4977  0.6238
16978TIP3    H272426   2.116   0.305   0.206 -0.0841 -0.3968 -1.0804
16979TIP3   OH272427   5.728   2.534   2.701 -0.3232 -0.7483 -0.3568
16979TIP3    H172428   5.790   2.584   2.754 -2.7167  2.3245 -0.1860
16979TIP3    H272429   5.672   2.490   2.766  0.0376 -1.3671 -0.4603
16980TIP3   OH272430   2.137   0.372   5.325  0.3093  0.0141 -0.2574
16980TIP3    H172431   2.177   0.429   5.391 -0.2342 -0.0400  0.1268
16980TIP3    H272432   2.048   0.355   5.358  0.5469 -1.2770 -0.2187
16981TIP3   OH272433   2.975   0.327   0.314 -0.3446 -0.3703 -0.2488
16981TIP3    H172434   2.908   0.288   0.370 -2.6250  1.2391 -1.6761
16981TIP3    H272435   3.041   0.361   0.375 -1.5756 -0.6826  1.3025
16982TIP3   OH272436   0.606   0.272  13.975 -0.9293  0.5989 -0.0352
16982TIP3    H172437   0.546   0.249  14.046 -0.5916  1.9594  0.7339
16982TIP3    H272438   0.658   0.344  14.010  1.0966 -0.4453 -0.7136
16983TIP3   OH272439   6.237   0.844   6.419 -0.0577  0.2026 -0.6289
16983TIP3    H172440   6.314   0.841   6.363  0.6602  1.2907  0.2425
16983TIP3    H272441   6.226   0.754   6.449  1.4182  0.1677 -0.0919
16984TIP3   OH272442   0.482   1.650  13.291  0.2441 -0.2440 -0.2774
16984TIP3    H172443   0.554   1.588  13.275  2.1403  1.3363  1.4986
16984TIP3    H272444   0.412   1.597  13.328  1.1713 -1.5905 -0.3854
16985TIP3   OH272445   5.482   1.311   6.099  0.2084  0.0438 -0.1030
16985TIP3    H172446   5.407   1.254   6.082  0.7058 -1.4627  2.2276
16985TIP3    H272447   5.446   1.381   6.155  0.7088 -1.5219  2.3283
16986TIP3   OH272448   5.571   1.906  16.336  0.7777  0.8380  0.0109
16986TIP3    H172449   5.652   1.916  16.286  0.2208  0.4055 -1.0119
16986TIP3    H272450   5.515   1.852  16.280  0.6610 -0.9535  1.7292
16987TIP3   OH272451   2.274   4.578  15.816  0.0171  0.0354  0.9386
16987TIP3    H172452   2.207   4.512  15.794 -0.9609  1.0639  0.7606
16987TIP3    H272453   2.290   4.564  15.910 -0.1516 -0.4814  0.8976
16988TIP3   OH272454   5.356   2.708  17.143  0.2265 -0.1212  0.1824
16988TIP3    H172455   5.439   2.670  17.172  1.5070  2.3826  0.0414
16988TIP3    H272456   5.353   2.690  17.049 -0.1522 -1.5012  0.4369
16989TIP3   OH272457   2.602   4.098   5.881 -0.9151 -0.6097  0.0163
16989TIP3    H172458   2.607   4.081   5.976  1.5327 -2.5934 -0.3527
16989TIP3    H272459   2.601   4.193   5.874  3.9597 -0.0901  2.1035
16990TIP3   OH272460   1.628   5.834  14.698 -0.1466  0.2563 -0.4053
16990TIP3    H172461   1.602   5.926  14.698 -0.4748  0.1648 -0.6120
16990TIP3    H272462   1.550   5.787  14.667 -0.7218 -0.2978  1.7090
16991TIP3   OH272463   1.699   2.806   2.918  0.1637 -0.5645  0.0993
16991TIP3    H172464   1.774   2.792   2.976  0.6819 -1.4517 -0.7544
16991TIP3    H272465   1.676   2.719   2.887 -2.3740 -0.5492  1.6823
16992TIP3   OH272466   5.940   5.518  15.438 -0.1583  0.2373  0.7804
16992TIP3    H172467   5.926   5.423  15.441 -0.2911  0.2390  0.2761
16992TIP3    H272468   6.010   5.533  15.502  0.3122 -0.2837  0.4032
16993TIP3   OH272469   5.795   1.882  14.671 -0.1036 -0.2498 -0.2021
16993TIP3    H172470   5.747   1.882  14.589 -0.1661 -0.3223 -0.1664
16993TIP3    H272471   5.886   1.899  14.646 -0.2661  0.6568 -0.1983
16994TIP3   OH272472   3.599   4.932   2.321 -0.0190 -0.1779 -0.5037
16994TIP3    H172473   3.526   4.905   2.376  0.1593 -3.5047 -1.6712
16994TIP3    H272474   3.558   4.971   2.244 -0.3221  2.4132  0.8703
16995TIP3   OH272475   4.545   3.184   5.407  0.6664  0.1011  0.0095
16995TIP3    H172476   4.564   3.258   5.349 -1.1640  1.1530  0.6596
16995TIP3    H272477   4.497   3.122   5.353 -0.5114  0.8103  0.2077
16996TIP3   OH272478   0.318   3.851   5.734 -0.5948  0.1512 -0.1827
16996TIP3    H172479   0.257   3.920   5.759  0.7077  0.6700  1.7754
16996TIP3    H272480   0.266   3.770   5.739 -1.2904  0.6398  0.7569
16997TIP3   OH272481   0.768   1.028   3.070  0.2426 -0.2670 -0.5605
16997TIP3    H172482   0.847   1.073   3.101 -0.6964 -0.4132  2.3500
16997TIP3    H272483   0.776   0.939   3.105 -0.8083 -0.5528 -0.9987
16998TIP3   OH272484   1.266   6.125   4.560 -0.2931 -0.1436 -0.8257
16998TIP3    H172485   1.295   6.213   4.536 -0.3973 -0.3837 -1.8873
16998TIP3    H272486   1.316   6.104   4.639 -0.8068  1.1471 -0.1367
16999TIP3   OH272487   1.569   0.794   3.241 -0.4445  0.3284  0.0250
16999TIP3    H172488   1.572   0.755   3.329  0.5475 -1.5288 -0.7844
16999TIP3    H272489   1.476   0.799   3.221 -0.6923  0.8644  1.2118
17000TIP3   OH272490   3.816   2.163  12.765  0.9427 -0.5162  0.1827
17000TIP3    H172491   3.766   2.227  12.815 -0.7766 -2.1657  0.7078
17000TIP3    H272492   3.815   2.195  12.675 -0.5759 -0.1960  0.3010
17001TIP3   OH272493   0.207   5.037  14.940 -0.0943 -0.3952 -0.0150
17001TIP3    H172494   0.242   4.952  14.966 -1.0201 -0.7334  0.1634
17001TIP3    H272495   0.268   5.100  14.977  0.3185 -0.9670  0.2949
17002TIP3   OH272496   6.261   3.128   2.834  0.3080  0.0475 -0.4404
17002TIP3    H172497   6.313   3.164   2.762  0.8119  1.7058  0.7078
17002TIP3    H272498   6.257   3.198   2.899 -0.9430 -1.0654  0.7575
17003TIP3   OH272499   2.810   0.046  11.891 -0.0472 -0.6791  0.1399
17003TIP3    H172500   2.724   0.042  11.848  0.5569 -3.7834 -1.0147
17003TIP3    H272501   2.869   0.001  11.831  1.8032 -1.1133  2.1642
17004TIP3   OH272502   3.167   0.735  12.267 -0.4710  0.2274  0.1388
17004TIP3    H172503   3.213   0.675  12.208  0.4165 -0.0736  1.1127
17004TIP3    H272504   3.120   0.679  12.328 -0.5582  0.5274  0.3505
17005TIP3   OH272505   2.445   3.278   4.693 -0.2860 -0.0304 -0.2172
17005TIP3    H172506   2.383   3.297   4.763 -0.2645 -0.0637 -0.1893
17005TIP3    H272507   2.503   3.211   4.729 -1.7797 -1.8850 -1.1091
17006TIP3   OH272508   0.291   2.130   4.702  0.1722  0.1256 -0.0293
17006TIP3    H172509   0.215   2.079   4.676  0.7518 -1.1763  0.7023
17006TIP3    H272510   0.335   2.075   4.768  0.5217  1.8234  1.2074
17007TIP3   OH272511   3.360   0.066   5.999 -0.1321 -0.2604 -0.3310
17007TIP3    H172512   3.269   0.081   5.975 -0.1539  1.1756  0.5776
17007TIP3    H272513   3.365   0.089   6.092 -0.1945 -5.9996  1.5278
17008TIP3   OH272514   1.603   2.770   2.211  0.8685 -0.1689 -0.1730
17008TIP3    H172515   1.636   2.694   2.259  2.1073  1.1009  1.0829
17008TIP3    H272516   1.655   2.844   2.244 -2.2447  1.7527  0.8093
17009TIP3   OH272517   3.077   0.225  11.153 -0.1367 -0.1733 -0.3994
17009TIP3    H172518   3.059   0.232  11.060 -0.8797 -0.4441 -0.2860
17009TIP3    H272519   3.006   0.170  11.187 -0.5784  0.9103  0.5197
17010TIP3   OH272520   3.171   5.784   2.445 -0.2074 -0.3524 -0.2103
17010TIP3    H172521   3.148   5.842   2.373  0.8324  0.6340  0.2201
17010TIP3    H272522   3.236   5.724   2.408  0.5821  0.3718 -0.0302
17011TIP3   OH272523   2.223   2.706   0.733 -0.0541 -0.2285  0.4900
17011TIP3    H172524   2.193   2.797   0.734  1.8552  0.4418  0.1432
17011TIP3    H272525   2.303   2.708   0.681 -0.3378 -2.2442 -0.0780
17012TIP3   OH272526   5.994   2.238   4.670  0.2322  0.1088  0.2116
17012TIP3    H172527   6.067   2.250   4.609  0.2441 -0.6926  0.0593
17012TIP3    H272528   5.944   2.320   4.665 -1.6914 -1.0774 -3.4424
17013TIP3   OH272529   1.584   0.748   1.432  0.6134 -0.2383 -0.1624
17013TIP3    H172530   1.565   0.698   1.512 -0.6264 -0.0014 -0.2897
17013TIP3    H272531   1.620   0.683   1.371 -1.6736 -1.2096 -0.5986
17014TIP3   OH272532   2.933   4.261  14.009  0.2087 -0.3024  0.4385
17014TIP3    H172533   2.997   4.327  14.038 -0.2967  0.0301  0.8084
17014TIP3    H272534   2.979   4.212  13.941  0.7966  0.0547  0.5703
17015TIP3   OH272535   6.218   6.380  15.234 -0.4278  0.4025 -0.3682
17015TIP3    H172536   6.176   6.401  15.318  0.1936  3.3394 -0.6760
17015TIP3    H272537   6.150   6.336  15.184 -2.3264  2.5481  0.1341
17016TIP3   OH272538   0.655   5.120  11.783 -0.5909  0.0451 -0.0038
17016TIP3    H172539   0.659   5.135  11.688 -3.6475 -0.8321 -0.3715
17016TIP3    H272540   0.744   5.136  11.813  0.5149  0.2433 -3.0335
17017TIP3   OH272541   5.955   6.089  14.151  0.1930 -0.3442 -0.5727
17017TIP3    H172542   5.894   6.139  14.097 -0.4145 -1.0150 -0.5280
17017TIP3    H272543   5.901   6.056  14.223  0.2881 -2.0802 -1.2502
17018TIP3   OH272544   2.417   4.623   1.142  0.1177 -0.6221  0.5960
17018TIP3    H172545   2.394   4.651   1.054 -0.7602  0.5092  1.1557
17018TIP3    H272546   2.504   4.660   1.157 -0.1272 -0.0071  0.5327
17019TIP3   OH272547   2.235   6.068   6.154  0.0763  0.5527 -0.0343
17019TIP3    H172548   2.314   6.052   6.207 -0.2619  2.2443  1.0783
17019TIP3    H272549   2.202   5.981   6.134  0.5487 -0.2028  2.1049
17020TIP3   OH272550   0.912   3.455   6.330  0.1222  0.2678 -0.8327
17020TIP3    H172551   0.940   3.537   6.370  0.9925  0.7576 -2.3304
17020TIP3    H272552   0.841   3.423   6.385  0.6515  1.3536  0.5231
17021TIP3   OH272553   4.709   0.976   4.149  0.2395  0.2969 -0.0344
17021TIP3    H172554   4.802   1.001   4.148  0.3744 -0.1672  0.5611
17021TIP3    H272555   4.662   1.059   4.156  0.6130  0.5195 -0.1191
17022TIP3   OH272556   0.187   4.432  17.608 -0.3423 -0.0025  0.0277
17022TIP3    H172557   0.276   4.461  17.631 -0.9595  0.6879  1.7047
17022TIP3    H272558   0.138   4.512  17.594 -1.1686 -0.2982  1.0701
17023TIP3   OH272559   0.609   6.269   4.567 -0.2744  0.0669  0.2569
17023TIP3    H172560   0.653   6.184   4.557 -0.0901  0.3763 -2.3398
17023TIP3    H272561   0.517   6.250   4.550 -0.0104  0.5700 -2.1085
17024TIP3   OH272562   4.930   1.216  16.488 -0.0815 -1.0889  0.2867
17024TIP3    H172563   5.017   1.257  16.490 -1.1141  1.3974 -1.2300
17024TIP3    H272564   4.881   1.263  16.556 -0.8457 -0.9349 -0.3631
17025TIP3   OH272565   3.198   2.476  13.648  0.0757  0.8957 -0.0007
17025TIP3    H172566   3.246   2.393  13.653  0.3184  1.0790  1.2068
17025TIP3    H272567   3.245   2.526  13.581 -0.3003 -0.0670 -1.0055
17026TIP3   OH272568   4.509   1.768  12.903 -0.3490  0.3433 -0.0206
17026TIP3    H172569   4.584   1.760  12.962  1.6901  2.8729 -1.9887
17026TIP3    H272570   4.440   1.806  12.956  0.2269 -0.6788  1.5199
17027TIP3   OH272571   6.176   0.466   4.248  1.3133  0.4748 -0.1126
17027TIP3    H172572   6.121   0.401   4.204  1.3608 -0.1915  0.7778
17027TIP3    H272573   6.182   0.539   4.186  0.3464  0.0930 -0.6802
17028TIP3   OH272574   2.472   0.008  13.998  0.2815 -0.1242  0.3324
17028TIP3    H172575   2.547   0.055  13.961  1.5656 -1.2283  1.4197
17028TIP3    H272576   2.423   0.076  14.044 -0.0418  0.8177 -1.3165
17029TIP3   OH272577   6.122   3.612   1.423 -0.4773 -0.1989  0.2025
17029TIP3    H172578   6.192   3.590   1.361 -0.7044  0.1423 -0.1824
17029TIP3    H272579   6.167   3.621   1.507 -0.0739 -0.1016 -0.0165
17030TIP3   OH272580   5.348   4.031  13.181 -0.4105  0.4260  0.1661
17030TIP3    H172581   5.315   4.050  13.093 -3.5678 -1.2304  0.8571
17030TIP3    H272582   5.363   3.936  13.181  3.4260  0.8502  0.3661
17031TIP3   OH272583   5.563   0.928   4.905 -0.8458  0.1374  0.2876
17031TIP3    H172584   5.600   0.894   4.987  0.6866 -0.0515 -0.4453
17031TIP3    H272585   5.544   0.850   4.853 -0.2607  0.2855 -0.1655
17032TIP3   OH272586   0.777   6.183   2.976 -0.4927 -0.5780  0.0111
17032TIP3    H172587   0.690   6.143   2.979 -0.6533 -0.3117 -0.7735
17032TIP3    H272588   0.835   6.113   2.946 -0.4284 -0.7737  0.5994
17033TIP3   OH272589   5.534   1.282  13.838 -0.2107  0.0514  0.1035
17033TIP3    H172590   5.472   1.212  13.859  0.3948 -0.3156  0.7069
17033TIP3    H272591   5.568   1.258  13.752  1.1600 -1.2800  0.9644
17034TIP3   OH272592   2.295   4.538   4.217 -0.2911 -0.0504  0.0084
17034TIP3    H172593   2.303   4.500   4.130 -1.2633 -1.8788  0.6682
17034TIP3    H272594   2.383   4.566   4.240  0.0998 -0.1758 -1.2763
17035TIP3   OH272595   6.311   4.277   3.701  0.9136  0.1651 -0.1547
17035TIP3    H172596   6.335   4.273   3.608  1.6915  2.9668 -0.1451
17035TIP3    H272597   6.371   4.216   3.743  0.6971 -0.9915 -1.4224
17036TIP3   OH272598   1.635   0.218  17.583  0.0242  1.1323  0.2645
17036TIP3    H172599   1.693   0.294  17.593  0.3748  0.9368 -0.2437
17036TIP3    H272600   1.563   0.250  17.529 -0.3534  1.3783  0.9042
17037TIP3   OH272601   1.474   6.033  13.956  0.3980  0.2076  0.1135
17037TIP3    H172602   1.494   5.954  14.006  0.0575  0.0662  0.0256
17037TIP3    H272603   1.379   6.033  13.947  0.3998  0.6001  0.0683
17038TIP3   OH272604   0.245   2.820  10.947  0.1727  0.3360  0.1312
17038TIP3    H172605   0.250   2.726  10.930 -0.8832  0.4479 -0.8236
17038TIP3    H272606   0.153   2.842  10.939  0.2839  1.3171  1.2027
17039TIP3   OH272607   1.795   6.424  14.013 -0.1467  0.0605  0.0219
17039TIP3    H172608   1.720   6.385  13.969 -0.6229  0.9420  0.0297
17039TIP3    H272609   1.757   6.490  14.072  0.4852 -0.9051  1.5822
17040TIP3   OH272610   6.631   4.642   1.152 -0.3049  0.1186  0.4220
17040TIP3    H172611   6.602   4.623   1.241 -1.4467 -0.5689 -0.0639
17040TIP3    H272612   6.700   4.578   1.135  0.6153  0.8941  1.1341
17041TIP3   OH272613   1.162   4.810  16.525  0.3332  0.5179  0.4876
17041TIP3    H172614   1.139   4.733  16.473  2.6153 -0.7382  1.1654
17041TIP3    H272615   1.249   4.835  16.494  1.1228  0.6270  2.5987
17042TIP3   OH272616   3.897   5.883  12.705  0.4666 -0.3419  0.1191
17042TIP3    H172617   3.983   5.923  12.722 -0.7897  3.3077 -1.1481
17042TIP3    H272618   3.867   5.854  12.791  1.8796  0.7501  1.0346
17043TIP3   OH272619   6.069   2.350  13.762 -0.6255  0.3898 -0.2382
17043TIP3    H172620   6.061   2.432  13.809 -1.3330  0.4955 -0.5286
17043TIP3    H272621   6.017   2.288  13.813  0.3996 -0.0336  0.3135
17044TIP3   OH272622   0.022   1.505   0.280 -0.3138 -0.4167  0.2396
17044TIP3    H172623   0.020   1.440   0.211 -2.2911 -0.4626  0.3025
17044TIP3    H272624   0.073   1.578   0.243 -4.0065  0.9910 -2.6422
17045TIP3   OH272625   5.756   4.913  15.882 -0.0862 -0.2291 -0.3599
17045TIP3    H172626   5.811   4.857  15.937 -1.0411 -0.3856  0.4647
17045TIP3    H272627   5.671   4.912  15.925 -0.8116 -0.1846 -1.7558
17046TIP3   OH272628   0.337   4.424   1.060  0.0977 -0.1011 -0.2402
17046TIP3    H172629   0.338   4.410   1.155 -0.1465  1.3282  0.0110
17046TIP3    H272630   0.429   4.422   1.034  0.1347 -0.9551 -0.0553
17047TIP3   OH272631   6.531   4.272  15.300 -0.1798  0.2256  0.4399
17047TIP3    H172632   6.461   4.295  15.239  0.9367 -0.0792 -0.9969
17047TIP3    H272633   6.596   4.341  15.289  0.7029 -0.6319  0.1684
17048TIP3   OH272634   1.790   1.475   5.142  0.1767 -0.1407 -0.2914
17048TIP3    H172635   1.834   1.439   5.065  1.6688  1.3319 -0.1950
17048TIP3    H272636   1.764   1.563   5.115  1.4326  0.6965  1.0947
17049TIP3   OH272637   1.749   6.380   3.356  0.1068  0.1675  0.0304
17049TIP3    H172638   1.674   6.440   3.360  2.3581  3.2527  0.2855
17049TIP3    H272639   1.785   6.393   3.268 -1.1055 -3.4235 -1.1702
17050TIP3   OH272640   1.215   6.424   6.648 -0.0013  0.2146  0.2094
17050TIP3    H172641   1.247   6.506   6.612  2.2036 -0.8736 -0.5128
17050TIP3    H272642   1.293   6.381   6.683 -1.1643 -1.3588  1.0178
17051TIP3   OH272643   3.349   6.547   6.335 -0.3981 -0.0475  0.3502
17051TIP3    H172644   3.297   6.513   6.263  0.9258 -2.2721  0.3621
17051TIP3    H272645   3.300   6.624   6.365  0.1496  2.5583 -4.3711
17052TIP3   OH272646   1.839   3.378  11.969  0.2097  0.0879  0.1140
17052TIP3    H172647   1.887   3.400  11.889 -0.1612  1.2293  0.1774
17052TIP3    H272648   1.782   3.306  11.945 -0.4913  0.9527 -0.8989
17053TIP3   OH272649   4.278   1.278   6.161  0.0421 -0.1458  0.1948
17053TIP3    H172650   4.366   1.240   6.172  0.6507  1.3109  0.5622
17053TIP3    H272651   4.243   1.233   6.084  1.7084  0.2755 -0.8684
17054TIP3   OH272652   0.191   1.526  13.347 -0.1434  0.1444 -0.3298
17054TIP3    H172653   0.221   1.503  13.435 -1.1856 -0.5665 -0.1383
17054TIP3    H272654   0.133   1.601  13.360  1.7250  1.7436 -0.7373
17055TIP3   OH272655   0.863   3.824  14.502 -0.1609 -0.8073 -0.3442
17055TIP3    H172656   0.828   3.796  14.586 -1.3830  0.4000 -0.4065
17055TIP3    H272657   0.831   3.759  14.439 -2.0119  0.0312 -0.3318
17056TIP3   OH272658   5.147   4.656   1.246 -0.2296  0.6116  0.2008
17056TIP3    H172659   5.217   4.720   1.238 -0.7177  0.9845 -1.4424
17056TIP3    H272660   5.184   4.586   1.301  1.0535  1.2800  0.2160
17057TIP3   OH272661   0.833   0.889   5.749 -0.7678  0.1084 -0.4255
17057TIP3    H172662   0.915   0.875   5.703 -1.6147  1.7926 -2.6565
17057TIP3    H272663   0.836   0.829   5.823  2.4503  0.1221 -0.4075
17058TIP3   OH272664   5.191   3.254   3.275 -0.2122 -0.5907  0.1796
17058TIP3    H172665   5.275   3.299   3.269  0.0172 -0.9290  0.8176
17058TIP3    H272666   5.142   3.285   3.198  1.1539 -1.7707 -1.2523
17059TIP3   OH272667   4.632   4.125  17.557 -1.0023 -0.1605  0.0537
17059TIP3    H172668   4.665   4.213  17.539  0.5295 -0.9822 -1.6289
17059TIP3    H272669   4.559   4.114  17.496 -0.3339 -0.4814 -0.7161
17060TIP3   OH272670   5.418   4.271   1.021  0.6753  0.6561 -0.2528
17060TIP3    H172671   5.330   4.242   0.998  0.3449  0.5268  1.0898
17060TIP3    H272672   5.459   4.193   1.061  1.2734  0.8151 -0.5435
17061TIP3   OH272673   0.646   5.074  14.238 -0.2491  0.4883  0.5946
17061TIP3    H172674   0.631   5.119  14.322  0.4719  0.0936  0.9427
17061TIP3    H272675   0.713   5.127  14.195 -0.2983  0.4417  0.4625
17062TIP3   OH272676   0.145   1.505   3.151 -0.2706  0.4508  0.2586
17062TIP3    H172677   0.139   1.483   3.244  0.7731  1.7993  0.6819
17062TIP3    H272678   0.079   1.574   3.139  1.1793  1.9867  0.6091
17063TIP3   OH272679   0.014   0.742  13.894 -0.7395 -0.0912  0.4173
17063TIP3    H172680   0.107   0.731  13.914 -0.3862 -0.5621 -1.3390
17063TIP3    H272681  -0.010   0.824  13.937  1.1270  1.3261 -1.0505
17064TIP3   OH272682   4.494   5.945   5.016 -0.1053  0.0947  0.3818
17064TIP3    H172683   4.491   6.016   4.952  0.0790 -0.4324 -0.2207
17064TIP3    H272684   4.580   5.954   5.057 -0.0140  0.1142  0.1880
17065TIP3   OH272685   4.071   1.489  15.960  0.4552 -0.3577 -0.3082
17065TIP3    H172686   4.083   1.456  15.871  0.7567 -0.3280 -0.2788
17065TIP3    H272687   4.143   1.451  16.010  2.0012  1.8553 -0.6943
17066TIP3   OH272688   5.764   0.436   1.852  0.3309  0.1657  0.2626
17066TIP3    H172689   5.816   0.362   1.885  0.5991  0.6800  1.0035
17066TIP3    H272690   5.780   0.506   1.914  0.4724  1.0109 -0.7019
17067TIP3   OH272691   5.458   2.217   3.050  0.1067 -0.1408 -0.2108
17067TIP3    H172692   5.444   2.146   3.112 -1.9648  1.4891  1.3441
17067TIP3    H272693   5.384   2.277   3.065  0.5262  1.2519 -2.9872
17068TIP3   OH272694   2.540   5.932  17.164 -0.0211  0.1037  0.1525
17068TIP3    H172695   2.547   5.882  17.082 -1.1098  0.1068  0.0345
17068TIP3    H272696   2.539   5.865  17.232  0.2476  0.0642  0.1181
17069TIP3   OH272697   5.205   5.461   6.710  0.4637  0.0949 -0.3994
17069TIP3    H172698   5.112   5.459   6.689  0.8121 -1.2937 -2.1045
17069TIP3    H272699   5.213   5.409   6.790 -0.1092 -0.9450 -0.9857
17070TIP3   OH272700   2.720   1.215   0.445  0.1476  0.1439 -0.7681
17070TIP3    H172701   2.698   1.191   0.535  0.5286  0.5693 -0.5554
17070TIP3    H272702   2.684   1.145   0.392 -0.2182 -0.0319 -0.2932
17071TIP3   OH272703   2.856   6.387  15.726 -0.0053 -0.0058  0.4003
17071TIP3    H172704   2.769   6.349  15.731  0.4673 -1.3038 -0.7230
17071TIP3    H272705   2.884   6.372  15.636  0.6432  2.1023  0.2001
17072TIP3   OH272706   3.528   6.632  15.045  0.0723  0.3713  0.5167
17072TIP3    H172707   3.518   6.566  14.977 -1.4240 -0.3046  1.3428
17072TIP3    H272708   3.550   6.712  14.998 -0.3866 -0.2090 -0.7197
17073TIP3   OH272709   1.328   3.049   5.732 -0.3309 -0.3758 -0.0445
17073TIP3    H172710   1.277   3.101   5.669 -0.0770 -0.0518  0.0134
17073TIP3    H272711   1.417   3.051   5.698 -0.2422 -0.4228  0.1825
17074TIP3   OH272712   4.550   6.533  15.509  0.4942  0.7456  0.1598
17074TIP3    H172713   4.466   6.554  15.468 -0.3822 -2.3121  0.2144
17074TIP3    H272714   4.547   6.577  15.594 -0.1465  2.3197 -0.6329
17075TIP3   OH272715   4.226   5.075   6.879 -0.2354 -0.0659  0.4832
17075TIP3    H172716   4.153   5.013   6.887 -0.0046 -0.3729  0.2075
17075TIP3    H272717   4.305   5.021   6.887 -0.0162  0.0232 -0.8295
17076TIP3   OH272718   4.232   1.430  13.491  0.3456  0.2245 -0.1011
17076TIP3    H172719   4.280   1.356  13.454  2.3503  1.4012 -0.0497
17076TIP3    H272720   4.293   1.504  13.482 -1.4981  1.8382 -0.0058
17077TIP3   OH272721   3.892   1.001   3.579 -0.2207  0.0777 -0.0368
17077TIP3    H172722   3.897   0.952   3.497  0.2694  1.1419 -0.6632
17077TIP3    H272723   3.804   0.985   3.612 -0.6836  0.2484 -1.1719
17078TIP3   OH272724   1.460   2.170   0.128  0.5042 -0.1620  0.5178
17078TIP3    H172725   1.427   2.102   0.070  2.3239 -0.2935 -0.4212
17078TIP3    H272726   1.394   2.240   0.122  1.3337  0.5047 -2.9948
17079TIP3   OH272727   2.018   4.892   5.282  0.2020 -0.3505  0.4688
17079TIP3    H172728   1.946   4.866   5.224 -0.4245  1.0868  0.5382
17079TIP3    H272729   1.974   4.924   5.361  0.8009  1.8962 -0.0344
17080TIP3   OH272730   5.692   1.926   2.598  0.0678 -0.0036 -0.0293
17080TIP3    H172731   5.679   1.874   2.518 -2.6328 -0.2164  0.4565
17080TIP3    H272732   5.693   2.017   2.567  2.0091 -0.1722 -0.5766
17081TIP3   OH272733   3.141   1.363   0.986 -0.1135 -0.5451 -0.5230
17081TIP3    H172734   3.230   1.397   0.987 -0.4145  0.4163 -2.4371
17081TIP3    H272735   3.149   1.276   0.946 -0.0908 -0.2599 -1.1431
17082TIP3   OH272736   4.878   4.220  12.654 -0.2035  0.0782 -0.0645
17082TIP3    H172737   4.794   4.175  12.662  0.4265 -1.7338 -2.5078
17082TIP3    H272738   4.891   4.229  12.560  1.7222  1.5809  0.2909
17083TIP3   OH272739   3.381   3.450  16.365  0.3650 -0.8395 -0.5082
17083TIP3    H172740   3.443   3.490  16.425 -0.7410 -0.0880  0.1729
17083TIP3    H272741   3.396   3.356  16.374  1.2218 -0.6752 -0.1691
17084TIP3   OH272742   0.333   1.234   0.369 -0.1350  0.4474 -0.1041
17084TIP3    H172743   0.249   1.202   0.336 -0.3659  1.3386 -0.3959
17084TIP3    H272744   0.337   1.202   0.460 -0.8591  0.5284 -0.0387
17085TIP3   OH272745   3.717   4.647   6.034 -0.5736  0.7722 -0.0608
17085TIP3    H172746   3.772   4.574   6.003  1.0068  2.3233 -1.0943
17085TIP3    H272747   3.745   4.660   6.125  0.8875  1.5727 -0.5863
17086TIP3   OH272748   1.753   1.436   5.407  0.2624  0.1913  0.2100
17086TIP3    H172749   1.702   1.514   5.430 -1.2515 -1.1382  1.6426
17086TIP3    H272750   1.753   1.435   5.311 -0.3003  1.5581  0.1738
17087TIP3   OH272751   1.196   4.144   5.865  0.4368  0.2891  0.2410
17087TIP3    H172752   1.238   4.185   5.940  1.4412 -0.4618  0.1076
17087TIP3    H272753   1.167   4.217   5.810 -1.5217  0.8983  1.9651
17088TIP3   OH272754   3.528   5.806  17.583 -0.4930  0.0513  0.7518
17088TIP3    H172755   3.469   5.856  17.526 -0.4204 -1.5626 -0.8314
17088TIP3    H272756   3.566   5.740  17.525  2.3177  0.5331  1.8705
17089TIP3   OH272757   3.019   4.760   5.108 -0.2336  0.0813 -0.0474
17089TIP3    H172758   3.005   4.853   5.127 -1.4916 -0.0068 -0.4321
17089TIP3    H272759   2.956   4.714   5.163  0.8872 -0.6174  0.6990
17090TIP3   OH272760   4.189   4.994  17.058 -0.5552 -0.4121  0.0154
17090TIP3    H172761   4.132   5.053  17.106  0.6912  2.5736 -1.8744
17090TIP3    H272762   4.172   5.013  16.966  2.3961 -0.3710 -0.6292
17091TIP3   OH272763   4.382   0.531   2.728  0.4556  0.3195 -0.5828
17091TIP3    H172764   4.362   0.438   2.716 -1.0972  0.4918  0.4540
17091TIP3    H272765   4.449   0.532   2.797 -0.3612  0.0087  0.2306
17092TIP3   OH272766   0.254   4.538   2.532  0.2559  0.5530  0.1715
17092TIP3    H172767   0.342   4.562   2.502  0.2557 -0.1554 -0.4350
17092TIP3    H272768   0.215   4.620   2.561  1.4098  0.7629  1.2394
17093TIP3   OH272769   4.049   1.662  14.073  0.1368  0.3130  0.4183
17093TIP3    H172770   4.019   1.729  14.135 -1.0889  1.2476 -1.1275
17093TIP3    H272771   4.005   1.582  14.100 -3.4994  1.4868 -1.3719
17094TIP3   OH272772   1.833   2.059  17.547 -0.0177 -0.3083  0.7234
17094TIP3    H172773   1.828   1.972  17.508 -0.3462  0.2762 -0.6368
17094TIP3    H272774   1.903   2.103  17.497 -2.0486  1.2538 -0.9754
17095TIP3   OH272775   0.863   1.900  15.243 -0.3329 -0.1286  0.0071
17095TIP3    H172776   0.788   1.945  15.206  1.3009  1.7465 -1.2033
17095TIP3    H272777   0.926   1.894  15.171  0.7711 -1.4668  1.0234
17096TIP3   OH272778   5.441   3.438   3.279  0.6714 -0.1730 -1.5362
17096TIP3    H172779   5.487   3.466   3.200  0.4344  1.2554 -1.1863
17096TIP3    H272780   5.382   3.510   3.300 -0.1453 -1.0442 -0.7295
17097TIP3   OH272781   1.908   2.892  17.343  0.4446  0.2426  0.0975
17097TIP3    H172782   1.885   2.834  17.271 -0.1825  0.2766  0.2601
17097TIP3    H272783   1.893   2.839  17.422  1.8463 -0.0436  0.1882
17098TIP3   OH272784   1.204   6.577  12.031 -0.6477  0.2045  0.4261
17098TIP3    H172785   1.111   6.558  12.038 -0.5534 -0.5557 -0.1723
17098TIP3    H272786   1.245   6.491  12.021  0.0664  0.5642  0.1984
17099TIP3   OH272787   2.357   3.464  17.650 -0.8552  0.5124 -0.3952
17099TIP3    H172788   2.345   3.371  17.633 -2.6158  0.6236  0.0242
17099TIP3    H272789   2.368   3.504  17.564 -0.6810 -0.0197 -0.6167
17100TIP3   OH272790   5.150   3.345  15.658 -0.1255 -0.1536 -0.3865
17100TIP3    H172791   5.185   3.277  15.715 -0.7570  0.3746  0.6895
17100TIP3    H272792   5.218   3.413  15.657 -0.0428 -0.2369 -0.3858
17101TIP3   OH272793   6.312   6.621  17.624  0.0441  0.3529 -0.1924
17101TIP3    H172794   6.234   6.617  17.569  0.0952  2.6144 -0.5372
17101TIP3    H272795   6.280   6.650  17.709  0.1971 -1.4117  0.5103
17102TIP3   OH272796   6.637   6.211   5.677  0.1220  0.1616  0.5808
17102TIP3    H172797   6.728   6.224   5.652  0.1404 -1.8424 -0.5118
17102TIP3    H272798   6.592   6.288   5.641  1.2331  0.8041  0.4935
17103TIP3   OH272799   5.249   6.438   1.892 -0.4454 -0.3083  0.7993
17103TIP3    H172800   5.315   6.405   1.952 -1.0840 -0.5705  1.3674
17103TIP3    H272801   5.182   6.477   1.949  1.3447  4.3069  0.2345
17104TIP3   OH272802   1.949   2.388   5.886 -0.2547  0.2580  0.2622
17104TIP3    H172803   1.905   2.306   5.866  1.5948 -0.3053 -1.8194
17104TIP3    H272804   2.042   2.371   5.871  0.1667  2.8276 -0.6557
17105TIP3   OH272805   1.785   4.245   4.639 -0.0189 -0.2480  0.1828
17105TIP3    H172806   1.801   4.190   4.716  0.8699 -1.3459 -0.7399
17105TIP3    H272807   1.871   4.278   4.614 -0.3352  0.3184 -0.1898
17106TIP3   OH272808   0.266   5.421   5.426 -0.7202 -0.1569 -0.4814
17106TIP3    H172809   0.172   5.439   5.424 -1.2046 -2.4620 -1.4144
17106TIP3    H272810   0.272   5.325   5.425  1.6505 -0.0617 -0.5279
17107TIP3   OH272811   3.794   2.206  14.106 -0.0165 -0.5397 -0.6457
17107TIP3    H172812   3.885   2.176  14.112  0.2764  0.4997  0.3901
17107TIP3    H272813   3.796   2.296  14.138 -1.1363  0.0837 -2.2040
17108TIP3   OH272814   3.054   2.594  14.496  0.1609 -0.3657  0.4287
17108TIP3    H172815   3.145   2.616  14.475  0.1781 -0.7815  0.0665
17108TIP3    H272816   3.056   2.501  14.518 -0.2188 -0.4398  0.1607
17109TIP3   OH272817   1.516   5.395   3.141  0.1437 -0.3086 -0.7290
17109TIP3    H172818   1.605   5.380   3.107  0.4874 -0.8079  0.3264
17109TIP3    H272819   1.482   5.467   3.088  1.2430  0.0050 -1.0477
17110TIP3   OH272820   1.831   2.481  15.924 -0.7243  0.4068 -0.5880
17110TIP3    H172821   1.776   2.403  15.923 -0.1162 -0.0578 -2.3766
17110TIP3    H272822   1.908   2.457  15.872 -0.3299  2.0607 -0.8333
17111TIP3   OH272823   1.678   5.578  13.970 -0.2441 -0.1359 -0.0414
17111TIP3    H172824   1.617   5.505  13.982  0.2223 -0.4429  0.4754
17111TIP3    H272825   1.641   5.649  14.022  0.3681 -0.6398  1.1106
17112TIP3   OH272826   0.958   1.060  12.790 -0.1460  0.5612  0.0432
17112TIP3    H172827   0.960   0.998  12.864  0.8624  0.3239 -0.1714
17112TIP3    H272828   0.941   1.145  12.831 -2.7609  0.0339  0.2330
17113TIP3   OH272829   3.740   3.893  17.439  0.0871  0.6326  0.7733
17113TIP3    H172830   3.765   3.931  17.355 -0.8767  0.6976  0.5061
17113TIP3    H272831   3.687   3.960  17.481  0.7474  0.6861  1.5417
17114TIP3   OH272832   4.950   2.839   1.897 -0.4462 -0.4287  0.8546
17114TIP3    H172833   4.857   2.857   1.912 -1.0689 -2.7081  0.1300
17114TIP3    H272834   4.982   2.809   1.982 -0.3261  0.4452  1.1284
17115TIP3   OH272835   3.344   6.165   2.688  0.4762  0.0276  0.0685
17115TIP3    H172836   3.321   6.167   2.781  1.0968  0.4185  0.2187
17115TIP3    H272837   3.260   6.151   2.643  0.3391 -1.6277  0.7436
17116TIP3   OH272838   2.830   6.139   5.235  0.0176 -0.1122  0.3783
17116TIP3    H172839   2.838   6.232   5.212 -1.2399  0.4088  1.8472
17116TIP3    H272840   2.760   6.106   5.180 -1.3744  0.5331  1.6863
17117TIP3   OH272841   3.088   3.038   0.429 -0.5848  0.0951  0.2428
17117TIP3    H172842   3.011   3.035   0.485  0.3994  0.9238  1.7079
17117TIP3    H272843   3.145   2.968   0.462  0.9948  2.0367  1.8771
17118TIP3   OH272844   0.244   1.353   6.186  0.3385  0.1918  0.3325
17118TIP3    H172845   0.306   1.391   6.248  1.0535 -0.5844  0.1218
17118TIP3    H272846   0.158   1.372   6.222  0.7218  0.6356  1.0285
17119TIP3   OH272847   3.830   1.294   3.675  0.2161  0.7301 -0.0069
17119TIP3    H172848   3.824   1.289   3.770 -0.0970  0.4121 -0.0437
17119TIP3    H272849   3.874   1.213   3.649  0.1616  0.7452 -0.1473
17120TIP3   OH272850   5.140   3.082   0.678  0.7468  0.3122  0.0531
17120TIP3    H172851   5.184   3.151   0.629 -0.6638  3.0584  2.3515
17120TIP3    H272852   5.206   3.052   0.741  0.8813  0.7776  0.1422
17121TIP3   OH272853   1.712   3.447   1.547  0.5799 -0.1298  0.5050
17121TIP3    H172854   1.787   3.435   1.490  0.9351 -0.8319  1.1105
17121TIP3    H272855   1.676   3.359   1.559  0.1074  0.1002  0.8257
17122TIP3   OH272856   5.746   3.974  16.586  0.2911  0.5601 -0.3848
17122TIP3    H172857   5.714   3.885  16.575  0.8074  0.4209 -0.7596
17122TIP3    H272858   5.762   3.983  16.680 -1.7533  0.9459 -0.0165
17123TIP3   OH272859   2.742   6.330   5.820 -0.1695 -0.1292  0.0490
17123TIP3    H172860   2.690   6.257   5.787 -1.1297  0.5182  0.0828
17123TIP3    H272861   2.703   6.351   5.905 -0.2864  0.7923 -0.2219
17124TIP3   OH272862   0.808   2.511  11.645 -0.1200  0.5704 -0.2254
17124TIP3    H172863   0.764   2.510  11.561 -0.4696  0.7080 -0.0446
17124TIP3    H272864   0.814   2.418  11.670 -1.7401  0.6316  0.4905
17125TIP3   OH272865   0.709   4.149  12.512 -0.7316 -0.7378  0.3136
17125TIP3    H172866   0.644   4.079  12.507 -0.5603 -0.9088  0.4740
17125TIP3    H272867   0.672   4.211  12.575 -0.7847 -0.7876  0.3315
17126TIP3   OH272868   4.417   6.012  13.449 -0.3444  0.4591 -0.0217
17126TIP3    H172869   4.393   5.950  13.380 -1.3934  1.6855 -0.8133
17126TIP3    H272870   4.512   6.009  13.452 -0.3288 -0.2917 -0.8974
17127TIP3   OH272871   0.636   6.650  17.209 -0.4994  0.3163  0.2409
17127TIP3    H172872   0.731   6.633  17.210 -0.5246  0.1677  0.1316
17127TIP3    H272873   0.627   6.732  17.160 -0.4155  0.4104  0.3824
17128TIP3   OH272874   2.383   6.373  13.123  0.2805 -0.3231  0.5045
17128TIP3    H172875   2.400   6.388  13.030  1.6579  1.6536  1.0141
17128TIP3    H272876   2.458   6.323  13.154 -0.6583 -1.8692  0.3979
17129TIP3   OH272877   1.060   1.682  12.574  0.3150 -0.2502 -0.3576
17129TIP3    H172878   1.108   1.663  12.492  0.5368  0.0477 -0.3013
17129TIP3    H272879   1.043   1.776  12.569 -2.2626 -0.6917 -1.4342
17130TIP3   OH272880   2.213   2.444  13.008  0.4257 -0.2079 -0.4100
17130TIP3    H172881   2.279   2.513  13.015  0.9395 -0.8380  1.8130
17130TIP3    H272882   2.260   2.364  13.034 -1.0843 -0.7316  0.8212
17131TIP3   OH272883   3.239   5.490  14.099 -0.2203 -0.4997  0.5945
17131TIP3    H172884   3.267   5.419  14.157 -0.5269 -0.4356  0.8228
17131TIP3    H272885   3.278   5.469  14.015  2.2888  0.6527  1.3748
17132TIP3   OH272886   4.020   4.567   0.748  0.2608  0.3135  0.0941
17132TIP3    H172887   4.057   4.576   0.836 -0.9943  2.1942  0.4682
17132TIP3    H272888   4.048   4.646   0.702  3.5425 -1.9369 -2.3332
17133TIP3   OH272889   6.116   0.452  15.268 -0.0373 -0.0218  0.0616
17133TIP3    H172890   6.150   0.422  15.184  1.4014  1.2754  0.1304
17133TIP3    H272891   6.025   0.423  15.269  0.5578 -2.1348 -0.8988
17134TIP3   OH272892   6.099   1.289  13.306 -0.4513 -0.0887 -0.6204
17134TIP3    H172893   6.120   1.372  13.347 -1.7142 -0.4346  0.7960
17134TIP3    H272894   6.004   1.289  13.297 -0.5470 -1.6070 -0.0262
17135TIP3   OH272895   4.767   3.494   3.334 -0.2237  0.3494  0.0856
17135TIP3    H172896   4.684   3.529   3.301 -1.0813 -2.4874 -1.1166
17135TIP3    H272897   4.743   3.442   3.411  0.7682  1.0836  0.9246
17136TIP3   OH272898   3.183   2.190  12.719  0.4011  0.6199  0.9880
17136TIP3    H172899   3.193   2.117  12.780  2.0205  0.6823  0.8213
17136TIP3    H272900   3.228   2.161  12.639 -1.1799  0.7736 -0.0035
17137TIP3   OH272901   0.113   6.135  12.834  0.3700  0.2737  0.2356
17137TIP3    H172902   0.204   6.118  12.813 -0.1647 -0.0326 -2.1344
17137TIP3    H272903   0.065   6.061  12.796 -0.9225  0.7928  0.7891
17138TIP3   OH272904   5.685   1.493  14.453 -0.0401 -0.8095 -0.0105
17138TIP3    H172905   5.640   1.411  14.435 -1.2733 -0.0756 -0.3641
17138TIP3    H272906   5.650   1.523  14.536  0.0108 -0.3757 -0.1408
17139TIP3   OH272907   1.221   0.014  14.522 -0.4255  0.0349  0.3002
17139TIP3    H172908   1.181   0.070  14.589 -3.6800 -1.7548  0.0469
17139TIP3    H272909   1.234  -0.070  14.565  0.4725 -0.2285 -0.4582
17140TIP3   OH272910   5.805   2.856  14.974  0.2002  0.0578 -0.0426
17140TIP3    H172911   5.714   2.850  14.946  0.1014 -0.4415  0.3610
17140TIP3    H272912   5.811   2.937  15.023  0.3888  0.9843 -1.5401
17141TIP3   OH272913   5.952   6.105   6.692  0.1300 -0.3258 -0.1848
17141TIP3    H172914   5.869   6.119   6.647  0.5047  0.7559 -0.5832
17141TIP3    H272915   5.947   6.016   6.726 -0.4239 -0.9738 -1.8461
17142TIP3   OH272916   2.126   0.553  12.349 -0.2346 -0.1886 -0.2058
17142TIP3    H172917   2.127   0.476  12.292 -1.5175 -0.5190  0.1939
17142TIP3    H272918   2.218   0.578  12.356  0.1597 -1.4049 -0.7104
17143TIP3   OH272919   1.429   1.339   6.054 -0.3503 -0.3011  0.5767
17143TIP3    H172920   1.350   1.354   6.002  0.2807 -1.3826 -0.7633
17143TIP3    H272921   1.442   1.421   6.102 -1.3190  0.5247 -0.5111
17144TIP3   OH272922   4.089   4.839  15.309  0.3875  0.4910 -0.3532
17144TIP3    H172923   4.181   4.862  15.308  0.5801 -0.0470  1.4792
17144TIP3    H272924   4.080   4.773  15.240  1.3419  0.6050 -0.5964
17145TIP3   OH272925   0.236   5.523  17.293 -0.0578 -0.6956 -0.6031
17145TIP3    H172926   0.147   5.516  17.257 -0.4526 -0.3752  0.2691
17145TIP3    H272927   0.272   5.434  17.284 -0.4091 -0.7955 -1.0997
17146TIP3   OH272928   5.390   3.788  16.361 -0.7648 -0.3037 -0.9473
17146TIP3    H172929   5.476   3.815  16.330 -1.2235  0.5711 -1.5250
17146TIP3    H272930   5.329   3.821  16.294 -1.6360  0.0950  0.0086
17147TIP3   OH272931   5.470   4.586   0.118 -0.5902  0.3936 -0.2186
17147TIP3    H172932   5.503   4.667   0.159  2.2242  0.1078 -1.7022
17147TIP3    H272933   5.488   4.518   0.182 -1.4908  0.6886  0.3702
17148TIP3   OH272934   3.881   2.383   4.793  0.2008 -0.4242 -0.4717
17148TIP3    H172935   3.935   2.352   4.720  2.3759 -1.9512  1.6511
17148TIP3    H272936   3.792   2.359   4.768  1.0425 -2.2300 -2.0007
17149TIP3   OH272937   3.245   5.999  13.285 -0.4004 -0.4309 -0.0714
17149TIP3    H172938   3.293   6.074  13.250  1.2980 -0.5481  1.8168
17149TIP3    H272939   3.274   5.925  13.231  0.6851 -0.3031  0.3128
17150TIP3   OH272940   5.443   3.877  14.988  0.2428 -0.5068  0.1940
17150TIP3    H172941   5.536   3.902  14.985  0.2174 -0.4672 -0.4448
17150TIP3    H272942   5.444   3.783  15.005  0.3370 -0.1053  2.7567
17151TIP3   OH272943   0.879   0.024  13.443  0.4445  0.3166  0.1364
17151TIP3    H172944   0.830   0.103  13.463 -0.9631 -0.2016 -1.1134
17151TIP3    H272945   0.819  -0.031  13.393  1.8129 -0.9915 -0.1731
17152TIP3   OH272946   5.176   1.035  12.283  0.4480 -0.5385 -0.1679
17152TIP3    H172947   5.236   1.021  12.209  1.8849 -0.8520  1.0179
17152TIP3    H272948   5.214   0.985  12.355 -1.4672 -1.0559  0.5410
17153TIP3   OH272949   0.045   5.415  16.675  0.3807 -0.1262  0.1602
17153TIP3    H172950   0.137   5.388  16.668 -0.0422 -1.8593  0.8395
17153TIP3    H272951   0.037   5.450  16.763  0.4578  0.3198 -0.0096
17154TIP3   OH272952   0.695   3.820   1.230  0.0663  0.0241  0.4355
17154TIP3    H172953   0.708   3.837   1.323 -0.3379  0.9424  0.3375
17154TIP3    H272954   0.746   3.741   1.212  1.4473  0.7383  1.0915
17155TIP3   OH272955   6.158   5.891   3.938 -0.3469 -0.8446 -0.6487
17155TIP3    H172956   6.235   5.839   3.961  1.0113  0.7410 -1.4883
17155TIP3    H272957   6.118   5.912   4.022  0.6531 -0.9017 -0.1431
17156TIP3   OH272958   5.944   1.582  14.553  0.1318 -0.1029  0.7172
17156TIP3    H172959   5.874   1.527  14.519  0.0605  0.1800  0.4067
17156TIP3    H272960   5.948   1.656  14.493  2.0532 -1.0923 -0.4846
17157TIP3   OH272961   4.502   1.096   5.032 -0.6810  0.4119  0.5176
17157TIP3    H172962   4.471   1.152   5.103 -1.6570  0.7028 -0.1118
17157TIP3    H272963   4.431   1.032   5.020 -0.0212 -0.3445  0.5604
17158TIP3   OH272964   6.459   1.073   3.009 -0.3483 -0.6354 -0.3333
17158TIP3    H172965   6.402   1.126   3.065  0.4478 -0.2325  0.1137
17158TIP3    H272966   6.499   1.010   3.068 -1.3581 -1.8259 -0.8801
17159TIP3   OH272967   2.898   4.211   1.557 -0.2387 -0.1170  1.0696
17159TIP3    H172968   2.933   4.254   1.635  0.6611 -0.2213  0.7319
17159TIP3    H272969   2.890   4.282   1.493 -0.8393 -0.0600  1.1945
17160TIP3   OH272970   4.834   3.575  16.776  0.2159  0.1592 -0.5243
17160TIP3    H172971   4.895   3.504  16.794 -0.3298 -0.5055 -1.2747
17160TIP3    H272972   4.783   3.584  16.857 -0.3212 -0.9145 -0.7357
17161TIP3   OH272973   4.032   4.680   3.002 -0.5629  0.3357  0.1594
17161TIP3    H172974   4.061   4.771   2.997  3.8125 -0.7299  2.0703
17161TIP3    H272975   3.951   4.683   3.053 -0.3137  3.0916  0.5227
17162TIP3   OH272976   0.389   3.115  15.723 -0.2790 -0.4869  0.6693
17162TIP3    H172977   0.328   3.051  15.759 -0.7849 -1.0939 -1.1831
17162TIP3    H272978   0.466   3.064  15.698  0.6789  0.1440  2.1464
17163TIP3   OH272979   6.223   5.069  15.885 -0.1857 -0.6155 -0.6011
17163TIP3    H172980   6.315   5.073  15.909 -1.0084  1.1299  2.9153
17163TIP3    H272981   6.205   5.155  15.846 -0.6615 -0.2365  0.4175
17164TIP3   OH272982   6.694   4.992  11.146  0.5629  0.1510  0.4236
17164TIP3    H172983   6.649   4.913  11.178  1.5887  0.0196  1.6320
17164TIP3    H272984   6.706   4.976  11.053 -3.7506  1.1337 -0.4975
17165TIP3   OH272985   2.150   4.226   2.740  0.5012 -0.4150  0.2009
17165TIP3    H172986   2.065   4.201   2.703 -0.2359  1.4576  0.5580
17165TIP3    H272987   2.156   4.176   2.821 -0.4180 -0.3294  0.3355
17166TIP3   OH272988   5.583   0.240   4.228 -0.1267  0.1546  0.0055
17166TIP3    H172989   5.595   0.250   4.134 -0.7745 -0.2060 -0.1241
17166TIP3    H272990   5.644   0.171   4.254 -0.6142 -0.4147 -0.3248
17167TIP3   OH272991   0.648   2.173   4.227 -0.2228 -0.2519  0.1249
17167TIP3    H172992   0.552   2.173   4.231 -0.2494  0.4206 -0.2411
17167TIP3    H272993   0.670   2.093   4.180 -0.5172 -1.2770  1.6732
17168TIP3   OH272994   3.610   0.210   1.813 -0.1749 -0.0882 -0.0897
17168TIP3    H172995   3.520   0.204   1.845 -0.6061 -0.5040 -1.3423
17168TIP3    H272996   3.663   0.172   1.883 -0.9288  0.4246  0.7851
17169TIP3   OH272997   5.968   4.742  15.681  0.1738 -0.6461 -0.8626
17169TIP3    H172998   5.913   4.664  15.674 -3.0496  1.4525 -0.7333
17169TIP3    H272999   5.941   4.784  15.762  3.0156 -0.1441 -0.0714
17170TIP3   OH273000   2.015   1.377  14.481 -0.3493 -0.2389  1.0785
17170TIP3    H173001   2.105   1.353  14.506 -0.6407 -0.8055  1.5887
17170TIP3    H273002   1.986   1.305  14.425 -0.8897 -0.6295  1.8455
17171TIP3   OH273003   3.039   3.734  14.365 -0.0557  0.5605  0.0741
17171TIP3    H173004   3.087   3.779  14.434 -1.1048  1.2687  0.3620
17171TIP3    H273005   3.107   3.697  14.309  0.8194  0.0167  1.4442
17172TIP3   OH273006   1.941   6.387  11.831 -0.1215 -0.6698 -0.0781
17172TIP3    H173007   2.001   6.343  11.890 -0.6301 -3.0733 -1.2434
17172TIP3    H273008   1.856   6.346  11.847 -1.6617  2.7921  1.7018
17173TIP3   OH273009   0.556   5.809  14.340 -0.0738 -0.0567 -0.2082
17173TIP3    H173010   0.608   5.762  14.405  1.4772 -0.7216 -1.8237
17173TIP3    H273011   0.620   5.854  14.286 -1.0157 -1.6115 -2.8383
17174TIP3   OH273012   2.758   0.835  13.724  0.0349 -0.3176 -0.3795
17174TIP3    H173013   2.731   0.743  13.723  1.0900 -0.7044  1.5474
17174TIP3    H273014   2.843   0.834  13.767 -0.1870  1.6336  0.1943
17175TIP3   OH273015   6.292   3.374   4.285  0.4881 -0.6665 -0.5372
17175TIP3    H173016   6.297   3.281   4.262  0.0123 -0.8998  0.2367
17175TIP3    H273017   6.351   3.383   4.360 -0.7868 -0.7473  0.5265
17176TIP3   OH273018   0.538   6.653   5.611  0.1119  0.3894  0.1518
17176TIP3    H173019   0.468   6.656   5.545 -0.4634 -1.4186  0.6444
17176TIP3    H273020   0.611   6.700   5.570 -1.4081  2.5142 -0.2944
17177TIP3   OH273021   5.403   5.917   3.580  0.4308  0.0020  0.1647
17177TIP3    H173022   5.481   5.909   3.525 -1.6027  0.2224 -3.0003
17177TIP3    H273023   5.332   5.881   3.526 -1.5142 -1.5069  3.4216
17178TIP3   OH273024   2.285   3.183  13.742 -0.7093 -0.4692 -0.0061
17178TIP3    H173025   2.329   3.196  13.826 -0.3684  1.2889 -0.4175
17178TIP3    H273026   2.272   3.088  13.736  0.1724 -0.7218  1.5580
17179TIP3   OH273027   4.098   4.071  15.049 -0.2611  0.1756  0.8441
17179TIP3    H173028   4.154   4.018  14.993  0.8552  0.2119  1.8886
17179TIP3    H273029   4.120   4.044  15.138 -0.6479  1.4121  1.3433
17180TIP3   OH273030   0.557   1.267   2.336  0.1234  0.2026  0.5243
17180TIP3    H173031   0.641   1.303   2.306 -0.4582  0.7467 -0.5071
17180TIP3    H273032   0.512   1.342   2.375 -1.0934  0.6634 -1.6303
17181TIP3   OH273033   1.212   0.326   3.516  0.1698  0.0219  0.2296
17181TIP3    H173034   1.131   0.342   3.564 -0.3674  0.0375 -0.6458
17181TIP3    H273035   1.201   0.375   3.434  0.1451 -1.6724 -0.8322
17182TIP3   OH273036   0.977   6.372   4.031 -1.2954 -0.5636 -0.8149
17182TIP3    H173037   0.970   6.286   4.074 -0.6593 -0.8455 -1.2593
17182TIP3    H273038   1.020   6.354   3.948 -1.1576  0.1915 -0.9149
17183TIP3   OH273039   6.128   0.168   5.112  0.2588 -0.2252  0.6509
17183TIP3    H173040   6.059   0.103   5.122  1.0963 -1.1136  0.8410
17183TIP3    H273041   6.175   0.142   5.032  0.7464  0.0070  0.8543
17184TIP3   OH273042   2.466   0.363  12.277 -0.2984  1.0403 -0.8182
17184TIP3    H173043   2.464   0.449  12.235  2.4585  0.9861 -1.2738
17184TIP3    H273044   2.504   0.305  12.211 -1.0565 -0.2960 -0.1235
17185TIP3   OH273045   0.536   0.478   5.976 -0.1332 -0.1067 -0.0905
17185TIP3    H173046   0.576   0.395   6.004 -1.6962 -0.6585  0.6687
17185TIP3    H273047   0.506   0.518   6.057 -1.5499  0.0207 -0.6546
17186TIP3   OH273048   1.780   3.590  15.413  0.1253 -0.0784  0.3021
17186TIP3    H173049   1.847   3.533  15.375  0.3086  0.9136 -0.9516
17186TIP3    H273050   1.699   3.539  15.411  0.3341 -0.3826 -0.5771
17187TIP3   OH273051   2.832   4.892  13.472 -0.4167  0.1059 -0.5459
17187TIP3    H173052   2.739   4.913  13.477 -0.4478  0.1638 -1.2200
17187TIP3    H273053   2.835   4.808  13.426 -0.1987 -0.5247  0.5828
17188TIP3   OH273054   0.611   3.067  16.220  1.0181 -0.4502  0.3910
17188TIP3    H173055   0.616   3.039  16.129  0.0556  0.0127  0.1866
17188TIP3    H273056   0.575   3.156  16.216 -1.0978 -1.2037  1.3285
17189TIP3   OH273057   4.955   2.436   1.549  0.1079  0.0826 -0.4134
17189TIP3    H173058   4.886   2.498   1.524 -1.9358 -0.5140  3.0435
17189TIP3    H273059   5.018   2.489   1.597  1.4763  0.3808 -2.4197
17190TIP3   OH273060   0.799   5.831   0.076  0.4367 -0.5435 -0.0053
17190TIP3    H173061   0.819   5.765   0.143  0.8577 -1.2455 -0.8049
17190TIP3    H273062   0.854   5.906   0.098  1.0658 -1.0190  0.0580
17191TIP3   OH273063   6.415   3.285  12.986  0.0562 -0.1949 -0.1301
17191TIP3    H173064   6.462   3.342  13.047  0.7756  0.2534 -1.0696
17191TIP3    H273065   6.327   3.321  12.983  0.1101 -0.0098  0.3697
17192TIP3   OH273066   2.529   1.951  12.352  0.1908  0.9179  0.4535
17192TIP3    H173067   2.612   1.912  12.378  0.3457 -0.2072 -1.5568
17192TIP3    H273068   2.546   2.045  12.351  1.6142  0.6770 -0.4142
17193TIP3   OH273069   5.486   1.983   0.249  0.5359 -0.1813  0.8629
17193TIP3    H173070   5.534   1.914   0.295 -0.5539 -0.1300  2.1594
17193TIP3    H273071   5.539   2.062   0.262  1.0817 -0.5011  0.5888
17194TIP3   OH273072   3.674   3.235  17.315  0.3645 -0.0856  0.1174
17194TIP3    H173073   3.625   3.236  17.397 -0.4424  2.4452 -0.3054
17194TIP3    H273074   3.655   3.149  17.277  0.2287 -1.0485  2.2318
17195TIP3   OH273075   3.171   6.126  16.417  0.3487 -0.8164 -0.3458
17195TIP3    H173076   3.077   6.142  16.428  0.0821 -3.0050  1.3465
17195TIP3    H273077   3.177   6.039  16.379  1.7143 -0.2586 -1.4941
17196TIP3   OH273078   4.960   5.009   2.390  0.0485 -0.3276 -0.0745
17196TIP3    H173079   4.953   5.075   2.459  0.5853 -0.9197  0.5582
17196TIP3    H273080   4.935   4.927   2.433 -2.6351 -0.2858 -1.3360
17197TIP3   OH273081   6.407   6.669   0.532  0.1024 -0.4147 -0.3954
17197TIP3    H173082   6.347   6.622   0.590 -0.1408 -1.1375 -1.2224
17197TIP3    H273083   6.490   6.624   0.542 -0.2082 -1.2699 -1.4356
17198TIP3   OH273084   3.354   2.498   2.717  0.5696 -0.0412 -0.4356
17198TIP3    H173085   3.365   2.467   2.627  0.0982 -1.5340 -0.0214
17198TIP3    H273086   3.418   2.448   2.767  0.6256  0.5634  0.1040
17199TIP3   OH273087   4.201   3.915   4.946  0.2164  0.4426 -0.3600
17199TIP3    H173088   4.277   3.973   4.952 -1.2998  2.6027 -0.6642
17199TIP3    H273089   4.211   3.871   4.861  1.2142  0.5632 -0.3082
17200TIP3   OH273090   5.722   5.253  10.356 -0.0189  0.4480 -0.2591
17200TIP3    H173091   5.681   5.272  10.440  0.1742  0.0492 -0.0726
17200TIP3    H273092   5.815   5.275  10.369  0.0801  0.0272 -0.2522
17201TIP3   OH273093   0.918   3.940  11.561  0.0334  0.0014  0.4628
17201TIP3    H173094   0.905   3.889  11.481 -0.4046  2.6148 -1.2587
17201TIP3    H273095   1.007   3.974  11.554  0.0451  0.1404  1.1715
17202TIP3   OH273096   2.810   5.653   6.598 -0.0932  0.4069 -0.5036
17202TIP3    H173097   2.809   5.587   6.668 -0.3665  0.2794 -0.6287
17202TIP3    H273098   2.875   5.717   6.627 -1.4809  1.3172  0.7370
17203TIP3   OH273099   6.553   1.273  13.726 -0.1401 -0.1440  0.3654
17203TIP3    H173100   6.544   1.225  13.809 -0.3765  0.0547  0.4564
17203TIP3    H273101   6.469   1.317  13.715 -0.4226 -0.8588 -0.4201
17204TIP3   OH273102   0.527   0.640  13.939  0.2213  1.2017  0.1486
17204TIP3    H173103   0.597   0.574  13.939 -0.8957 -0.0436 -0.8182
17204TIP3    H273104   0.460   0.604  13.997 -0.5706  1.3059 -0.6920
17205TIP3   OH273105   4.483   3.728   0.011  0.0733  0.8132 -0.4817
17205TIP3    H173106   4.532   3.799   0.052 -0.7847  0.7512  0.7268
17205TIP3    H273107   4.474   3.662   0.080 -1.2607  0.6177 -0.7992
17206TIP3   OH273108   3.540   3.433   2.113 -0.2726 -0.2741 -0.2120
17206TIP3    H173109   3.461   3.465   2.156  0.3498  1.3920 -0.2571
17206TIP3    H273110   3.519   3.435   2.020 -0.3001 -0.1675 -0.2039
17207TIP3   OH273111   2.856   5.341   2.578 -0.2859 -0.2368  0.0917
17207TIP3    H173112   2.830   5.433   2.581  1.6365  0.4346 -1.6153
17207TIP3    H273113   2.799   5.302   2.512  0.9491  0.5194 -1.4777
17208TIP3   OH273114   2.844   0.514  13.094 -0.8381  0.3920  0.0064
17208TIP3    H173115   2.812   0.553  13.013  1.4785  2.0447 -0.2139
17208TIP3    H273116   2.813   0.574  13.163  0.4656  1.1918 -0.0742
17209TIP3   OH273117   6.679   3.529  14.344  0.0480  0.0576  0.6668
17209TIP3    H173118   6.726   3.576  14.275 -1.5409  0.1601 -0.3972
17209TIP3    H273119   6.743   3.466  14.377  0.9959  0.3079 -0.5867
17210TIP3   OH273120   6.469   3.251   4.444 -0.4551 -0.1518  0.4503
17210TIP3    H173121   6.495   3.174   4.394  0.7152  1.2643 -1.2882
17210TIP3    H273122   6.421   3.217   4.519  1.4969 -2.6333  0.6863
17211TIP3   OH273123   1.955   6.146  16.403  0.7149 -0.1174  0.4255
17211TIP3    H173124   1.933   6.070  16.350 -0.1338 -0.4063  1.1697
17211TIP3    H273125   1.907   6.218  16.363 -0.5187 -0.4761  1.2087
17212TIP3   OH273126   6.295   2.040   4.752 -0.0229 -0.4169  0.8229
17212TIP3    H173127   6.322   1.949   4.760 -2.4335 -1.3265 -0.3899
17212TIP3    H273128   6.239   2.055   4.828 -0.0178 -0.0861  0.7616
17213TIP3   OH273129   5.463   3.844   5.462 -0.2969  0.6064 -0.6189
17213TIP3    H173130   5.397   3.872   5.526 -0.4457  2.8639 -1.6643
17213TIP3    H273131   5.534   3.908   5.472  1.0516 -0.8326 -0.6373
17214TIP3   OH273132   5.564   5.789   4.364  0.0774 -0.3711  0.4066
17214TIP3    H173133   5.643   5.785   4.309 -2.1524 -0.1776 -3.0814
17214TIP3    H273134   5.554   5.882   4.385  0.4496 -0.3303  0.4225
17215TIP3   OH273135   4.503   4.755  17.285 -0.1857  0.0966 -0.6327
17215TIP3    H173136   4.451   4.782  17.210 -1.1941 -1.7896 -0.6931
17215TIP3    H273137   4.590   4.739  17.250  0.0859  1.8454 -0.8311
17216TIP3   OH273138   6.321   6.710   3.661 -0.2532 -0.4976 -0.0649
17216TIP3    H173139   6.333   6.647   3.732  0.6908  0.7481  0.9286
17216TIP3    H273140   6.231   6.741   3.671 -0.8048 -1.8397 -0.7140
17217TIP3   OH273141   1.300   0.833   3.136 -0.4139  0.0657  0.1609
17217TIP3    H173142   1.258   0.792   3.211  1.3152  1.3080  1.8936
17217TIP3    H273143   1.287   0.927   3.149 -0.0470  0.3148 -1.0820
17218TIP3   OH273144   2.489   0.101  15.620 -0.0485  0.2297  0.0107
17218TIP3    H173145   2.571   0.101  15.670 -1.4531  1.8585  2.5629
17218TIP3    H273146   2.506   0.045  15.545  3.3064  0.3195  0.5689
17219TIP3   OH273147   1.411   5.703   1.142  0.2299  0.0698  0.0549
17219TIP3    H173148   1.461   5.772   1.186  0.6040 -0.3064  0.2357
17219TIP3    H273149   1.408   5.731   1.051  0.3955  0.3185  0.1226
17220TIP3   OH273150   0.318   1.566  12.064 -0.3369  0.3139  0.4791
17220TIP3    H173151   0.390   1.510  12.032 -0.3667 -0.3593  1.5575
17220TIP3    H273152   0.240   1.511  12.056 -0.5248  0.5560  0.6343
17221TIP3   OH273153   1.935   1.706   0.711 -0.1396  0.0022  0.5913
17221TIP3    H173154   1.896   1.678   0.794 -0.8704  1.2940  0.7030
17221TIP3    H273155   1.880   1.778   0.681  0.8108  0.3341 -0.4269
17222TIP3   OH273156   5.893   5.854   4.438  0.1324 -0.3353  0.3418
17222TIP3    H173157   5.814   5.846   4.490 -0.1634  0.1809 -0.0162
17222TIP3    H273158   5.942   5.925   4.480 -0.4777  0.6331 -0.5246
17223TIP3   OH273159   0.468   5.788  14.022  0.3002 -0.1739  0.1737
17223TIP3    H173160   0.406   5.734  13.974 -0.1073 -0.1710  0.6831
17223TIP3    H273161   0.472   5.749  14.109  0.9274 -0.1038  0.1786
17224TIP3   OH273162   2.953   0.884  14.893 -0.3027  0.6239  0.2690
17224TIP3    H173163   2.937   0.863  14.985  0.2238 -2.9247 -0.3158
17224TIP3    H273164   2.916   0.811  14.845 -0.1897  2.1810 -2.3743
17225TIP3   OH273165   0.101   1.082   0.296  0.2811 -0.1899  0.0961
17225TIP3    H173166   0.070   1.017   0.358  0.1751 -0.1964  0.0361
17225TIP3    H273167   0.035   1.151   0.297  0.3795 -0.0958  0.1395
17226TIP3   OH273168   3.379   4.624   4.217  0.1843 -0.5228  0.6303
17226TIP3    H173169   3.366   4.549   4.159 -1.4718 -0.4694  0.8917
17226TIP3    H273170   3.422   4.690   4.162  1.8170 -1.6951  0.4468
17227TIP3   OH273171   6.726   1.991  16.449  0.0102 -0.7895  0.1139
17227TIP3    H173172   6.801   2.037  16.409  0.4517 -1.5465  0.0595
17227TIP3    H273173   6.655   2.054  16.444  0.2365 -0.6097 -1.2514
17228TIP3   OH273174   4.580   5.603  11.593 -0.6418 -0.1404 -0.1622
17228TIP3    H173175   4.617   5.623  11.679 -1.2116 -0.7564  0.2420
17228TIP3    H273176   4.539   5.517  11.605 -3.1351  0.9395 -0.2514
17229TIP3   OH273177   3.936   4.466   6.205 -0.6498  0.2783 -0.2868
17229TIP3    H173178   4.023   4.473   6.166 -0.7869 -2.0365 -1.1719
17229TIP3    H273179   3.912   4.556   6.228  0.7565  1.3419 -2.6700
17230TIP3   OH273180   3.708   6.462   1.165 -0.3285 -0.5637 -0.1180
17230TIP3    H173181   3.719   6.367   1.159  2.0512 -0.2848 -1.2910
17230TIP3    H273182   3.795   6.498   1.149 -1.2835  1.8553 -0.3745
17231TIP3   OH273183   5.488   4.165   0.115 -0.6269 -0.3885 -0.1006
17231TIP3    H173184   5.534   4.180   0.198 -2.5316 -1.0599  1.1677
17231TIP3    H273185   5.396   4.184   0.136 -1.2871 -1.4728 -1.8203
17232TIP3   OH273186   1.226   4.647   5.792  0.1807 -0.0717 -0.2344
17232TIP3    H173187   1.301   4.670   5.848  0.3073 -1.9769  0.4533
17232TIP3    H273188   1.151   4.647   5.852 -0.2904  1.1393 -0.7814
17233TIP3   OH273189   0.176   6.322  16.637  0.1345 -0.4788  0.1742
17233TIP3    H173190   0.225   6.380  16.696  0.2166 -0.9000  0.5266
17233TIP3    H273191   0.116   6.275  16.695 -1.3955  0.7177 -0.3593
17234TIP3   OH273192   0.728   5.203   5.393 -0.7457 -0.5001  0.5540
17234TIP3    H173193   0.782   5.215   5.316  0.8529 -0.2969  1.6564
17234TIP3    H273194   0.673   5.126   5.373 -0.4332 -0.3893 -0.7837
17235TIP3   OH273195   5.995   1.046   3.409  0.1403  0.5540 -0.6261
17235TIP3    H173196   6.072   1.013   3.362 -0.1799  0.6724 -1.2474
17235TIP3    H273197   5.965   0.972   3.461 -1.2605 -0.5639 -2.8864
17236TIP3   OH273198   3.975   0.054   0.294  0.0766  0.3421 -0.1149
17236TIP3    H173199   3.977   0.146   0.319  0.1395  1.0166 -2.4370
17236TIP3    H273200   3.882   0.035   0.279  0.1320  0.2293 -0.3201
17237TIP3   OH273201   1.665   6.468   0.814  0.0582 -0.0319  0.1246
17237TIP3    H173202   1.672   6.473   0.909  1.9153 -1.0563  0.0858
17237TIP3    H273203   1.728   6.532   0.782 -0.2864  0.0395 -0.4295
17238TIP3   OH273204   1.780   4.817   1.182 -0.1379  0.8884  0.3251
17238TIP3    H173205   1.751   4.873   1.255  0.9341  2.4917 -0.4100
17238TIP3    H273206   1.772   4.873   1.105  3.1166  0.8851 -0.1650
17239TIP3   OH273207   4.336   0.731  15.269 -0.1065  0.4702 -0.6394
17239TIP3    H173208   4.376   0.809  15.231 -0.5685  1.2495  0.4198
17239TIP3    H273209   4.386   0.658  15.232  1.0501  1.3158 -0.8041
17240TIP3   OH273210   3.367   5.881  13.049  0.4311 -0.7441 -0.3218
17240TIP3    H173211   3.440   5.821  13.039  0.7383 -0.4135 -0.0819
17240TIP3    H273212   3.366   5.932  12.968  0.3050 -0.9192 -0.4332
17241TIP3   OH273213   3.464   4.978  12.089 -0.1914 -0.6625  0.1258
17241TIP3    H173214   3.373   4.991  12.114  0.0994 -1.2916  1.6197
17241TIP3    H273215   3.500   5.066  12.080 -0.5726 -0.4036  1.0265
17242TIP3   OH273216   3.103   5.321   2.192 -0.4731 -0.0328 -0.1791
17242TIP3    H173217   3.164   5.314   2.266  0.3948  0.9377 -0.7666
17242TIP3    H273218   3.019   5.294   2.228  0.5480 -2.9869  0.2873
17243TIP3   OH273219   2.816   5.727  14.566 -0.8663  0.4770  0.2272
17243TIP3    H173220   2.779   5.677  14.493  0.9156 -1.0044  0.2568
17243TIP3    H273221   2.746   5.730  14.631 -1.3332 -1.2211 -0.1539
17244TIP3   OH273222   5.162   4.597  17.155  0.6545  0.5880  0.5941
17244TIP3    H173223   5.210   4.558  17.083 -0.1885  1.1563 -0.3032
17244TIP3    H273224   5.224   4.659  17.194  1.1105  0.2877  0.3562
17245TIP3   OH273225   4.712   3.234  14.658 -0.2693  0.2638 -0.2307
17245TIP3    H173226   4.651   3.296  14.618 -0.0890  0.0771 -0.8079
17245TIP3    H273227   4.737   3.275  14.741 -0.1602  0.9702 -0.6008
17246TIP3   OH273228   3.851   4.758  14.260  0.9635  0.4777 -0.1324
17246TIP3    H173229   3.867   4.806  14.179 -0.2757 -0.3886 -0.9275
17246TIP3    H273230   3.761   4.781  14.285  1.0904  0.2024  0.6101
17247TIP3   OH273231   3.094   5.605   5.469 -0.3184 -0.1714  0.5268
17247TIP3    H173232   3.188   5.618   5.483  0.2530 -0.1067 -2.6524
17247TIP3    H273233   3.069   5.676   5.409 -2.4630 -0.1296  1.3850
17248TIP3   OH273234   3.549   6.619  17.475  0.0233  0.4913 -0.0281
17248TIP3    H173235   3.512   6.707  17.481 -0.8956  0.4162 -3.1437
17248TIP3    H273236   3.505   6.570  17.544 -1.0924  1.9274  0.3279
17249TIP3   OH273237   6.103   3.118   3.507  0.0867 -0.0049  0.4150
17249TIP3    H173238   6.050   3.065   3.447  1.2011 -0.0400 -0.5753
17249TIP3    H273239   6.158   3.055   3.553  3.0584  0.2778 -2.3725
17250TIP3   OH273240   5.438   6.444  13.871 -0.3713 -0.0861 -0.0125
17250TIP3    H173241   5.412   6.353  13.885  1.9141 -0.8248 -0.1710
17250TIP3    H273242   5.484   6.469  13.951  0.3331  0.4195 -0.5614
17251TIP3   OH273243   3.588   2.953  11.641 -0.1446  0.0586 -0.4778
17251TIP3    H173244   3.544   2.952  11.556 -0.6546 -0.4045 -0.2114
17251TIP3    H273245   3.580   2.864  11.673  0.7427  0.0417 -0.2899
17252TIP3   OH273246   3.431   5.027  13.634  0.1338  0.2294  0.4138
17252TIP3    H173247   3.386   4.982  13.705 -1.0470  0.4944 -0.1311
17252TIP3    H273248   3.518   4.988  13.630 -0.6911 -1.6765  0.2489
17253TIP3   OH273249   3.361   5.344  15.798  0.4088 -0.0872  0.0234
17253TIP3    H173250   3.327   5.410  15.858 -0.2753  0.1252 -0.5933
17253TIP3    H273251   3.456   5.344  15.813  0.4270  1.0920 -0.0331
17254TIP3   OH273252   3.917   4.783   1.595  0.0371 -0.3824 -0.6039
17254TIP3    H173253   3.871   4.828   1.666  0.3179  0.3605 -0.8856
17254TIP3    H273254   3.959   4.853   1.545  0.1120 -0.9267 -1.3158
17255TIP3   OH273255   5.829   1.065   3.920 -0.4523  0.0053 -0.1506
17255TIP3    H173256   5.787   1.148   3.943  1.1534  1.1818 -1.2191
17255TIP3    H273257   5.840   1.069   3.825  3.4806  0.5796  0.1777
17256TIP3   OH273258   6.712   0.345   2.150 -0.4312  0.3721  0.5072
17256TIP3    H173259   6.663   0.334   2.068 -0.0165 -2.9352  0.5561
17256TIP3    H273260   6.802   0.322   2.127 -0.8021 -3.7840  2.3252
17257TIP3   OH273261   1.297   0.772  15.655 -0.4779 -0.3916 -0.5154
17257TIP3    H173262   1.358   0.717  15.606 -1.1606 -1.8629  0.2289
17257TIP3    H273263   1.336   0.859  15.653  0.7800 -0.9521 -1.4870
17258TIP3   OH273264   5.441   5.977  14.071  0.0223  0.3372  0.1560
17258TIP3    H173265   5.389   5.947  14.145  2.6509 -2.2228  1.1911
17258TIP3    H273266   5.495   6.047  14.107 -0.7332  1.0932 -0.1632
17259TIP3   OH273267   0.925   4.688   4.893 -0.1644 -0.3188 -0.3876
17259TIP3    H173268   0.934   4.603   4.935  0.8428  0.1007  0.3049
17259TIP3    H273269   0.935   4.670   4.800 -0.9061 -1.0713 -0.3332
17260TIP3   OH273270   4.002   2.514  14.846 -0.5356 -0.0430  0.2466
17260TIP3    H173271   3.938   2.449  14.817 -0.6283 -0.1435  0.6671
17260TIP3    H273272   3.990   2.519  14.941  0.9877 -1.0072  0.5113
17261TIP3   OH273273   0.661   3.852  15.298  0.4675  0.4336 -0.5306
17261TIP3    H173274   0.624   3.936  15.326 -0.5442  0.7043 -2.4906
17261TIP3    H273275   0.589   3.790  15.304  0.8558 -0.0010 -0.3204
17262TIP3   OH273276   1.528   2.565  13.403  0.0639 -0.3718  0.5493
17262TIP3    H173277   1.577   2.484  13.391  1.1573  0.5073 -1.5628
17262TIP3    H273278   1.488   2.582  13.318 -3.4025 -0.6191  1.9628
17263TIP3   OH273279   0.062   6.022   0.690 -0.1613 -0.5176 -0.4329
17263TIP3    H173280   0.107   5.953   0.738 -0.0051 -0.1778 -0.0940
17263TIP3    H273281  -0.028   6.019   0.722  0.0531  0.0337  0.2530
17264TIP3   OH273282   4.253   1.285   0.703  0.3435 -0.3576 -0.5589
17264TIP3    H173283   4.282   1.302   0.613 -1.3467 -0.2941 -1.1258
17264TIP3    H273284   4.334   1.269   0.751  1.3550  0.4307 -1.9077
17265TIP3   OH273285   1.183   4.273  15.898 -0.1722  0.1716  0.1452
17265TIP3    H173286   1.111   4.332  15.875  0.3134  1.0389  0.8122
17265TIP3    H273287   1.243   4.277  15.824 -1.1655 -1.1702 -0.7765
17266TIP3   OH273288   1.810   1.671   1.830 -0.2838 -0.7020  0.5821
17266TIP3    H173289   1.853   1.590   1.801 -2.1026 -2.3213  2.1654
17266TIP3    H273290   1.846   1.688   1.917 -0.6621 -0.3881  0.6800
17267TIP3   OH273291   6.198   4.200   0.374 -0.2834  0.8504  0.4021
17267TIP3    H173292   6.223   4.119   0.330  2.0866  1.2879  0.8058
17267TIP3    H273293   6.163   4.255   0.305 -3.4503 -0.9685  0.3578
17268TIP3   OH273294   6.050   5.647  14.692 -0.4765 -1.0221 -0.1337
17268TIP3    H173295   6.034   5.658  14.598 -1.2418 -2.3110 -0.1818
17268TIP3    H273296   6.055   5.552  14.704  1.7999 -0.8631  0.7843
17269TIP3   OH273297   0.735   3.769   2.601 -0.4154 -0.0656  0.0584
17269TIP3    H173298   0.735   3.750   2.507  0.6846 -0.8692  0.2077
17269TIP3    H273299   0.814   3.727   2.634 -1.7600 -1.4176  1.6862
17270TIP3   OH273300   0.006   3.200   0.388 -0.3585 -0.4115 -0.0456
17270TIP3    H173301  -0.033   3.164   0.309 -0.9206 -0.1379  0.1007
17270TIP3    H273302   0.065   3.268   0.357 -0.4615 -0.4110 -0.2432
17271TIP3   OH273303   2.213   4.512  11.996 -0.2853  0.1194 -0.6352
17271TIP3    H173304   2.202   4.478  11.907 -1.1382  0.3389 -0.6191
17271TIP3    H273305   2.292   4.469  12.029 -1.2152 -1.6767 -0.6788
17272TIP3   OH273306   2.388   2.513  11.712  0.3911  0.2349 -0.5327
17272TIP3    H173307   2.422   2.427  11.690  0.3224 -0.0996  0.5945
17272TIP3    H273308   2.465   2.561  11.746  0.0526 -0.0509  0.6829
17273TIP3   OH273309   6.001   4.921   4.222  0.4217  0.0115  0.0638
17273TIP3    H173310   5.963   5.002   4.257 -3.2697 -1.3760 -0.2683
17273TIP3    H273311   6.002   4.935   4.127 -1.3470 -0.6774 -0.0901
17274TIP3   OH273312   0.586   6.344  14.311  0.0900  0.5040 -0.5308
17274TIP3    H173313   0.501   6.386  14.304 -0.2914 -0.2544 -0.5754
17274TIP3    H273314   0.577   6.262  14.262 -0.2310 -1.2309  2.2108
17275TIP3   OH273315   3.440   6.320  14.775 -0.0459  0.7170  0.4418
17275TIP3    H173316   3.459   6.404  14.733 -1.9501  1.4861  1.0199
17275TIP3    H273317   3.494   6.320  14.854  1.9481  0.1931 -0.8477
17276TIP3   OH273318   4.014   1.664  16.949 -0.4367  0.3140  0.3327
17276TIP3    H173319   4.108   1.655  16.936 -0.2491  0.4312  1.5035
17276TIP3    H273320   3.981   1.693  16.864  0.6227  0.5795 -0.0062
17277TIP3   OH273321   0.378   3.819  15.727  0.1777 -0.3034  0.0388
17277TIP3    H173322   0.424   3.745  15.687 -0.6782  0.4176 -2.4699
17277TIP3    H273323   0.430   3.896  15.704 -1.9694  0.4989 -2.6491
17278TIP3   OH273324   2.505   4.329  17.141  0.1221  0.0737  0.2221
17278TIP3    H173325   2.498   4.385  17.064  0.4095  2.5267  1.8597
17278TIP3    H273326   2.559   4.379  17.202 -1.3964 -1.0314  2.6386
17279TIP3   OH273327   3.566   5.987  14.510 -0.2553  0.8588  0.2573
17279TIP3    H173328   3.499   6.015  14.572  1.3244  0.7219  2.0810
17279TIP3    H273329   3.621   6.064  14.497 -0.1310  0.6643 -0.4292
17280TIP3   OH273330   0.880   5.696  11.315  0.7262  0.1481 -0.3034
17280TIP3    H173331   0.822   5.670  11.243 -0.3646 -0.0816  0.6163
17280TIP3    H273332   0.902   5.787  11.297 -0.8038  0.5818 -0.1611
17281TIP3   OH273333   1.524   5.595  12.403  0.0707  0.2967 -0.0201
17281TIP3    H173334   1.619   5.606  12.409  0.2338  0.7113 -2.5259
17281TIP3    H273335   1.490   5.683  12.418  0.2504  0.6145 -1.3569
17282TIP3   OH273336   6.159   3.504   2.739  0.1962 -0.1658 -0.7138
17282TIP3    H173337   6.186   3.527   2.650  0.1717  0.4792 -0.5586
17282TIP3    H273338   6.084   3.560   2.757 -1.5891 -2.2010 -1.2856
17283TIP3   OH273339   0.811   3.725  11.938  0.0667  0.2838 -0.2155
17283TIP3    H173340   0.816   3.806  11.989  1.0391  0.0549  0.0743
17283TIP3    H273341   0.741   3.741  11.875 -1.7016  0.3020  1.6616
17284TIP3   OH273342   0.602   0.576   3.266 -0.0805 -0.0636  0.5909
17284TIP3    H173343   0.508   0.567   3.246  0.6749 -0.3313 -3.8900
17284TIP3    H273344   0.626   0.661   3.229  1.8213 -1.0149 -0.5002
17285TIP3   OH273345   1.237   4.133  13.103 -0.4150  0.7878 -0.1504
17285TIP3    H173346   1.152   4.095  13.081 -0.0443 -0.8347  1.0117
17285TIP3    H273347   1.228   4.159  13.195  0.9201 -1.3373  0.6539
17286TIP3   OH273348   4.878   4.390  14.372  0.5077 -0.1745  0.2075
17286TIP3    H173349   4.814   4.327  14.403  0.5088 -0.0992  0.3670
17286TIP3    H273350   4.864   4.467  14.428 -1.0979  0.8629 -1.5148
17287TIP3   OH273351   2.336   2.094   4.672 -0.4954 -0.9356 -0.4193
17287TIP3    H173352   2.385   2.023   4.630  1.0613 -0.1580  0.0379
17287TIP3    H273353   2.295   2.141   4.599 -1.2382 -2.0576 -0.7489
17288TIP3   OH273354   6.406   3.655  17.013  0.0082  0.0983  0.0240
17288TIP3    H173355   6.325   3.661  17.062 -1.7382 -0.6095 -2.5771
17288TIP3    H273356   6.382   3.677  16.923  2.7875  0.2363 -0.7977
17289TIP3   OH273357   1.680   1.613  14.514  0.3762  0.2004 -0.1691
17289TIP3    H173358   1.751   1.578  14.459 -0.2378  0.8677 -1.4273
17289TIP3    H273359   1.725   1.652  14.589  1.1568 -2.0713  0.6380
17290TIP3   OH273360   1.031   5.746  11.568  0.0822 -0.0471 -0.2190
17290TIP3    H173361   0.992   5.715  11.650 -0.1632  0.8315  0.0103
17290TIP3    H273362   1.000   5.685  11.502  0.6220 -1.0139  0.4072
17291TIP3   OH273363   5.789   3.652  16.295 -0.6618  0.0558  0.6728
17291TIP3    H173364   5.833   3.655  16.380 -2.4395 -1.4328  1.7220
17291TIP3    H273365   5.758   3.562  16.287 -0.6073  0.1749 -1.5476
17292TIP3   OH273366   4.595   4.394   0.674  0.2642  0.0065  0.5566
17292TIP3    H173367   4.578   4.391   0.768  0.2976 -1.1623  0.5364
17292TIP3    H273368   4.519   4.439   0.637  0.9440  1.8370  1.2742
17293TIP3   OH273369   5.819   4.694   4.397  0.0506 -0.7632  0.0165
17293TIP3    H173370   5.804   4.620   4.456  0.9600 -0.9696  0.0073
17293TIP3    H273371   5.914   4.694   4.382  0.0908  0.5030  0.1494
17294TIP3   OH273372   1.196   3.825  12.021  0.3144  0.1856 -0.2925
17294TIP3    H173373   1.240   3.902  11.986 -0.1394  1.0316  0.9447
17294TIP3    H273374   1.212   3.757  11.956 -0.1076  1.5678 -1.8927
17295TIP3   OH273375   6.437   2.480  16.627  0.3195 -0.1016 -0.3070
17295TIP3    H173376   6.481   2.516  16.550  0.8612 -0.3073 -0.1044
17295TIP3    H273377   6.370   2.422  16.592 -1.4231  1.9995 -0.6683
17296TIP3   OH273378   0.730   6.644  13.667 -0.0332  0.2511  0.7103
17296TIP3    H173379   0.715   6.638  13.572 -0.5224  0.1120  0.7918
17296TIP3    H273380   0.676   6.718  13.694 -0.2592  0.0011  0.9515
17297TIP3   OH273381   5.348   4.955   3.694 -0.0604 -0.0456  0.5825
17297TIP3    H173382   5.283   4.945   3.624  0.6896 -1.8820  0.1072
17297TIP3    H273383   5.369   4.866   3.720  0.8346  0.5827  2.0945
17298TIP3   OH273384   5.247   4.480   1.818 -0.4925  0.5031  0.5786
17298TIP3    H173385   5.222   4.481   1.726 -0.6618  0.3821  0.6231
17298TIP3    H273386   5.174   4.521   1.864 -0.5729  0.2238  0.7003
17299TIP3   OH273387   2.965   5.422   0.894  0.6649  0.1459 -0.3574
17299TIP3    H173388   2.880   5.386   0.917  1.3608 -2.3663 -1.3802
17299TIP3    H273389   3.005   5.446   0.977  0.2565 -1.8140  0.4452
17300TIP3   OH273390   4.227   3.333   4.506 -0.4672 -0.0732  0.1732
17300TIP3    H173391   4.225   3.417   4.551 -0.7252 -0.6235  1.2062
17300TIP3    H273392   4.220   3.267   4.575  1.7796 -1.0192 -0.3758
17301TIP3   OH273393   5.523   1.778  17.397 -0.4476 -0.6796  0.5288
17301TIP3    H173394   5.431   1.800  17.413 -0.4140 -0.1595  0.0728
17301TIP3    H273395   5.534   1.691  17.434 -0.9550 -0.4828  1.1662
17302TIP3   OH273396   2.662   3.407   2.640  0.6768  0.4067  0.2109
17302TIP3    H173397   2.744   3.417   2.688  0.8412  1.4629 -0.2631
17302TIP3    H273398   2.640   3.315   2.650  2.2690 -0.0569 -0.2026
17303TIP3   OH273399   6.450   4.724  13.739  0.2791  0.2518  0.6165
17303TIP3    H173400   6.372   4.694  13.692 -0.2979  0.3388  1.4874
17303TIP3    H273401   6.523   4.687  13.690 -0.3166 -0.0807 -0.0491
17304TIP3   OH273402   1.064   0.949   6.543  0.3480  0.3055 -0.3557
17304TIP3    H173403   1.096   1.011   6.477 -0.4993  1.8210  0.5740
17304TIP3    H273404   1.139   0.932   6.599  0.8117 -0.2119 -1.1127
17305TIP3   OH273405   4.482   3.565   1.532  0.2508 -0.3366 -0.0410
17305TIP3    H173406   4.475   3.527   1.445  1.4771  0.6559 -0.5972
17305TIP3    H273407   4.439   3.650   1.525  0.8946  0.0110  0.1464
17306TIP3   OH273408   5.392   6.470   6.231  0.0096 -0.0063 -0.3320
17306TIP3    H173409   5.356   6.522   6.303 -0.4892 -0.0764 -0.5219
17306TIP3    H273410   5.485   6.461   6.251  0.0097  0.5650 -0.0553
17307TIP3   OH273411   3.063   0.212  16.242 -0.5042  0.4042  0.1467
17307TIP3    H173412   2.975   0.207  16.279 -0.5819 -1.4821 -0.2102
17307TIP3    H273413   3.049   0.242  16.152 -0.4336  3.4891  1.0290
17308TIP3   OH273414   4.538   2.518   0.585 -0.5203  0.2333  0.7336
17308TIP3    H173415   4.514   2.452   0.519  0.5016 -2.0123  2.4478
17308TIP3    H273416   4.511   2.601   0.547 -0.8076 -1.0307 -2.1052
17309TIP3   OH273417   5.336   0.306   4.570 -0.5110 -0.3742  0.0714
17309TIP3    H173418   5.351   0.382   4.515 -3.5266  1.1840  1.1879
17309TIP3    H273419   5.382   0.235   4.525  0.1889  1.5244 -2.4614
17310TIP3   OH273420   4.574   2.723  17.504  0.2059 -0.1212  0.1151
17310TIP3    H173421   4.626   2.702  17.581 -0.8450 -0.1261  0.8430
17310TIP3    H273422   4.549   2.638  17.468  1.3661 -0.1356 -0.7307
17311TIP3   OH273423   5.174   3.741  11.978  0.0323  0.8209 -0.4871
17311TIP3    H173424   5.260   3.722  12.015 -0.4128  0.6678  0.5101
17311TIP3    H273425   5.186   3.733  11.884  0.4512 -2.2159 -0.2966
17312TIP3   OH273426   0.355   2.086  16.578  0.0002 -0.3226 -0.4683
17312TIP3    H173427   0.381   2.063  16.667 -0.8768 -0.8723 -0.3403
17312TIP3    H273428   0.364   2.004  16.529 -1.4532 -0.5420 -0.4144
17313TIP3   OH273429   2.550   3.515   2.050 -0.1125 -0.0323 -0.5542
17313TIP3    H173430   2.599   3.434   2.039 -0.9185 -0.6047 -0.0590
17313TIP3    H273431   2.604   3.582   2.008  0.1447 -0.9666 -1.7700
17314TIP3   OH273432   1.269   2.032   3.856 -0.5342  0.1363 -0.2647
17314TIP3    H173433   1.358   2.045   3.823  0.2739 -2.5915  0.5147
17314TIP3    H273434   1.213   2.045   3.780  0.7010  0.3351 -1.1683
17315TIP3   OH273435   4.839   2.042   5.931  0.1437  0.7085 -0.3321
17315TIP3    H173436   4.808   2.131   5.942 -0.6031  0.4719 -0.4562
17315TIP3    H273437   4.838   2.027   5.837 -1.1871  0.0817 -0.2399
17316TIP3   OH273438   2.026   4.523   3.238 -0.0882 -0.3086 -0.2075
17316TIP3    H173439   1.941   4.566   3.235  0.9233  1.7859 -1.6877
17316TIP3    H273440   2.021   4.455   3.172 -0.8880 -0.8434  0.3796
17317TIP3   OH273441   2.989   6.687   3.379 -0.1693  0.7033 -0.3424
17317TIP3    H173442   2.917   6.743   3.408  0.0805  0.6813  0.3274
17317TIP3    H273443   2.999   6.622   3.448  0.9416  1.1138 -0.0994
17318TIP3   OH273444   6.455   3.530   6.308 -0.3744  0.3604 -0.4211
17318TIP3    H173445   6.492   3.609   6.347  0.3772  0.4463 -1.2769
17318TIP3    H273446   6.393   3.497   6.374  0.5255  0.7415  0.6368
17319TIP3   OH273447   0.933   3.719  15.462  0.0138 -0.1473 -0.6005
17319TIP3    H173448   0.949   3.625  15.469 -1.1049 -0.2668  0.8063
17319TIP3    H273449   0.841   3.729  15.483  0.5863  1.4643  1.4256
17320TIP3   OH273450   0.880   3.314   4.264  0.0070 -0.7152  0.4143
17320TIP3    H173451   0.896   3.405   4.240 -1.2247 -0.7054 -0.4616
17320TIP3    H273452   0.875   3.267   4.180  0.0360 -1.4805  0.8306
17321TIP3   OH273453   4.272   4.303  13.281 -0.4243  0.0477  0.1067
17321TIP3    H173454   4.291   4.396  13.265 -0.5674  0.1066  0.2771
17321TIP3    H273455   4.251   4.298  13.374 -0.3503 -0.1675  0.1128
17322TIP3   OH273456   3.806   1.996   5.837 -0.0362 -0.2283 -0.0909
17322TIP3    H173457   3.780   1.985   5.928 -1.7130 -0.4516 -0.5763
17322TIP3    H273458   3.902   1.997   5.840 -0.0580 -0.0848  1.6784
17323TIP3   OH273459   2.274   4.052   5.075 -0.6029  0.9553  0.1637
17323TIP3    H173460   2.245   4.021   4.989 -2.0982  1.0165  0.6134
17323TIP3    H273461   2.274   3.973   5.130  1.0485  0.7806 -0.0374
17324TIP3   OH273462   1.698   5.447  17.218  0.3830 -0.6189  0.4958
17324TIP3    H173463   1.779   5.423  17.172 -0.2867 -0.1362 -1.0063
17324TIP3    H273464   1.656   5.363  17.237  0.8810 -0.8460  0.6068
17325TIP3   OH273465   0.980   3.989   0.252 -0.4701 -0.2102  0.1451
17325TIP3    H173466   0.916   4.044   0.206  0.2733  0.9002  0.3943
17325TIP3    H273467   1.035   4.052   0.300  0.6240 -1.1625  0.1646
17326TIP3   OH273468   5.249   1.087   6.096 -0.1555 -0.2071 -0.3537
17326TIP3    H173469   5.272   1.109   6.186 -0.1526  0.8623 -0.6045
17326TIP3    H273470   5.154   1.077   6.097 -0.3322  1.2976 -0.5244
17327TIP3   OH273471   0.465   0.319   0.720 -0.0485 -0.9818  0.3805
17327TIP3    H173472   0.425   0.358   0.798 -0.1872 -1.4777  0.5649
17327TIP3    H273473   0.439   0.227   0.724  3.0340 -1.9393  1.8261
17328TIP3   OH273474   1.824   1.394  13.766  0.3676 -0.5448  0.2323
17328TIP3    H173475   1.894   1.333  13.787  0.1373 -0.8523  0.1228
17328TIP3    H273476   1.781   1.356  13.689  0.1034 -0.3413  0.2750
17329TIP3   OH273477   0.490   1.300  11.612 -0.3071  0.1297  0.4420
17329TIP3    H173478   0.549   1.226  11.603 -0.0399  0.4155 -0.2465
17329TIP3    H273479   0.437   1.298  11.533  0.3584  1.2340 -0.0562
17330TIP3   OH273480   4.987   0.582  15.337 -0.7285  0.0207  0.6484
17330TIP3    H173481   4.927   0.508  15.325 -1.1051  0.3903  0.1926
17330TIP3    H273482   5.073   0.547  15.314 -0.7687 -0.5004  1.2580
17331TIP3   OH273483   6.390   1.580  16.008  0.2343 -0.1177  0.2065
17331TIP3    H173484   6.401   1.486  15.991  1.0592 -0.0310  0.2288
17331TIP3    H273485   6.312   1.605  15.958 -0.6693 -1.0486  1.0918
17332TIP3   OH273486   0.132   3.561  14.147  0.2075  0.3761  0.4804
17332TIP3    H173487   0.199   3.519  14.202  0.7999 -1.2160 -1.3346
17332TIP3    H273488   0.149   3.527  14.059 -1.3646  2.0022 -0.5223
17333TIP3   OH273489   3.428   5.389  17.568  0.2024 -0.4768 -0.0524
17333TIP3    H173490   3.450   5.305  17.608  0.2941  0.2602  1.5473
17333TIP3    H273491   3.332   5.393  17.573  0.2085 -0.4222  0.0294
17334TIP3   OH273492   3.072   0.591  17.617 -0.4784 -0.5687 -0.5180
17334TIP3    H173493   2.980   0.568  17.624  0.4117 -4.5762  1.1154
17334TIP3    H273494   3.099   0.608  17.707  0.8880 -2.5182 -0.4812
17335TIP3   OH273495   5.830   2.857  15.973 -0.0342 -0.0420 -0.2254
17335TIP3    H173496   5.807   2.839  15.882  2.7800  0.6379 -1.1711
17335TIP3    H273497   5.800   2.947  15.988 -0.4141 -0.1195 -0.5164
17336TIP3   OH273498   1.660   5.011   4.890 -0.1984 -0.7637  0.0389
17336TIP3    H173499   1.568   5.010   4.862  0.1778 -2.3198 -1.3071
17336TIP3    H273500   1.668   5.090   4.943 -2.2350 -0.4234 -0.0783
17337TIP3   OH273501   5.500   2.516  16.621  0.1037  0.2378 -0.0326
17337TIP3    H173502   5.571   2.493  16.681 -1.3551 -0.9099  1.3024
17337TIP3    H273503   5.502   2.612  16.618  0.5162  0.3008  1.4730
17338TIP3   OH273504   3.946   2.007   0.804 -0.2794  0.0398 -0.9340
17338TIP3    H173505   3.985   1.921   0.785  0.2989  0.0177  0.2625
17338TIP3    H273506   3.970   2.061   0.729  0.1120 -0.5946 -1.2790
17339TIP3   OH273507   6.730   0.122   6.388  0.3179 -0.2218  0.1319
17339TIP3    H173508   6.817   0.110   6.427  0.9406  0.5388 -0.9480
17339TIP3    H273509   6.732   0.211   6.353 -1.5170  0.4259  1.5594
17340TIP3   OH273510   1.697   1.792   1.496 -0.1972  0.3771  0.1801
17340TIP3    H173511   1.752   1.836   1.561  0.1919 -2.0674  1.6219
17340TIP3    H273512   1.624   1.756   1.547 -2.5359  2.3962 -1.5018
17341TIP3   OH273513   4.243   0.644  14.218  0.2437 -1.2627  0.6512
17341TIP3    H173514   4.214   0.725  14.260 -1.1268 -0.8854 -0.9098
17341TIP3    H273515   4.251   0.581  14.290  0.6287  0.0558  1.7904
17342TIP3   OH273516   5.666   6.146   5.351 -0.4168 -0.1315 -0.0556
17342TIP3    H173517   5.598   6.109   5.406 -1.0262 -0.3951 -0.9711
17342TIP3    H273518   5.627   6.151   5.264  1.1815 -1.5650 -0.9071
17343TIP3   OH273519   3.220   1.344   1.474  0.1089  1.4273  0.7630
17343TIP3    H173520   3.139   1.372   1.432 -0.6919 -0.8317  0.6679
17343TIP3    H273521   3.194   1.319   1.562 -0.2862 -3.2286 -0.4312
17344TIP3   OH273522   4.616   1.492   1.744  0.8301 -0.1217 -0.0452
17344TIP3    H173523   4.595   1.582   1.769  0.7438  0.1595 -1.0793
17344TIP3    H273524   4.702   1.497   1.703  0.8026 -0.4985 -0.1614
17345TIP3   OH273525   1.062   4.355   5.726 -0.3568  1.5441  0.4501
17345TIP3    H173526   0.975   4.363   5.686 -0.0652  0.8795 -0.3368
17345TIP3    H273527   1.082   4.443   5.758 -0.7441  2.0078 -0.5522
17346TIP3   OH273528   0.037   0.809  12.337 -0.0228  0.0322 -0.0543
17346TIP3    H173529   0.054   0.727  12.291  1.6076  1.5659 -2.3865
17346TIP3    H273530  -0.042   0.844  12.296 -0.6834 -0.2702  0.8997
17347TIP3   OH273531   6.734   5.439   5.507 -0.0401  0.0717  0.7340
17347TIP3    H173532   6.701   5.350   5.498 -0.9639  0.0487  3.6531
17347TIP3    H273533   6.685   5.489   5.442 -1.4766 -1.0629  0.9029
17348TIP3   OH273534   0.491   4.753  14.553  0.2788 -0.1314 -0.1783
17348TIP3    H173535   0.448   4.711  14.479 -0.2320 -1.3151  0.7557
17348TIP3    H273536   0.456   4.708  14.630  2.3881 -0.4215  0.6798
17349TIP3   OH273537   2.516   4.804   3.202 -0.2647 -0.2740  0.0225
17349TIP3    H173538   2.428   4.805   3.241  0.5189 -2.4365  2.1498
17349TIP3    H273539   2.567   4.864   3.256 -0.4166  1.1040 -1.3124
17350TIP3   OH273540   4.207   1.161   3.756  0.2756  0.5667 -0.6763
17350TIP3    H173541   4.235   1.105   3.684 -1.0780 -0.3443 -0.5250
17350TIP3    H273542   4.153   1.104   3.811 -0.4881  1.8185 -0.0883
17351TIP3   OH273543   4.161   0.949   4.303  0.1735 -0.0850 -0.4868
17351TIP3    H173544   4.218   0.945   4.380  0.5340  0.4710 -0.7208
17351TIP3    H273545   4.144   0.857   4.281  0.2677 -0.2492  0.1045
17352TIP3   OH273546   6.583   4.235  11.573  0.5463  0.7367 -0.1363
17352TIP3    H173547   6.581   4.203  11.483 -0.7822  1.0669 -0.2430
17352TIP3    H273548   6.607   4.158  11.625 -0.0331  0.1995 -0.6454
17353TIP3   OH273549   3.409   3.312  16.877 -0.1117  0.2030  0.1425
17353TIP3    H173550   3.410   3.261  16.958 -2.5255  0.1925  0.2536
17353TIP3    H273551   3.453   3.394  16.898 -1.5064  0.5783  1.7764
17354TIP3   OH273552   6.498   3.206  17.312  0.7244  0.5376  0.0553
17354TIP3    H173553   6.502   3.294  17.275 -1.2765  0.1423 -1.2354
17354TIP3    H273554   6.564   3.156  17.263  0.1487  0.7539 -0.9773
17355TIP3   OH273555   1.592   2.911  17.480  0.2153  0.2922 -0.2197
17355TIP3    H173556   1.573   2.837  17.421  0.5909 -0.9053  1.1187
17355TIP3    H273557   1.522   2.908  17.545  1.2154 -0.0283  0.8840
17356TIP3   OH273558   2.993   5.774  12.794 -0.4037  0.1995  0.2994
17356TIP3    H173559   3.014   5.688  12.757 -0.5531 -0.0765  0.8494
17356TIP3    H273560   2.899   5.785  12.777 -0.2484  0.5538 -0.3677
17357TIP3   OH273561   2.361   6.028  12.004  0.1192  0.4573  0.1081
17357TIP3    H173562   2.416   6.024  12.082 -0.2541 -0.7022  0.3313
17357TIP3    H273563   2.399   5.965  11.943 -0.5584  0.1211  0.0127
17358TIP3   OH273564   5.458   2.754  11.045 -0.7065 -0.8580 -0.2186
17358TIP3    H173565   5.442   2.668  11.082  0.0937 -1.9252 -2.2133
17358TIP3    H273566   5.425   2.748  10.955  2.4771 -0.2810 -1.5600
17359TIP3   OH273567   5.595   2.754  13.261  0.7138  0.5732  0.1251
17359TIP3    H173568   5.689   2.775  13.259  1.0368 -0.7543  0.6706
17359TIP3    H273569   5.591   2.661  13.284 -0.6071 -0.4490 -3.5783
17360TIP3   OH273570   2.581   3.010  12.217  0.5898 -0.3624  0.1581
17360TIP3    H173571   2.490   2.980  12.211 -0.0086  0.8216  2.1711
17360TIP3    H273572   2.621   2.982  12.135 -1.9154  0.1722 -1.3715
17361TIP3   OH273573   4.747   2.251   5.494  0.2022 -0.2912  0.5285
17361TIP3    H173574   4.830   2.287   5.527  1.5452 -1.2031 -1.6405
17361TIP3    H273575   4.686   2.325   5.500  1.2149  0.4951  1.9120
17362TIP3   OH273576   2.593   5.571  12.018 -0.0727  0.4534 -0.2945
17362TIP3    H173577   2.663   5.635  12.010 -0.9682  1.6602  1.0933
17362TIP3    H273578   2.608   5.531  12.104  0.2408 -0.9559 -0.9729
17363TIP3   OH273579   3.469   0.451   1.247 -0.7643 -0.1564  0.0494
17363TIP3    H173580   3.523   0.515   1.200 -1.7500  1.0707  0.5190
17363TIP3    H273581   3.526   0.376   1.260  0.6229  0.8497 -0.0371
17364TIP3   OH273582   1.959   0.805  14.601 -0.2366  0.4146  0.4224
17364TIP3    H173583   1.936   0.897  14.617 -0.0980  0.9292 -1.9326
17364TIP3    H273584   1.888   0.772  14.547 -1.3746 -1.5732  2.8991
17365TIP3   OH273585   4.342   5.007   1.485  0.2784 -0.0754 -0.3935
17365TIP3    H173586   4.418   5.002   1.426  1.0961  2.6475  0.2864
17365TIP3    H273587   4.368   4.955   1.561  1.5324  0.8213 -0.1669
17366TIP3   OH273588   6.303   0.504  12.733  0.0833 -1.0204  0.3578
17366TIP3    H173589   6.253   0.583  12.714  1.8719 -0.0807 -0.7176
17366TIP3    H273590   6.243   0.432  12.712 -0.1344  0.0128 -3.2017
17367TIP3   OH273591   1.501   5.195   2.591  0.2627 -0.3678  0.2594
17367TIP3    H173592   1.543   5.211   2.507  2.1342  1.4226  1.4318
17367TIP3    H273593   1.560   5.135   2.636  0.5956  0.5856  1.1559
17368TIP3   OH273594   0.921   6.166  15.245  0.4552  0.1304  0.0622
17368TIP3    H173595   0.874   6.235  15.199  0.7500 -0.5698 -1.3260
17368TIP3    H273596   0.852   6.113  15.285  0.1743  0.4529  0.0122
17369TIP3   OH273597   3.060   4.915  13.080 -0.7542 -0.0570  0.2121
17369TIP3    H173598   3.116   4.847  13.117 -0.2947 -0.2059 -0.7381
17369TIP3    H273599   3.062   4.985  13.145  0.9866  0.1732 -0.0311
17370TIP3   OH273600   3.257   1.204  12.932  1.0059  0.5429 -0.0991
17370TIP3    H173601   3.265   1.139  13.003 -0.6315  0.8645  0.4142
17370TIP3    H273602   3.173   1.185  12.892 -0.0610  3.0332  0.7985
17371TIP3   OH273603   3.271   6.619   4.365 -0.1433 -0.1700  0.3353
17371TIP3    H173604   3.295   6.673   4.289  1.8585  0.7678  1.5740
17371TIP3    H273605   3.182   6.648   4.387  0.0325  0.9927 -0.4008
17372TIP3   OH273606   3.266   0.276  16.960 -0.7223  0.1812  0.1236
17372TIP3    H173607   3.262   0.289  17.054 -0.8318 -2.4539  0.5547
17372TIP3    H273608   3.199   0.334  16.924  0.6038  2.6792  1.4048
17373TIP3   OH273609   3.380   0.411   0.428 -0.3363 -0.5480 -0.4747
17373TIP3    H173610   3.465   0.401   0.470 -0.2579 -1.5078 -0.8521
17373TIP3    H273611   3.393   0.382   0.338 -0.9660 -0.3276 -0.6451
17374TIP3   OH273612   1.340   0.088   2.355  0.4359  0.4861 -0.3232
17374TIP3    H173613   1.310  -0.000   2.331 -1.9923  1.2108 -0.1934
17374TIP3    H273614   1.333   0.138   2.274  0.2938  0.9344 -0.0325
17375TIP3   OH273615   2.751   5.431  12.310  0.1362  0.4895  0.2680
17375TIP3    H173616   2.730   5.360  12.371  1.2662  0.4714  0.6610
17375TIP3    H273617   2.693   5.502  12.336  1.2367  0.8079  2.0279
17376TIP3   OH273618   4.256   5.400   4.589 -0.6218  0.2991 -0.1099
17376TIP3    H173619   4.192   5.382   4.521 -1.4654 -0.3281  0.8202
17376TIP3    H273620   4.274   5.494   4.581 -0.6898  0.2296 -1.1926
17377TIP3   OH273621   6.124   1.308   3.841 -0.1736 -0.2343 -0.6121
17377TIP3    H173622   6.063   1.357   3.785 -3.3840 -0.0606  2.6561
17377TIP3    H273623   6.189   1.372   3.868 -0.5709  0.5305 -1.4242
17378TIP3   OH273624   0.891   5.881   3.830 -0.2867  0.1151  0.7634
17378TIP3    H173625   0.877   5.909   3.740  0.1149 -0.2395  0.5867
17378TIP3    H273626   0.845   5.946   3.883 -1.3391 -0.2158  0.2726
17379TIP3   OH273627   1.680   3.561  13.133 -0.2272  0.7010  0.6522
17379TIP3    H173628   1.631   3.564  13.050 -0.9892  1.9750  1.1176
17379TIP3    H273629   1.635   3.494  13.184  0.4625 -0.3425 -0.0773
17380TIP3   OH273630   3.898   6.338  13.720  0.7625 -0.1244  0.3584
17380TIP3    H173631   3.876   6.310  13.631  0.3354  2.5520 -0.4685
17380TIP3    H273632   3.815   6.365  13.758  1.2747  1.1300  0.6324
17381TIP3   OH273633   3.512   6.163   4.837  0.0203  0.4509 -0.2978
17381TIP3    H173634   3.562   6.089   4.805  1.4826  0.4173  1.8506
17381TIP3    H273635   3.424   6.128   4.855  0.7074 -0.8031  0.7529
17382TIP3   OH273636   4.054   1.988  11.692  0.3064 -0.9530  0.0071
17382TIP3    H173637   4.011   1.963  11.774  0.8147 -0.2504  0.4994
17382TIP3    H273638   4.041   1.913  11.634  0.7279 -1.8349  1.0276
17383TIP3   OH273639   0.823   3.458  15.916  0.1749  0.8040  0.1539
17383TIP3    H173640   0.730   3.451  15.896  0.1550 -2.9768  0.6770
17383TIP3    H273641   0.855   3.528  15.859 -2.6070  0.8437 -1.5629
17384TIP3   OH273642   5.305   1.163  15.370  0.2247  0.0130  0.5703
17384TIP3    H173643   5.217   1.195  15.353 -0.2849 -0.2682  2.4039
17384TIP3    H273644   5.354   1.181  15.290 -0.8627  2.3822  0.3602
17385TIP3   OH273645   3.911   2.516   4.023  0.6215  0.2737  0.3212
17385TIP3    H173646   3.871   2.452   3.964 -0.8676  1.4231  0.0324
17385TIP3    H273647   3.991   2.543   3.977  2.1131 -2.3826  1.1156
17386TIP3   OH273648   4.036   0.201  12.428  0.5287 -0.3451 -0.1116
17386TIP3    H173649   4.121   0.168  12.397  1.4969 -0.6367  2.5860
17386TIP3    H273650   4.041   0.295  12.415  1.3944 -0.3292  0.2885
17387TIP3   OH273651   5.623   4.057   2.542 -0.5611  0.1450 -0.3260
17387TIP3    H173652   5.622   3.974   2.590 -2.1627 -0.1598 -0.8410
17387TIP3    H273653   5.532   4.087   2.543 -0.2844  1.1199 -1.4863
17388TIP3   OH273654   3.564   4.142   3.082  0.2413  0.0762  0.2674
17388TIP3    H173655   3.530   4.059   3.114  1.4207 -0.4866  0.1173
17388TIP3    H273656   3.624   4.118   3.011 -0.1607  1.1200 -0.4615
17389TIP3   OH273657   5.772   3.427   3.726 -0.1225 -0.7479  0.1434
17389TIP3    H173658   5.719   3.377   3.788  0.4098 -1.9105 -0.3061
17389TIP3    H273659   5.710   3.454   3.658 -0.6513  0.2886  0.9999
17390TIP3   OH273660   1.821   4.329  13.121 -0.2761  0.7085 -0.7344
17390TIP3    H173661   1.810   4.268  13.193 -1.2492  0.2943 -1.2133
17390TIP3    H273662   1.815   4.416  13.162  1.3910  0.5077 -0.0149
17391TIP3   OH273663   1.799   2.285   4.462 -0.3426  0.6316 -0.1839
17391TIP3    H173664   1.712   2.247   4.470  0.5181 -1.5143 -0.4619
17391TIP3    H273665   1.818   2.319   4.550 -0.2212 -1.7981  0.8167
17392TIP3   OH273666   0.714   3.289   3.382 -0.0029 -0.2269 -0.3242
17392TIP3    H173667   0.651   3.334   3.438  0.3515  0.2872 -0.3391
17392TIP3    H273668   0.786   3.266   3.440 -0.7219 -1.9189 -0.0265
17393TIP3   OH273669   0.450   5.589   2.762 -0.6805 -0.3503 -0.2699
17393TIP3    H173670   0.529   5.605   2.710  0.0437 -0.9796  0.5995
17393TIP3    H273671   0.483   5.565   2.849 -1.8641  1.4188  0.7304
17394TIP3   OH273672   3.991   2.272   5.833  0.3210  0.5442 -0.1335
17394TIP3    H173673   4.040   2.348   5.802  1.0605  0.5545  1.0335
17394TIP3    H273674   4.024   2.199   5.780 -0.6742  1.0638 -1.5393
17395TIP3   OH273675   2.895   6.674  13.366  0.4400 -0.6655 -0.1288
17395TIP3    H173676   2.837   6.749  13.351  1.2670  0.0069 -0.1043
17395TIP3    H273677   2.866   6.608  13.303  0.3983  0.1005 -0.9401
17396TIP3   OH273678   2.034   2.715   3.289 -0.1529  0.3116  0.8165
17396TIP3    H173679   2.097   2.739   3.357  1.5106  0.3784 -0.6729
17396TIP3    H273680   1.966   2.782   3.293 -0.2893  0.1143  2.6094
17397TIP3   OH273681   2.339   1.625   3.655  0.0462  0.5571 -0.5663
17397TIP3    H173682   2.405   1.600   3.719  0.0307 -0.0027 -0.7638
17397TIP3    H273683   2.258   1.586   3.687 -0.0669  0.7303 -0.6403
17398TIP3   OH273684   0.424   0.199  10.876 -0.3547  0.1443 -0.2126
17398TIP3    H173685   0.497   0.222  10.933 -0.2289 -0.9911  0.1047
17398TIP3    H273686   0.457   0.214  10.787  0.0685  0.1720 -0.0525
17399TIP3   OH273687   5.597   5.420   4.337 -0.3175  0.1932  0.1104
17399TIP3    H173688   5.631   5.348   4.390  1.4171  1.7448  1.2180
17399TIP3    H273689   5.548   5.377   4.267 -0.5658 -2.0014  1.5375
17400TIP3   OH273690   2.372   3.168  11.502  0.2929  0.0269  0.2535
17400TIP3    H173691   2.395   3.257  11.474 -0.1118 -0.5737 -2.2844
17400TIP3    H273692   2.456   3.126  11.519  0.8277 -0.2635 -2.6408
17401TIP3   OH273693   6.149   0.005  11.405 -0.7068 -0.5722  0.5153
17401TIP3    H173694   6.106   0.041  11.483 -0.3590 -0.0441  0.4716
17401TIP3    H273695   6.237  -0.020  11.436 -0.7839 -0.9593  0.4358
17402TIP3   OH273696   6.355   5.665  14.041 -0.0471  0.0478 -0.6078
17402TIP3    H173697   6.429   5.702  14.090  0.4364 -2.8492  1.1244
17402TIP3    H273698   6.391   5.586  14.000 -1.7151 -0.3193 -1.4412
17403TIP3   OH273699   2.934   5.198   4.151 -0.4129  0.4404  0.2445
17403TIP3    H173700   2.851   5.186   4.105  0.4562  1.2990 -1.7077
17403TIP3    H273701   2.973   5.274   4.108  1.8753 -0.6104  0.3236
17404TIP3   OH273702   0.935   2.512   5.940  0.0021 -0.0799 -0.5592
17404TIP3    H173703   0.911   2.424   5.968 -0.0360 -0.2316 -1.0499
17404TIP3    H273704   1.029   2.507   5.922  0.0680  0.0697 -0.2692
17405TIP3   OH273705   6.410   3.834  11.613  0.0284 -0.1798 -0.5458
17405TIP3    H173706   6.395   3.759  11.671  1.6155  0.6325  1.0007
17405TIP3    H273707   6.431   3.794  11.529 -3.0269 -1.3770 -0.8642
17406TIP3   OH273708   0.191   6.694   4.642  0.1008 -0.1191  0.4849
17406TIP3    H173709   0.224   6.778   4.612  1.4967 -0.7261  0.2518
17406TIP3    H273710   0.236   6.629   4.588 -1.3604 -1.0125  0.2846
17407TIP3   OH273711   3.923   1.700   3.312  0.0609  0.0842 -0.4444
17407TIP3    H173712   3.830   1.722   3.324  0.0181  1.1647 -2.3853
17407TIP3    H273713   3.932   1.614   3.352 -1.1272  1.1075  2.3078
17408TIP3   OH273714   6.288   2.703  14.830 -0.2041  0.3381  0.1156
17408TIP3    H173715   6.338   2.780  14.802  1.5784 -0.3692  1.2324
17408TIP3    H273716   6.330   2.629  14.785 -0.7286 -0.2052  0.5000
17409TIP3   OH273717   4.263   3.041   2.170 -0.0419  0.2866  0.1620
17409TIP3    H173718   4.278   3.135   2.165 -1.4304  0.5050 -0.0714
17409TIP3    H273719   4.176   3.028   2.132 -0.4980 -0.9050  1.5258
17410TIP3   OH273720   3.015   3.163  15.755 -0.0327 -0.3874 -0.1115
17410TIP3    H173721   3.092   3.207  15.792 -0.6318  0.9546 -0.3910
17410TIP3    H273722   2.978   3.228  15.695 -1.5161 -0.9270  0.1894
17411TIP3   OH273723   2.586   0.052   0.451 -0.1697 -0.0230 -0.2070
17411TIP3    H173724   2.502   0.081   0.416 -0.1098 -0.3483 -0.6281
17411TIP3    H273725   2.589  -0.042   0.432  0.0290 -0.1258  0.3371
17412TIP3   OH273726   2.801   2.535   3.338 -0.6265  0.3648 -0.0491
17412TIP3    H173727   2.815   2.524   3.432 -0.4052 -1.6778 -0.2803
17412TIP3    H273728   2.713   2.573   3.332 -0.3085  1.3359  0.9841
17413TIP3   OH273729   3.779   5.343  13.777  0.6062  0.4636  0.6654
17413TIP3    H173730   3.709   5.327  13.713  2.1423 -1.1357 -0.7444
17413TIP3    H273731   3.782   5.438  13.787 -0.8337  0.6434 -0.3032
17414TIP3   OH273732   4.956   2.647   3.185  0.1879  0.2089  0.3696
17414TIP3    H173733   4.862   2.657   3.174 -0.1546 -3.4424 -1.4230
17414TIP3    H273734   4.994   2.695   3.112 -0.5393 -1.0666 -0.8869
17415TIP3   OH273735   5.460   3.953   1.310 -0.2917  0.1004  0.3888
17415TIP3    H173736   5.394   3.894   1.345 -0.1334 -0.0575  0.4246
17415TIP3    H273737   5.527   3.957   1.378 -1.0921  1.6776  1.1478
17416TIP3   OH273738   2.103   6.115   0.403  0.0476 -0.1390 -0.0360
17416TIP3    H173739   2.174   6.058   0.374 -0.3042  0.0529 -1.3369
17416TIP3    H273740   2.109   6.113   0.499  1.9379  0.0375 -0.0959
17417TIP3   OH273741   0.161   4.635  15.461  0.3682 -0.3930  0.6635
17417TIP3    H173742   0.191   4.644  15.371  0.9563  0.8176  0.9718
17417TIP3    H273743   0.115   4.717  15.480 -0.3715 -0.9208  1.2521
17418TIP3   OH273744   4.009   3.881   4.483 -0.2917 -0.3113  0.2945
17418TIP3    H173745   4.016   3.786   4.492 -0.0454 -0.4439 -1.0506
17418TIP3    H273746   3.976   3.911   4.567  1.4331 -1.3938  1.4245
17419TIP3   OH273747   4.875   2.285  17.261  0.4357  0.0024 -0.0243
17419TIP3    H173748   4.922   2.203  17.248  1.3606  0.6410 -0.8001
17419TIP3    H273749   4.785   2.265  17.235  0.4956 -0.9321  0.4298
17420TIP3   OH273750   6.489   1.573   0.665  0.2549  0.1878 -0.5705
17420TIP3    H173751   6.401   1.607   0.653 -0.0585 -0.3456  0.1571
17420TIP3    H273752   6.480   1.503   0.730  1.0376 -0.6278 -1.3085
17421TIP3   OH273753   1.951   4.109  16.797 -0.4842  0.0403 -0.0048
17421TIP3    H173754   1.876   4.168  16.785  0.8084  1.7361 -0.2653
17421TIP3    H273755   1.999   4.147  16.871  0.2271 -0.8831  0.0193
17422TIP3   OH273756   2.592   3.101  14.033  0.2260  0.4664  0.1032
17422TIP3    H173757   2.597   3.008  14.055  1.4028  1.1140  3.1549
17422TIP3    H273758   2.499   3.117  14.016  0.1009 -1.3562 -1.1962
17423TIP3   OH273759   4.861   3.003   6.838 -0.6842  0.1988 -0.4378
17423TIP3    H173760   4.884   3.055   6.762  0.9151  0.1921  0.0038
17423TIP3    H273761   4.865   3.064   6.912 -1.3106  0.0058 -0.2382
17424TIP3   OH273762   0.264   0.136   4.008 -0.0483 -0.0904 -0.5891
17424TIP3    H173763   0.253   0.230   4.023  2.7401  0.0541  1.6194
17424TIP3    H273764   0.344   0.129   3.957 -0.0401 -1.2607 -0.4531
17425TIP3   OH273765   0.475   2.159   3.112  0.0308  0.0363 -0.0669
17425TIP3    H173766   0.453   2.102   3.186 -1.2593  0.5924 -0.0006
17425TIP3    H273767   0.526   2.103   3.054  0.9898 -0.4332  1.1920
17426TIP3   OH273768   6.629   2.230   6.095  0.0442  0.2195 -0.3725
17426TIP3    H173769   6.586   2.261   6.016 -0.8993  0.9831  0.4145
17426TIP3    H273770   6.560   2.186   6.145  0.5145  0.1644  0.2420
17427TIP3   OH273771   2.745   4.241   0.860  0.7365 -0.0679  0.5513
17427TIP3    H173772   2.724   4.304   0.791  1.4027  0.1837  0.5762
17427TIP3    H273773   2.727   4.289   0.941  2.0487  0.3897  0.5872
17428TIP3   OH273774   3.339   0.857  10.680 -0.5104 -0.6493  0.0577
17428TIP3    H173775   3.359   0.951  10.691 -0.8742 -0.6744  0.9993
17428TIP3    H273776   3.412   0.813  10.723 -0.9126 -0.7793  0.6156
17429TIP3   OH273777   4.762   4.931  15.937  0.4590 -0.2373  0.6707
17429TIP3    H173778   4.791   4.976  16.017  0.1502  0.0116  0.6450
17429TIP3    H273779   4.735   4.844  15.967 -1.6823  0.5489  1.2109
17430TIP3   OH273780   0.041   1.936   6.462 -0.0159 -0.0210  0.0233
17430TIP3    H173781   0.122   1.968   6.503  1.0424  0.3396 -2.2304
17430TIP3    H273782   0.056   1.843   6.449  0.2322  0.1203 -0.7623
17431TIP3   OH273783   2.753   5.006  15.388  0.0421  0.0327 -0.4190
17431TIP3    H173784   2.800   5.065  15.329 -1.5841  0.8932 -0.9170
17431TIP3    H273785   2.682   4.971  15.334 -0.2695 -0.7464  0.4815
17432TIP3   OH273786   3.625   4.769  14.967 -0.3259 -0.3552  0.0456
17432TIP3    H173787   3.608   4.761  14.873 -0.4081  0.5098 -0.0246
17432TIP3    H273788   3.718   4.748  14.976 -0.7654 -2.4912  0.0730
17433TIP3   OH273789   0.713   1.622  15.054  0.1745 -0.5430 -0.1945
17433TIP3    H173790   0.768   1.689  15.014 -0.0092 -0.6146 -0.5704
17433TIP3    H273791   0.774   1.563  15.097  0.3133  0.1775  0.6426
17434TIP3   OH273792   1.206   5.413  16.113 -0.3876 -0.0711 -0.2555
17434TIP3    H173793   1.281   5.362  16.083 -0.7817 -0.7900 -0.0368
17434TIP3    H273794   1.210   5.408  16.209 -0.1089  0.7886 -0.2075
17435TIP3   OH273795   5.043   5.154   4.067  0.6152 -0.1148 -0.1163
17435TIP3    H173796   4.961   5.105   4.074  0.3246 -0.0498 -2.4243
17435TIP3    H273797   5.084   5.120   3.988  2.4664  0.4297  0.5629
17436TIP3   OH273798   0.833   4.867   3.084 -0.1352 -0.5815  0.3317
17436TIP3    H173799   0.823   4.931   3.154 -2.0588 -0.9290  0.4090
17436TIP3    H273800   0.871   4.790   3.127  0.0517 -0.2959  0.6818
17437TIP3   OH273801   5.411   0.688  13.940 -0.1714  0.1052 -0.3406
17437TIP3    H173802   5.320   0.713  13.955  0.1376  1.0061  0.0700
17437TIP3    H273803   5.448   0.675  14.027  0.0709 -0.3540 -0.5061
17438TIP3   OH273804   5.503   6.165   6.190 -0.2750  0.0708  0.6046
17438TIP3    H173805   5.563   6.239   6.178  1.2166 -1.2457 -0.5573
17438TIP3    H273806   5.494   6.157   6.285  0.6920  0.8659  0.7828
17439TIP3   OH273807   6.463   4.044  16.960  0.6754  0.3584 -0.2450
17439TIP3    H173808   6.468   4.066  16.867  0.5477  0.4525 -0.2298
17439TIP3    H273809   6.549   4.068  16.995  0.5039  0.9524 -0.2067
17440TIP3   OH273810   1.563   5.179  13.410  0.2765 -0.1384 -0.4594
17440TIP3    H173811   1.575   5.095  13.455 -2.1734  0.2870  1.1868
17440TIP3    H273812   1.528   5.155  13.324 -2.8967 -0.9191  0.8772
17441TIP3   OH273813   0.474   3.298   2.421  0.2299 -0.0592 -0.7617
17441TIP3    H173814   0.471   3.373   2.361  0.9416  0.7879  0.2116
17441TIP3    H273815   0.410   3.319   2.488  0.9961  0.0775 -0.0586
17442TIP3   OH273816   3.409   6.618   4.927  0.7003 -0.6312  0.0658
17442TIP3    H173817   3.346   6.624   4.855 -1.0676 -2.8127  1.2818
17442TIP3    H273818   3.494   6.611   4.884  0.0142  0.8573 -1.6962
17443TIP3   OH273819   1.136   6.222   0.239  0.2046 -0.4280 -0.5526
17443TIP3    H173820   1.133   6.262   0.326  0.0655  2.7284 -1.8525
17443TIP3    H273821   1.222   6.245   0.205  0.1880 -1.4660 -1.3394
17444TIP3   OH273822   0.038   0.558   2.579 -0.3053 -0.0602  0.3806
17444TIP3    H173823   0.072   0.542   2.491  1.4507  0.6198  0.8955
17444TIP3    H273824  -0.038   0.501   2.585  0.7209 -1.6781 -0.8627
17445TIP3   OH273825   1.036   6.316  13.452  0.2390  0.1385  0.2617
17445TIP3    H173826   1.042   6.371  13.374 -1.1374  0.6530  0.4957
17445TIP3    H273827   1.064   6.373  13.524  0.6894 -0.0717  0.2540
17446TIP3   OH273828   2.606   3.341   5.182 -0.0582  0.7307 -0.1281
17446TIP3    H173829   2.535   3.363   5.243  1.5554  0.6392  1.9045
17446TIP3    H273830   2.624   3.422   5.134 -0.2247  1.3066  0.7700
17447TIP3   OH273831   2.357   6.126   1.369  0.5294 -0.2791  0.0446
17447TIP3    H173832   2.433   6.185   1.370  0.2551  0.2485 -2.6121
17447TIP3    H273833   2.372   6.069   1.294 -1.6283 -0.2440 -0.4876
17448TIP3   OH273834   5.143   1.692   5.780 -0.1686 -0.0053  0.6437
17448TIP3    H173835   5.208   1.695   5.851 -1.1004  1.8540  1.5116
17448TIP3    H273836   5.058   1.693   5.825 -0.7859  0.9819 -0.4659
17449TIP3   OH273837   1.174   5.631   5.423 -0.0617  0.4087  0.1679
17449TIP3    H173838   1.247   5.577   5.392 -0.0852 -0.3919  1.4293
17449TIP3    H273839   1.173   5.706   5.364 -0.1292 -1.0291 -1.7454
17450TIP3   OH273840   6.549   4.859  12.311 -0.3649  0.2120 -0.3395
17450TIP3    H173841   6.577   4.941  12.353 -2.5595  0.5215  0.6652
17450TIP3    H273842   6.616   4.795  12.336  0.5905  1.3558  0.1298
17451TIP3   OH273843   2.484   0.571  12.104 -0.2919  0.0318  0.8321
17451TIP3    H173844   2.436   0.526  12.035  0.7427 -0.5434  0.4609
17451TIP3    H273845   2.576   0.554  12.084  0.0569  0.7067  1.7825
17452TIP3   OH273846   3.216   4.588   5.767  0.0205 -0.5588  0.2816
17452TIP3    H173847   3.185   4.677   5.787  0.1967 -0.3346 -0.4049
17452TIP3    H273848   3.153   4.530   5.810  1.8654 -0.1558  3.8555
17453TIP3   OH273849   0.350   3.110  13.686  0.4402  0.0064  0.0297
17453TIP3    H173850   0.263   3.150  13.684  1.1971  1.7991  0.7536
17453TIP3    H273851   0.380   3.115  13.595  0.0529 -0.0045 -0.1004
17454TIP3   OH273852   4.018   2.959   1.988 -0.1852  0.3219 -0.0730
17454TIP3    H173853   3.942   2.901   1.998  0.0695  0.0616  0.3346
17454TIP3    H273854   4.030   2.965   1.893 -0.1901 -0.3218 -0.1178
17455TIP3   OH273855   1.977   0.622   1.099 -0.3347 -0.1696 -0.1794
17455TIP3    H173856   1.971   0.710   1.061 -1.1951  0.0513  0.4508
17455TIP3    H273857   1.984   0.637   1.194  0.5570 -0.7549 -0.1368
17456TIP3   OH273858   4.704   1.580  14.394 -0.0379  0.3775  0.2240
17456TIP3    H173859   4.704   1.485  14.406  1.6622  0.4191  0.6927
17456TIP3    H273860   4.741   1.615  14.475 -1.3594  1.5162  0.3870
17457TIP3   OH273861   4.333   3.915   2.927 -0.0309 -0.3231 -0.3659
17457TIP3    H173862   4.317   3.920   3.022 -0.3675  1.0997 -0.4720
17457TIP3    H273863   4.405   3.977   2.912  0.5310 -1.0964 -0.9537
17458TIP3   OH273864   5.961   4.318   3.888  0.3139 -0.5771 -0.9422
17458TIP3    H173865   6.014   4.395   3.865 -0.0631  0.1514  0.5071
17458TIP3    H273866   5.876   4.334   3.849  0.2230 -0.2156 -0.6068
17459TIP3   OH273867   2.372   2.950   6.075 -0.2775  0.4272  0.2683
17459TIP3    H173868   2.334   2.977   5.992 -1.6152 -1.8379  0.0534
17459TIP3    H273869   2.365   2.854   6.074  1.3976  0.2147  2.1952
17460TIP3   OH273870   5.526   5.516   0.461 -0.1671  0.3337  0.0510
17460TIP3    H173871   5.591   5.517   0.531 -0.6020 -0.7546  0.4925
17460TIP3    H273872   5.557   5.449   0.400 -0.8775 -0.2329  0.2915
17461TIP3   OH273873   1.780   5.018   1.782 -0.2403 -0.5719  0.0031
17461TIP3    H173874   1.762   4.981   1.868  1.3902 -2.2845 -0.3193
17461TIP3    H273875   1.832   4.950   1.737 -0.5489  0.5066 -2.1088
17462TIP3   OH273876   0.727   3.001  17.296  0.1746 -0.1043 -0.1351
17462TIP3    H173877   0.637   3.035  17.293 -0.8397 -2.2605  2.1545
17462TIP3    H273878   0.738   2.958  17.211 -1.6047 -1.1878  0.1186
17463TIP3   OH273879   2.456   5.347   4.320  0.4873  0.2677  0.0942
17463TIP3    H173880   2.404   5.280   4.365  2.0175 -1.3651 -0.4471
17463TIP3    H273881   2.428   5.341   4.229  0.5253  0.4755  0.0686
17464TIP3   OH273882   1.262   4.815  10.826 -0.2195  0.5196 -0.6722
17464TIP3    H173883   1.213   4.741  10.790 -0.4247  1.1445 -1.7117
17464TIP3    H273884   1.351   4.782  10.834 -0.3738  0.0509 -0.8137
17465TIP3   OH273885   1.589   5.482   2.764  0.2855  0.0865 -0.4320
17465TIP3    H173886   1.609   5.433   2.843  0.2050 -0.3804 -0.7008
17465TIP3    H273887   1.497   5.462   2.746  0.6838 -0.9608 -1.4460
17466TIP3   OH273888   3.254   4.272  14.355  0.2823 -0.4949 -0.2340
17466TIP3    H173889   3.286   4.201  14.412  0.3662 -0.5549 -0.3558
17466TIP3    H273890   3.164   4.248  14.335  0.6286 -1.0912 -1.1074
17467TIP3   OH273891   6.201   6.426   5.356 -0.5817 -0.4322 -0.1742
17467TIP3    H173892   6.125   6.404   5.302 -2.7240  2.1898  1.5125
17467TIP3    H273893   6.220   6.517   5.335  1.3896 -0.6627  0.3459
17468TIP3   OH273894   5.743   0.397   2.161  0.3221  0.2078  0.4450
17468TIP3    H173895   5.789   0.328   2.113 -0.5288 -0.3649  0.4197
17468TIP3    H273896   5.812   0.448   2.203  0.9889 -0.4060  0.1141
17469TIP3   OH273897   4.785   6.359   6.719 -1.2732 -0.1088 -0.2810
17469TIP3    H173898   4.791   6.440   6.769 -1.4470  0.5763 -1.3468
17469TIP3    H273899   4.693   6.333   6.725 -1.0244 -0.8250  0.9328
17470TIP3   OH273900   0.231   5.635  15.736 -0.0075 -0.3186 -0.6097
17470TIP3    H173901   0.235   5.601  15.825  0.1114 -0.2708 -0.5968
17470TIP3    H273902   0.148   5.684  15.732  0.4279  0.4564 -0.2495
17471TIP3   OH273903   0.853   1.147  15.652 -0.6836  0.5710 -0.1347
17471TIP3    H173904   0.783   1.148  15.717 -1.8212 -0.3717 -1.3088
17471TIP3    H273905   0.919   1.089  15.690 -1.6097 -0.4756 -0.0636
17472TIP3   OH273906   4.165   6.510  17.377 -0.6994  0.5212 -0.1507
17472TIP3    H173907   4.119   6.428  17.398 -1.7344  1.2788  0.6540
17472TIP3    H273908   4.133   6.572  17.443  2.0250  0.9189  0.9353
17473TIP3   OH273909   3.677   3.890  16.891  0.1717  0.5723 -0.3740
17473TIP3    H173910   3.615   3.934  16.833 -0.6747  0.3045  0.3023
17473TIP3    H273911   3.692   3.952  16.963  0.5879  0.5791 -0.4606
17474TIP3   OH273912   0.479   1.200   0.110  0.3767 -0.6267 -0.2517
17474TIP3    H173913   0.553   1.256   0.132  0.9699 -1.8985  1.1233
17474TIP3    H273914   0.402   1.254   0.126  0.9000 -0.4635  1.9416
17475TIP3   OH273915   2.480   3.128   6.240 -0.3735 -0.0784 -0.1452
17475TIP3    H173916   2.469   3.090   6.152 -0.6270 -0.9104  0.2355
17475TIP3    H273917   2.390   3.141   6.271 -0.2842 -0.5520  0.3144
17476TIP3   OH273918   3.892   4.208   6.255  0.3089  0.3284 -0.2087
17476TIP3    H173919   3.915   4.301   6.257 -0.9804  0.8477 -3.5989
17476TIP3    H273920   3.959   4.167   6.202  1.1125 -0.8666  1.6136
17477TIP3   OH273921   1.907   5.029   0.737  0.5260  0.8797  0.3983
17477TIP3    H173922   1.853   5.093   0.691  0.3338  0.8373  0.5612
17477TIP3    H273923   1.923   4.959   0.673 -1.1689 -0.0123  0.8831
17478TIP3   OH273924   6.367   0.230   2.889  0.7945 -0.0316  0.3366
17478TIP3    H173925   6.271   0.233   2.888  0.8108  0.9784  0.8224
17478TIP3    H273926   6.388   0.144   2.852 -0.3227 -0.7131  1.1860
17479TIP3   OH273927   4.780   0.762  11.477  0.2554 -0.2248  0.1246
17479TIP3    H173928   4.794   0.668  11.489 -1.3561 -0.4544  0.3404
17479TIP3    H273929   4.818   0.802  11.555 -1.5567 -0.9538  1.4542
17480TIP3   OH273930   3.565   5.174   2.926  0.0827  0.0369  0.0638
17480TIP3    H173931   3.522   5.090   2.941  0.9764 -0.5734 -0.6973
17480TIP3    H273932   3.652   5.164   2.966 -0.2869  1.1044  1.2064
17481TIP3   OH273933   6.286   6.234   2.113  0.2084  0.3322 -0.1454
17481TIP3    H173934   6.202   6.189   2.115  0.5020 -0.5263 -2.7374
17481TIP3    H273935   6.278   6.299   2.042  1.7929  0.0061 -0.6837
17482TIP3   OH273936   2.262   2.133   2.868 -0.0012  0.3097 -0.0685
17482TIP3    H173937   2.257   2.208   2.927  1.5080  0.4453 -0.0584
17482TIP3    H273938   2.356   2.112   2.864 -0.4906 -2.9870  1.6860
17483TIP3   OH273939   0.911   2.193   5.096  0.6770 -0.3387 -0.2069
17483TIP3    H173940   0.835   2.139   5.117  1.1037 -0.3850  1.3706
17483TIP3    H273941   0.882   2.283   5.114  0.6375 -0.2361 -0.7566
17484TIP3   OH273942   5.015   5.807  13.990  0.0661 -0.0969 -0.3050
17484TIP3    H173943   4.963   5.769  13.920 -0.5144 -0.4360  0.2998
17484TIP3    H273944   4.951   5.837  14.054  0.5163  1.6041 -0.5946
17485TIP3   OH273945   0.665   3.612  16.933 -0.4272 -0.2896  0.4591
17485TIP3    H173946   0.625   3.696  16.954  0.6195  0.7178 -1.2691
17485TIP3    H273947   0.638   3.594  16.843  0.3217 -1.2115  0.3994
17486TIP3   OH273948   4.133   3.115  17.073 -0.4056  0.1764  0.1185
17486TIP3    H173949   4.172   3.154  16.994 -1.3122  3.0024  0.9436
17486TIP3    H273950   4.201   3.059  17.109  1.6470  2.2280 -0.3651
17487TIP3   OH273951   6.430   5.379  17.224 -0.1305  1.0207 -0.0376
17487TIP3    H173952   6.413   5.373  17.130 -2.9955  0.1418  0.4395
17487TIP3    H273953   6.418   5.290  17.256  2.0495  1.0607  1.0482
17488TIP3   OH273954   1.766   2.789  13.653  0.5181  0.3363  0.1724
17488TIP3    H173955   1.828   2.811  13.583  1.3481  0.5372  0.9488
17488TIP3    H273956   1.760   2.869  13.706  0.8115 -0.1681  0.9902
17489TIP3   OH273957   5.988   1.587   4.326 -0.0275 -0.2942 -0.6606
17489TIP3    H173958   5.951   1.501   4.346 -1.1694  0.4365  0.5217
17489TIP3    H273959   5.917   1.634   4.283  0.6672  0.0048 -1.5137
17490TIP3   OH273960   4.449   5.982   0.589 -0.0389 -0.0590  0.6090
17490TIP3    H173961   4.463   5.889   0.569  1.0970  0.6718 -2.6636
17490TIP3    H273962   4.535   6.014   0.616 -0.3239  0.1657  1.2761
17491TIP3   OH273963   1.273   5.562  17.030 -0.0462 -0.1671  0.6355
17491TIP3    H173964   1.350   5.606  17.064 -0.4270  0.4642  0.6957
17491TIP3    H273965   1.214   5.633  17.005 -0.1964 -0.6302 -0.3673
17492TIP3   OH273966   0.471   2.019   2.656 -0.3251 -0.8802  0.1017
17492TIP3    H173967   0.466   2.111   2.684 -0.6836 -0.7519 -0.3600
17492TIP3    H273968   0.564   1.998   2.658 -0.1707 -0.2771 -0.5070
17493TIP3   OH273969   0.510   3.546   2.650  0.6495 -0.2844 -1.1228
17493TIP3    H173970   0.482   3.581   2.565  1.8892  1.7881 -0.7368
17493TIP3    H273971   0.589   3.496   2.630 -0.6825 -2.3590 -1.5546
17494TIP3   OH273972   1.227   5.189   0.120 -0.0222 -0.1823 -0.2294
17494TIP3    H173973   1.235   5.098   0.090  2.7555 -0.0189 -0.2984
17494TIP3    H273974   1.197   5.237   0.043  2.0360 -0.5550 -1.3291
17495TIP3   OH273975   3.924   1.671  16.127  0.1398 -0.7618 -0.0796
17495TIP3    H173976   3.995   1.622  16.085  0.8267 -2.0240  2.3358
17495TIP3    H273977   3.885   1.608  16.189 -3.3971 -0.2489 -1.5333
17496TIP3   OH273978   5.486   0.169  11.578 -0.5863 -0.3572 -0.3742
17496TIP3    H173979   5.476   0.250  11.627 -0.6089 -0.7361  0.2458
17496TIP3    H273980   5.400   0.127  11.582 -0.6151 -0.3511 -0.8167
17497TIP3   OH273981   5.136   2.026   1.790 -0.8857 -0.0885  0.5376
17497TIP3    H173982   5.160   2.034   1.697  1.0112 -0.1888  0.9879
17497TIP3    H273983   5.074   2.098   1.804  0.8949  1.6979 -0.1924
17498TIP3   OH273984   0.185   3.542  13.630 -0.0618  0.0637  0.0359
17498TIP3    H173985   0.266   3.499  13.603  0.4661  1.0538  0.0245
17498TIP3    H273986   0.126   3.532  13.555 -0.0302 -0.8311  0.1195
17499TIP3   OH273987   1.861   2.697  15.749  0.3732  0.3338  0.4401
17499TIP3    H173988   1.879   2.780  15.791  0.0135  1.1010 -0.8573
17499TIP3    H273989   1.819   2.644  15.816  0.0821  1.3995  1.1143
17500TIP3   OH273990   3.127   4.862  16.501  0.2346  0.3746 -0.0701
17500TIP3    H173991   3.061   4.867  16.570 -1.0073  1.3071 -1.2699
17500TIP3    H273992   3.138   4.952  16.472 -0.8154 -0.1872 -2.4519
17501TIP3   OH273993   4.980   5.471   4.635  0.3788 -0.1203  0.3799
17501TIP3    H173994   4.894   5.448   4.600  0.8308 -0.3913 -0.5880
17501TIP3    H273995   4.967   5.556   4.676 -0.2416  0.0801 -0.2078
17502TIP3   OH273996   5.177   6.022   2.688  0.3307  0.1610  0.4154
17502TIP3    H173997   5.165   5.935   2.727 -0.1127  0.5897  1.2565
17502TIP3    H273998   5.183   6.005   2.594 -1.8434 -0.5978  0.3566
17503TIP3   OH273999   0.710   1.975   1.570 -0.2831 -0.6898 -0.3976
17503TIP3    H174000   0.705   1.880   1.572 -0.0767 -0.6946  0.5710
17503TIP3    H274001   0.728   2.000   1.661 -1.9223  0.3613 -0.3033
17504TIP3   OH274002   5.095   3.718   6.182 -0.4609  0.2117  0.0056
17504TIP3    H174003   5.084   3.756   6.270  1.6703  0.4800  0.2141
17504TIP3    H274004   5.147   3.783   6.134 -0.1238 -0.6978 -0.8965
17505TIP3   OH274005   4.621   3.302   1.040 -0.3159  0.4974 -0.2584
17505TIP3    H174006   4.570   3.221   1.037  0.9782 -0.3599  0.1791
17505TIP3    H274007   4.703   3.281   0.996  1.3532  0.5522  2.5355
17506TIP3   OH274008   3.465   1.672  13.102  0.1555 -0.2745 -0.0543
17506TIP3    H174009   3.408   1.644  13.031  0.8871  0.5324 -0.9877
17506TIP3    H274010   3.460   1.602  13.166 -1.1766 -0.6282 -0.5172
17507TIP3   OH274011   4.809   4.049   3.211 -0.0079  0.4226  0.1651
17507TIP3    H174012   4.840   4.020   3.297 -0.2931  0.6102  0.3322
17507TIP3    H274013   4.880   4.027   3.152 -0.5227 -1.3350  0.1494
17508TIP3   OH274014   3.486   1.750  16.022  0.0395 -0.6264  0.3547
17508TIP3    H174015   3.417   1.813  16.002 -0.3109 -0.3148  2.3172
17508TIP3    H274016   3.552   1.801  16.069  0.8821 -1.2520 -0.1264
17509TIP3   OH274017   4.055   2.439   2.709 -0.4252  0.2688  0.8309
17509TIP3    H174018   4.098   2.359   2.740  2.0862  1.9713  2.0128
17509TIP3    H274019   4.037   2.489   2.788 -0.7514  1.4736  0.0239
17510TIP3   OH274020   0.801   0.774   4.934  0.1890  0.6396 -0.5469
17510TIP3    H174021   0.894   0.779   4.953  0.1790 -1.5667  0.2746
17510TIP3    H274022   0.765   0.856   4.969  1.7430  1.3941 -0.6423
17511TIP3   OH274023   0.370   5.257   2.162  0.6937 -0.4599  0.7532
17511TIP3    H174024   0.440   5.298   2.110  0.1739  0.2778  0.6193
17511TIP3    H274025   0.396   5.165   2.169  0.3387 -0.7802 -1.5496
17512TIP3   OH274026   4.500   4.040  15.047  0.3139 -0.5310  0.0610
17512TIP3    H174027   4.465   4.113  15.097  0.1230  0.9758 -2.1257
17512TIP3    H274028   4.512   3.970  15.111 -1.7388  0.6182  1.8130
17513TIP3   OH274029   0.152   3.594   3.652  0.1629  0.0941  0.5378
17513TIP3    H174030   0.060   3.599   3.628 -0.5338 -1.8167  2.4561
17513TIP3    H274031   0.181   3.685   3.658 -1.6497  0.7255  0.1472
17514TIP3   OH274032   1.144   6.623  16.524 -0.6383 -0.3171 -0.0280
17514TIP3    H174033   1.163   6.548  16.581 -1.6763 -0.0368  0.7072
17514TIP3    H274034   1.207   6.690  16.551 -0.1472 -0.6858 -0.2371
17515TIP3   OH274035   1.686   4.929  12.907  0.2155  0.0226 -0.2972
17515TIP3    H174036   1.654   4.992  12.843  1.8528  0.8162 -0.3627
17515TIP3    H274037   1.619   4.860  12.908 -2.1064  2.1339  0.4178
17516TIP3   OH274038   6.566   3.396   0.080 -0.0803  0.6249 -0.4372
17516TIP3    H174039   6.510   3.425   0.152  1.1005  1.8767  0.0208
17516TIP3    H274040   6.644   3.451   0.086  1.4770 -1.4061 -0.6964
17517TIP3   OH274041   0.534   4.934   5.879 -0.2469  0.4844 -0.6103
17517TIP3    H174042   0.451   4.973   5.906 -0.5100  0.2352 -1.0563
17517TIP3    H274043   0.593   4.948   5.953 -0.9730 -0.2240  0.1153
17518TIP3   OH274044   6.299   4.800  13.056 -0.4820 -0.5235 -0.0842
17518TIP3    H174045   6.264   4.872  13.004  0.4098 -0.6910 -0.9324
17518TIP3    H274046   6.300   4.725  12.997 -0.3927 -0.9698  0.4706
17519TIP3   OH274047   0.572   1.189  15.513  0.0989 -0.1209  0.0934
17519TIP3    H174048   0.647   1.184  15.572  0.4385 -0.8770 -0.3863
17519TIP3    H274049   0.522   1.265  15.544  1.2017  0.5664  0.2326
17520TIP3   OH274050   3.766   5.681   1.893 -0.6513 -0.2651 -0.8728
17520TIP3    H174051   3.812   5.737   1.830  1.0028 -0.5640  0.0214
17520TIP3    H274052   3.684   5.660   1.849 -1.0873  2.3271 -1.5058
17521TIP3   OH274053   1.129   5.150  17.532  0.7577 -0.0752 -0.5981
17521TIP3    H174054   1.074   5.081  17.495  0.1000  0.2725 -0.2994
17521TIP3    H274055   1.129   5.219  17.466  1.9521 -0.6123 -1.1796
17522TIP3   OH274056   5.899   2.112  15.500  0.1364 -0.1562  0.3950
17522TIP3    H174057   5.854   2.055  15.438  1.9640 -0.4072 -0.7684
17522TIP3    H274058   5.966   2.057  15.540  0.5819  0.6471  0.7821
17523TIP3   OH274059   1.524   3.697  14.638  0.2844 -0.3206 -0.1313
17523TIP3    H174060   1.468   3.622  14.658 -0.9321  0.4355 -0.5880
17523TIP3    H274061   1.604   3.682  14.690 -0.1845 -1.6039  0.2564
17524TIP3   OH274062   2.391   5.094   2.105  0.3048 -0.1682  0.0487
17524TIP3    H174063   2.327   5.140   2.050 -1.5988 -0.5301  1.8697
17524TIP3    H274064   2.467   5.084   2.048 -0.9458  0.9740 -1.9631
17525TIP3   OH274065   5.490   1.495  12.316  0.1045 -0.1610  0.5992
17525TIP3    H174066   5.441   1.570  12.351 -1.4172  0.4697 -2.5148
17525TIP3    H274067   5.580   1.508  12.347 -0.4231  2.2112  1.3068
17526TIP3   OH274068   2.744   1.881   2.178 -0.0292 -0.8645  0.2681
17526TIP3    H174069   2.831   1.913   2.154 -1.4960  4.7964  1.1230
17526TIP3    H274070   2.711   1.838   2.099  2.0567  0.5450 -1.4768
17527TIP3   OH274071   4.796   0.322  17.327  0.0158 -0.2487 -0.1949
17527TIP3    H174072   4.775   0.229  17.321 -0.6133 -0.1636  0.5449
17527TIP3    H274073   4.806   0.339  17.420  0.6015  0.3330 -0.3542
17528TIP3   OH274074   1.348   1.248   1.326 -0.4961  0.2410 -0.2016
17528TIP3    H174075   1.255   1.234   1.304 -0.3496  0.1958 -0.8220
17528TIP3    H274076   1.394   1.183   1.273 -0.1341  0.0079  0.3975
17529TIP3   OH274077   6.209   6.221  16.936  0.0626  0.2043 -0.0085
17529TIP3    H174078   6.190   6.128  16.927  0.7172  0.2231 -2.1394
17529TIP3    H274079   6.170   6.261  16.858  2.9888  1.1348 -1.1294
17530TIP3   OH274080   0.797   1.888  17.640  0.2893 -0.5281  0.3186
17530TIP3    H174081   0.798   1.825  17.712  0.1308 -1.6550 -0.6339
17530TIP3    H274082   0.799   1.834  17.561  2.2781  0.6929 -0.5416
17531TIP3   OH274083   3.665   2.704   4.948  0.8102 -0.4697  0.1048
17531TIP3    H174084   3.697   2.726   4.860  0.7830 -0.5565  0.0738
17531TIP3    H274085   3.614   2.781   4.975  0.5725 -0.5649 -0.0726
17532TIP3   OH274086   6.055   4.303   0.865 -0.3390 -0.2999  0.2077
17532TIP3    H174087   6.021   4.277   0.779  3.6434  2.2254 -2.4305
17532TIP3    H274088   6.091   4.390   0.852  1.0880 -0.0413  4.3443
17533TIP3   OH274089   1.061   4.434   4.408 -0.2737  0.3348 -0.7828
17533TIP3    H174090   1.069   4.488   4.330 -0.2154  0.1451 -0.9104
17533TIP3    H274091   0.985   4.378   4.391 -1.3038  1.4488  0.0085
17534TIP3   OH274092   4.353   4.490   2.294  0.2849  0.2824  0.1499
17534TIP3    H174093   4.390   4.573   2.324  2.5987 -0.6599  0.0934
17534TIP3    H274094   4.398   4.423   2.346  0.8102 -1.1051 -1.9335
17535TIP3   OH274095   1.897   4.629  14.168 -0.3348  0.1540 -0.2228
17535TIP3    H174096   1.813   4.666  14.140  0.0281  1.2996  0.1460
17535TIP3    H274097   1.962   4.680  14.121  0.2097  0.4801  0.8663
17536TIP3   OH274098   4.350   3.907   4.681  0.4753  0.0325 -0.3408
17536TIP3    H174099   4.439   3.878   4.701  0.2217  0.0009  0.8606
17536TIP3    H274100   4.321   3.848   4.611  1.6767  0.5930 -1.3475
17537TIP3   OH274101   5.986   5.816   4.891  0.6205 -0.2399 -0.1260
17537TIP3    H174102   5.956   5.877   4.958 -0.6759  0.6843 -1.4885
17537TIP3    H274103   5.906   5.772   4.862  1.2880 -1.2539 -0.4768
17538TIP3   OH274104   3.326   2.702  12.622 -0.1471  0.4524 -0.1543
17538TIP3    H174105   3.320   2.611  12.653 -0.6038  0.8277  0.8756
17538TIP3    H274106   3.385   2.744  12.684 -0.5048  1.0364 -0.2087
17539TIP3   OH274107   3.471   1.299  15.415 -0.0721  0.1056  0.0615
17539TIP3    H174108   3.443   1.312  15.325 -0.9552  1.9563  0.5562
17539TIP3    H274109   3.391   1.273  15.462  0.7688 -3.0475  0.0001
17540TIP3   OH274110   2.405   2.223  14.080 -0.0579  0.5102  0.3537
17540TIP3    H174111   2.497   2.241  14.058 -0.2686  1.1808 -0.0290
17540TIP3    H274112   2.389   2.275  14.159 -0.0256  0.1550  0.5937
17541TIP3   OH274113   6.149   6.328  14.139 -0.0249 -0.7140  0.0557
17541TIP3    H174114   6.098   6.292  14.212 -0.4425  0.5600  0.4219
17541TIP3    H274115   6.093   6.397  14.103  1.6975  1.2396  0.9462
17542TIP3   OH274116   6.537   4.867   1.966 -0.0165  0.0074  0.2244
17542TIP3    H174117   6.561   4.960   1.955 -0.5014  0.0550 -0.5146
17542TIP3    H274118   6.537   4.832   1.877  1.8278 -1.1429  0.6202
17543TIP3   OH274119   0.304   1.351  13.969  0.4221 -0.2190  0.7950
17543TIP3    H174120   0.245   1.282  13.940  1.3722 -2.0149  2.8328
17543TIP3    H274121   0.361   1.368  13.893 -1.3429  0.1162 -0.5119
17544TIP3   OH274122   4.732   3.128   3.264 -0.3896 -0.0890 -0.8672
17544TIP3    H174123   4.663   3.159   3.323 -0.9085 -0.0540 -1.4816
17544TIP3    H274124   4.764   3.208   3.220  1.4822  0.2087  0.8796
17545TIP3   OH274125   5.190   5.516   3.104  0.1453  0.1052  1.0127
17545TIP3    H174126   5.126   5.522   3.033 -0.4469  0.6408  1.5719
17545TIP3    H274127   5.272   5.492   3.061 -0.1379  0.6965  0.1202
17546TIP3   OH274128   5.871   3.630  14.321 -0.0355 -0.5392  0.0814
17546TIP3    H174129   5.820   3.552  14.343  0.8491 -1.5458 -1.2835
17546TIP3    H274130   5.962   3.606  14.341  0.3349 -0.1350 -1.0150
17547TIP3   OH274131   1.456   4.762   2.590  0.6290  0.1059  0.3382
17547TIP3    H174132   1.491   4.684   2.548  0.3297  0.5530 -0.7662
17547TIP3    H274133   1.374   4.779   2.546  0.9541  1.3651  0.1772
17548TIP3   OH274134   6.141   5.144   5.278 -0.2181 -0.0380  0.3253
17548TIP3    H174135   6.128   5.189   5.194  1.2596  1.1413  0.6909
17548TIP3    H274136   6.106   5.205   5.343 -1.2309 -0.8887  0.6128
17549TIP3   OH274137   5.047   5.754   6.115 -0.3882  0.2530 -0.8560
17549TIP3    H174138   5.086   5.666   6.109 -0.6180 -0.1334  2.1472
17549TIP3    H274139   4.998   5.763   6.033 -0.9104 -2.7063 -0.9882
17550TIP3   OH274140   3.259   4.707   3.487  0.1709  0.2266 -0.1349
17550TIP3    H174141   3.270   4.795   3.449 -2.1114  0.5211 -0.2641
17550TIP3    H274142   3.211   4.722   3.568 -1.7505 -0.9904 -0.9901
17551TIP3   OH274143   5.127   0.252   3.118 -0.2643 -0.1317  0.2083
17551TIP3    H174144   5.079   0.281   3.196  0.5750  0.0306  0.6799
17551TIP3    H274145   5.069   0.190   3.076 -0.1177 -1.4546  1.8406
17552TIP3   OH274146   6.220   3.367  17.081  0.3027  0.6157  0.0938
17552TIP3    H174147   6.251   3.276  17.084  0.7744  0.7927  0.8560
17552TIP3    H274148   6.209   3.386  16.988  1.4169  0.1951 -0.1341
17553TIP3   OH274149   2.696   6.265  13.707 -0.6695  0.0490 -0.0031
17553TIP3    H174150   2.723   6.345  13.661 -1.5613  1.0139  1.0853
17553TIP3    H274151   2.763   6.201  13.685  1.4346  1.7747  1.0388
17554TIP3   OH274152   0.768   1.016  13.399  0.0114  0.3056  0.7827
17554TIP3    H174153   0.714   0.998  13.476  1.6475 -2.2117  1.4751
17554TIP3    H274154   0.768   0.934  13.350  4.3746 -0.4472  1.6587
17555TIP3   OH274155   4.899   3.922   4.660  0.1543  0.1392 -0.0945
17555TIP3    H174156   4.962   3.865   4.615  0.5718  0.0076  0.6394
17555TIP3    H274157   4.949   4.002   4.679  0.0344  0.1148  0.3132
17556TIP3   OH274158   2.151   6.546   4.242  0.0994  0.4400 -0.0461
17556TIP3    H174159   2.072   6.497   4.264  0.2747  0.6614  1.1571
17556TIP3    H274160   2.202   6.487   4.187 -1.4110  0.7256 -1.8613
17557TIP3   OH274161   4.589   3.409  14.254 -0.0651 -0.7704 -0.4994
17557TIP3    H174162   4.599   3.486  14.199 -0.3655  0.0321  0.5419
17557TIP3    H274163   4.496   3.386  14.246 -0.2217 -0.3375  0.0867
17558TIP3   OH274164   0.481   1.156  12.367 -0.0729 -0.3065 -1.2123
17558TIP3    H174165   0.414   1.092  12.343 -0.5211 -0.4935  0.3693
17558TIP3    H274166   0.437   1.212  12.432  0.6577  0.9091 -1.7373
17559TIP3   OH274167   6.500   0.361   4.400  0.0283 -0.0298 -0.5317
17559TIP3    H174168   6.537   0.304   4.333  2.1633  0.3878  0.2334
17559TIP3    H274169   6.538   0.447   4.384 -1.8890  0.8554 -0.6665
17560TIP3   OH274170   3.920   3.612   4.026  0.6016 -0.1268 -0.4681
17560TIP3    H174171   3.969   3.683   3.985  0.2010 -0.1319 -0.9605
17560TIP3    H274172   3.832   3.619   3.989  0.1543  0.0252  0.5698
17561TIP3   OH274173   2.329   4.462  14.390  0.1346  0.2827  0.3281
17561TIP3    H174174   2.249   4.515  14.394 -0.3875 -0.4868  0.1095
17561TIP3    H274175   2.387   4.503  14.455  0.1515  1.7797 -0.5780
17562TIP3   OH274176   4.084   3.901   5.390  0.1495  0.0345  0.2600
17562TIP3    H174177   4.012   3.852   5.349 -0.4004  1.6737 -0.8291
17562TIP3    H274178   4.159   3.886   5.332 -0.6153  2.3116 -1.4355
17563TIP3   OH274179   2.496   0.372   4.946 -0.5629 -0.0938  0.0818
17563TIP3    H174180   2.540   0.457   4.953 -0.7600 -0.0406  0.7066
17563TIP3    H274181   2.567   0.308   4.956 -0.4706 -0.0067 -0.0048
17564TIP3   OH274182   3.161   5.412  14.452 -0.2891  0.5785 -0.4571
17564TIP3    H174183   3.200   5.499  14.461  1.6895 -0.3318  0.1426
17564TIP3    H274184   3.155   5.379  14.541 -0.3624 -0.1961 -0.7438
17565TIP3   OH274185   1.192   4.999  14.161  0.1967  0.3965  0.1931
17565TIP3    H174186   1.183   4.959  14.247 -0.2858  0.5066  0.1966
17565TIP3    H274187   1.145   4.940  14.102 -0.5523  0.9641  0.2040
17566TIP3   OH274188   3.158   5.342  15.605 -0.3081  0.8898  0.1552
17566TIP3    H174189   3.146   5.292  15.685  0.4413 -1.8919 -1.3399
17566TIP3    H274190   3.246   5.380  15.613  0.5226 -0.8885 -0.0361
17567TIP3   OH274191   4.481   1.681   1.472  0.4359  0.1414 -0.5731
17567TIP3    H174192   4.515   1.766   1.500  1.5831 -0.0751 -1.2419
17567TIP3    H274193   4.435   1.699   1.389  1.1162  0.0366 -0.9773
17568TIP3   OH274194   4.309   0.361   3.303 -0.1582  0.3476 -0.3868
17568TIP3    H174195   4.265   0.439   3.270  1.2237  0.6695 -1.5436
17568TIP3    H274196   4.260   0.288   3.266 -0.8049  0.6692 -0.1778
17569TIP3   OH274197   3.500   4.415  14.423 -0.4720 -0.2236  0.6130
17569TIP3    H174198   3.546   4.357  14.484 -1.3918 -1.3688  0.2485
17569TIP3    H274199   3.409   4.385  14.426 -1.4445  2.5540  1.9855
17570TIP3   OH274200   1.539   0.796   2.187 -0.0921  0.1445 -0.1828
17570TIP3    H174201   1.485   0.818   2.264 -0.8322 -1.2064 -0.2900
17570TIP3    H274202   1.494   0.722   2.147 -0.4992  1.6491 -2.7270
17571TIP3   OH274203   3.496   3.541  14.331 -0.0792 -0.6937  0.0796
17571TIP3    H174204   3.525   3.525  14.421 -1.3103  0.1497  0.6498
17571TIP3    H274205   3.573   3.577  14.287  0.6161 -1.3684  0.7015
17572TIP3   OH274206   3.764   5.416   0.680 -0.0529 -0.4285  0.3797
17572TIP3    H174207   3.739   5.466   0.758 -0.5358  0.2891 -0.2188
17572TIP3    H274208   3.825   5.350   0.712 -1.7168 -1.3996  1.7116
17573TIP3   OH274209   6.161   2.904  12.816  0.0982  0.1083 -0.3935
17573TIP3    H174210   6.100   2.841  12.778 -1.5880  0.6293  1.2978
17573TIP3    H274211   6.120   2.989  12.801  0.9631  0.5747 -0.1899
17574TIP3   OH274212   5.400   3.560  11.033  0.5095 -0.0290 -0.0870
17574TIP3    H174213   5.483   3.528  11.068  0.0431 -0.9826  0.1718
17574TIP3    H274214   5.335   3.499  11.067 -0.4691  1.4087  0.7294
17575TIP3   OH274215   5.598   2.616   6.628 -0.6494 -0.5602 -0.5024
17575TIP3    H174216   5.634   2.600   6.716 -2.2108 -1.4025  0.0101
17575TIP3    H274217   5.662   2.675   6.587  0.6994 -1.0631  0.7774
17576TIP3   OH274218   4.028   0.879   2.003  0.1720 -0.4227  0.2783
17576TIP3    H174219   4.102   0.891   1.943 -2.1265  0.1937 -2.6550
17576TIP3    H274220   4.016   0.965   2.043  1.3037 -0.6593  1.1824
17577TIP3   OH274221   6.499   0.375   1.673  0.1822  0.3471 -0.6843
17577TIP3    H174222   6.500   0.383   1.768  0.4420  0.9999 -0.7364
17577TIP3    H274223   6.408   0.390   1.649 -0.3772 -2.1670 -0.3700
17578TIP3   OH274224   4.970   2.915  13.703 -0.0825  0.1991  0.7600
17578TIP3    H174225   4.900   2.965  13.746 -0.4472 -0.9146  1.5262
17578TIP3    H274226   4.925   2.837  13.668  0.7238 -0.4186  1.0714
17579TIP3   OH274227   5.313   5.153  11.198  0.1617  0.7398 -0.2601
17579TIP3    H174228   5.341   5.236  11.236  2.4281  0.2377 -0.7011
17579TIP3    H274229   5.344   5.156  11.108  1.1183 -0.9202 -0.0353
17580TIP3   OH274230   6.720   5.748  16.539  0.3272  0.2134 -0.0324
17580TIP3    H174231   6.672   5.819  16.582 -0.9319 -0.5073 -0.2121
17580TIP3    H274232   6.663   5.720  16.468  2.0372  0.8691 -1.7405
17581TIP3   OH274233   5.113   1.004   1.331 -0.1332 -0.6640 -0.5209
17581TIP3    H174234   5.172   1.078   1.317  0.9970 -0.8440  2.6605
17581TIP3    H274235   5.168   0.926   1.319 -0.9301 -1.0007 -2.2411
17582TIP3   OH274236   0.768   4.036   4.100  0.1098 -0.1249 -0.1555
17582TIP3    H174237   0.700   4.031   4.166  0.9317 -0.5291  0.6870
17582TIP3    H274238   0.802   3.947   4.092  4.6886  0.8067  4.0198
17583TIP3   OH274239   0.418   4.209   2.476  0.2190 -0.4284 -0.1072
17583TIP3    H174240   0.432   4.290   2.525 -0.2795 -0.2731 -0.2143
17583TIP3    H274241   0.383   4.148   2.540  1.5650 -0.8848  0.2116
17584TIP3   OH274242   5.533   3.809  14.318 -0.0759  0.1954  0.7506
17584TIP3    H174243   5.552   3.853  14.401  0.5959 -1.4366  1.5109
17584TIP3    H274244   5.600   3.840  14.258  1.4708 -1.0483  1.7645
17585TIP3   OH274245   3.609   2.354  13.430  0.2774 -0.3746 -0.3764
17585TIP3    H174246   3.549   2.359  13.356  0.0785 -1.1074 -0.2700
17585TIP3    H274247   3.696   2.342  13.390  0.5791  1.9042 -0.5891
17586TIP3   OH274248   0.975   1.322   3.762 -0.3202  0.5679  0.0264
17586TIP3    H174249   0.900   1.349   3.709 -1.2394 -0.2147  0.9107
17586TIP3    H274250   1.050   1.368   3.722 -1.1288  0.7329 -1.3500
17587TIP3   OH274251   1.719   4.188   3.000  0.1847 -0.6138 -0.6678
17587TIP3    H174252   1.775   4.258   3.033  2.4386 -2.4494 -0.3516
17587TIP3    H274253   1.649   4.180   3.065  0.1767  0.9651 -0.4562
17588TIP3   OH274254   2.577   1.933  14.956 -0.3910 -0.0536 -0.2693
17588TIP3    H174255   2.539   1.927  15.044 -0.5707 -0.7175 -0.3926
17588TIP3    H274256   2.671   1.921  14.970 -0.3356  0.5130 -0.0959
17589TIP3   OH274257   5.245   0.367  15.035  0.7171 -0.0584  0.4209
17589TIP3    H174258   5.251   0.434  15.103  0.4997  0.4196 -0.0322
17589TIP3    H274259   5.335   0.359  15.002  0.6988  0.1808  0.3118
17590TIP3   OH274260   4.330   0.765  13.148 -0.1826 -0.0961  0.5946
17590TIP3    H174261   4.379   0.758  13.230  0.0625  0.5907  0.5100
17590TIP3    H274262   4.397   0.759  13.079 -0.0854  1.6620  0.4883
17591TIP3   OH274263   1.354   0.176   3.763 -0.2514 -0.6864  0.1131
17591TIP3    H174264   1.343   0.231   3.685 -0.4542  0.1197  0.6980
17591TIP3    H274265   1.298   0.217   3.829 -0.7736 -1.8681  0.4311
17592TIP3   OH274266   6.667   2.090  17.325  0.2848  0.3312 -0.1017
17592TIP3    H174267   6.697   2.150  17.257 -3.7973  1.3485 -1.3366
17592TIP3    H274268   6.664   2.144  17.404  1.8916  0.0862  0.1569
17593TIP3   OH274269   3.910   5.925  11.518  0.1714 -0.0813 -0.0524
17593TIP3    H174270   4.004   5.943  11.506  0.7739 -2.0289  1.1823
17593TIP3    H274271   3.888   5.865  11.446  0.0442 -0.1903  0.0780
17594TIP3   OH274272   5.879   2.150  13.371  0.2013  0.2280 -0.0014
17594TIP3    H174273   5.798   2.139  13.422  0.7042 -0.6220  0.6347
17594TIP3    H274274   5.930   2.215  13.419  0.6572 -0.5424  0.5620
17595TIP3   OH274275   1.916   2.703   1.239 -0.4867  0.4485 -0.3592
17595TIP3    H174276   1.921   2.720   1.333 -1.7030 -1.7758  0.1832
17595TIP3    H274277   1.822   2.704   1.219 -0.2536  0.6402 -1.5175
17596TIP3   OH274278   5.772   0.515  15.607 -0.5336  0.6152  0.3197
17596TIP3    H174279   5.693   0.537  15.656 -0.2963 -0.0602  1.0197
17596TIP3    H274280   5.841   0.569  15.646 -0.2527 -0.2483  1.0515
17597TIP3   OH274281   4.227   6.215   0.926 -0.0114 -0.4956  0.2910
17597TIP3    H174282   4.249   6.133   0.882  1.6748 -0.2693  0.6420
17597TIP3    H274283   4.146   6.195   0.974 -0.9724 -1.2102 -1.5481
17598TIP3   OH274284   4.311   4.558   3.462 -0.4171  0.7672  0.0096
17598TIP3    H174285   4.233   4.613   3.458  0.1970  1.6362 -0.3756
17598TIP3    H274286   4.374   4.609   3.513 -0.3546 -0.2604  0.9890
17599TIP3   OH274287   1.853   3.678  17.359 -0.0625 -0.3761  0.1681
17599TIP3    H174288   1.837   3.594  17.317  1.6281 -0.5471 -0.2177
17599TIP3    H274289   1.937   3.667  17.404 -0.0049  0.9757  0.4415
17600TIP3   OH274290   1.108   4.837  15.069  0.0534 -0.1535 -0.0052
17600TIP3    H174291   1.159   4.756  15.063 -0.5735 -0.4647 -1.6608
17600TIP3    H274292   1.044   4.830  14.998 -0.4421  1.5074  0.2436
17601TIP3   OH274293   0.550   2.675  15.295 -0.1187  0.6807  0.5684
17601TIP3    H174294   0.603   2.665  15.373  1.6555 -0.2733 -0.6930
17601TIP3    H274295   0.480   2.610  15.304 -1.6672  2.4953  2.6216
17602TIP3   OH274296   6.290   6.014   1.789 -0.3531 -1.0135  0.3870
17602TIP3    H174297   6.370   6.054   1.754  0.5980 -1.5732  1.8213
17602TIP3    H274298   6.219   6.065   1.751  0.7663  2.4921  2.5166
17603TIP3   OH274299   5.078   6.383  12.781 -0.6147 -0.3206 -0.6977
17603TIP3    H174300   5.082   6.324  12.706 -2.0816 -0.9279 -0.3272
17603TIP3    H274301   5.143   6.349  12.843 -0.0809 -0.3811 -1.2886
17604TIP3   OH274302   5.013   1.844  13.224  0.0952 -0.1325 -0.6405
17604TIP3    H174303   5.061   1.927  13.224  0.7899 -0.5263 -0.7293
17604TIP3    H274304   5.021   1.812  13.135  0.2095 -0.5042 -0.4976
17605TIP3   OH274305   4.757   4.242   6.430 -0.8868  0.2597  0.3787
17605TIP3    H174306   4.698   4.189   6.377  0.4664  0.1479 -1.0834
17605TIP3    H274307   4.844   4.206   6.412 -0.3586  0.1038  2.8287
17606TIP3   OH274308   2.745   5.714   6.031  0.0847 -0.1758  0.1133
17606TIP3    H174309   2.768   5.795   5.986  3.3327 -1.4040 -0.6632
17606TIP3    H274310   2.715   5.655   5.962 -0.9233 -0.1394  0.4926
17607TIP3   OH274311   6.207   5.657   5.032  0.1494  0.6888 -0.1490
17607TIP3    H174312   6.246   5.653   4.944 -0.6834 -1.0099 -0.4975
17607TIP3    H274313   6.114   5.671   5.016  0.0874  1.0421  0.5048
17608TIP3   OH274314   5.845   3.843  12.005 -1.0932 -0.0006 -0.4723
17608TIP3    H174315   5.889   3.767  11.968  0.9512 -0.4541  2.5318
17608TIP3    H274316   5.914   3.909  12.013 -1.9246  0.7956  0.4572
17609TIP3   OH274317   4.800   2.551  13.286 -0.7674  0.7223  0.4469
17609TIP3    H174318   4.761   2.536  13.372  1.0234  0.5705  1.2738
17609TIP3    H274319   4.749   2.623  13.249 -2.2556  0.0688  1.1634
17610TIP3   OH274320   1.987   4.131   2.521  0.0384 -0.2463 -0.4045
17610TIP3    H174321   2.043   4.059   2.552  1.9680  1.1204 -0.5268
17610TIP3    H274322   2.006   4.137   2.427 -0.2758  0.2652 -0.4354
17611TIP3   OH274323   4.249   6.232  13.681 -0.0007 -0.1016 -0.0023
17611TIP3    H174324   4.197   6.171  13.734  1.7879 -2.6905 -0.9804
17611TIP3    H274325   4.339   6.218  13.712  0.5209  1.8074 -0.5767
17612TIP3   OH274326   5.647   6.621   4.474 -0.2015  0.1288 -0.1790
17612TIP3    H174327   5.598   6.699   4.503  1.7124  0.5500  2.2771
17612TIP3    H274328   5.711   6.606   4.543  0.7988 -2.5204 -1.5319
17613TIP3   OH274329   4.590   1.988  14.594  0.0094  0.0319  0.2187
17613TIP3    H174330   4.625   2.051  14.658 -2.6440  2.7617 -0.7490
17613TIP3    H274331   4.659   1.979  14.529  1.2475  0.2984  1.4331
17614TIP3   OH274332   0.598   0.054   4.627 -0.4047  0.7562 -0.1947
17614TIP3    H174333   0.634  -0.029   4.595  1.0693  0.9798  0.7597
17614TIP3    H274334   0.644   0.121   4.576 -0.8122  1.0245 -0.2173
17615TIP3   OH274335   0.174   1.178  11.422  0.6806 -0.0797 -0.4240
17615TIP3    H174336   0.228   1.254  11.399 -1.4904  1.6169 -0.2802
17615TIP3    H274337   0.116   1.166  11.347  2.2172 -2.8967 -1.2838
17616TIP3   OH274338   1.373   4.256  16.887 -0.2619  0.2467 -0.8276
17616TIP3    H174339   1.355   4.162  16.889 -0.8674  0.3640  0.3991
17616TIP3    H274340   1.410   4.272  16.800 -0.8558 -0.9948 -1.3303
17617TIP3   OH274341   1.396   5.203   6.111 -0.1666  0.3758  0.3518
17617TIP3    H174342   1.355   5.283   6.144  0.1485  0.8075 -0.2908
17617TIP3    H274343   1.443   5.230   6.032  1.1578 -0.1408  0.9272
17618TIP3   OH274344   2.319   3.292   5.074 -0.2558 -0.1043 -0.4530
17618TIP3    H174345   2.316   3.215   5.131  0.4467  0.0845 -0.1492
17618TIP3    H274346   2.264   3.269   5.000  0.7925 -1.3252 -0.8819
17619TIP3   OH274347   2.918   5.348   6.604 -0.0117 -0.2154 -0.5364
17619TIP3    H174348   2.905   5.425   6.549 -1.3042 -0.4812 -0.6395
17619TIP3    H274349   3.013   5.340   6.612  0.3878 -1.2230 -4.2991
17620TIP3   OH274350   2.957   3.487  15.228  0.3949  0.4109  0.3862
17620TIP3    H174351   3.001   3.550  15.172  1.5633 -0.3133  0.4496
17620TIP3    H274352   2.997   3.403  15.205 -1.4054 -0.3892  0.0164
17621TIP3   OH274353   6.433   3.796  15.136  0.0372 -0.1090  0.3839
17621TIP3    H174354   6.441   3.701  15.133 -1.8914 -0.3010 -0.9257
17621TIP3    H274355   6.481   3.826  15.059  0.6287 -0.0113  0.7859
17622TIP3   OH274356   3.472   5.780   1.039  0.2752  0.0304 -0.7550
17622TIP3    H174357   3.462   5.738   1.125  0.8945  0.3217 -0.5322
17622TIP3    H274358   3.548   5.838   1.050  0.1946  0.2660 -1.4241
17623TIP3   OH274359   5.452   0.442   5.621  0.2033  0.0733 -0.5109
17623TIP3    H174360   5.534   0.492   5.622  1.0645 -1.1207 -2.8751
17623TIP3    H274361   5.474   0.361   5.666  0.3369 -0.2374 -1.1258
17624TIP3   OH274362   2.303   5.734   4.032  0.0625 -0.0561  0.5234
17624TIP3    H174363   2.347   5.692   4.106  1.4485  1.8259  0.8630
17624TIP3    H274364   2.235   5.788   4.072  1.8693  2.2503  0.6771
17625TIP3   OH274365   6.343   5.789   1.592 -0.5074  0.0583 -0.0638
17625TIP3    H174366   6.325   5.857   1.657  0.3128  0.7343 -0.5255
17625TIP3    H274367   6.257   5.753   1.571 -0.6822 -1.1274  2.3642
17626TIP3   OH274368   4.295   3.164   5.988  0.7155  0.0274  0.5825
17626TIP3    H174369   4.330   3.124   5.908  2.2637  1.3061  0.5725
17626TIP3    H274370   4.200   3.154   5.980  0.8791 -0.5457 -1.0403
17627TIP3   OH274371   0.666   4.861  16.922 -0.0166 -0.1256  0.2686
17627TIP3    H174372   0.689   4.792  16.984  1.5759 -0.4764 -0.6810
17627TIP3    H274373   0.740   4.922  16.926  0.8670 -0.9265 -2.3708
17628TIP3   OH274374   0.104   0.454  16.729  0.4521  0.9653  0.3109
17628TIP3    H174375   0.092   0.418  16.817  0.8472  0.4432  0.1616
17628TIP3    H274376   0.114   0.548  16.742  0.0517  0.9460  0.7801
17629TIP3   OH274377   3.944   0.256  15.260 -0.1540 -0.4780  0.0420
17629TIP3    H174378   4.028   0.300  15.270 -0.3174 -0.3432  0.9623
17629TIP3    H274379   3.879   0.325  15.271 -0.3897 -0.7246  0.2343
17630TIP3   OH274380   4.462   5.406  16.218  0.8050  0.2234 -0.1932
17630TIP3    H174381   4.398   5.466  16.258  0.4230 -1.0395  1.2171
17630TIP3    H274382   4.520   5.381  16.291 -0.0159 -2.3138 -0.2991
17631TIP3   OH274383   1.029   0.608  11.926 -0.1146  0.1330  0.1991
17631TIP3    H174384   1.103   0.572  11.877 -2.1886 -1.7532 -1.8468
17631TIP3    H274385   1.068   0.646  12.005  2.9193 -1.3657 -0.4161
17632TIP3   OH274386   3.561   5.777  16.635 -0.1928  0.2107 -0.1080
17632TIP3    H174387   3.522   5.856  16.598  0.0806  0.9606  1.1387
17632TIP3    H274388   3.538   5.708  16.573 -2.3899  0.8459 -0.1059
17633TIP3   OH274389   1.432   3.402   4.865 -0.5001  0.2945 -0.6251
17633TIP3    H174390   1.433   3.476   4.805  0.0051  0.8332  0.0502
17633TIP3    H274391   1.350   3.356   4.844 -0.2540  0.3762 -1.8331
17634TIP3   OH274392   5.255   4.489  17.432  0.1614 -0.1593 -0.1651
17634TIP3    H174393   5.168   4.527  17.422  0.6632  0.8870 -0.8351
17634TIP3    H274394   5.241   4.395  17.430 -1.2259 -0.0866  2.2386
17635TIP3   OH274395   0.659   5.056   3.883  0.2230 -0.0821 -0.3125
17635TIP3    H174396   0.573   5.084   3.914 -0.9155  0.0966 -3.2809
17635TIP3    H274397   0.656   4.960   3.885  1.0665 -0.1323  2.1368
17636TIP3   OH274398   1.564   6.666  12.067  0.4888  0.1636  0.1790
17636TIP3    H174399   1.581   6.595  12.004  1.5066  0.2393  0.3436
17636TIP3    H274400   1.541   6.741  12.013  0.7218  0.0561 -0.0704
17637TIP3   OH274401   3.313   6.424  16.779  0.4048 -0.2943  0.0805
17637TIP3    H174402   3.383   6.477  16.818  0.9027 -0.9456  0.0817
17637TIP3    H274403   3.271   6.381  16.854 -1.3736  1.6939  0.3065
17638TIP3   OH274404   4.601   0.698   5.265 -0.3063 -0.1536 -0.2809
17638TIP3    H174405   4.684   0.651   5.271 -0.2723 -0.0024  0.5957
17638TIP3    H274406   4.601   0.736   5.177 -0.0844 -1.3115 -0.7935
17639TIP3   OH274407   1.933   4.655  16.027  0.0044  0.3489 -0.3070
17639TIP3    H174408   1.985   4.650  15.947 -1.2563  0.5256 -1.1790
17639TIP3    H274409   1.865   4.589  16.015 -0.1169  0.2744  0.6989
17640TIP3   OH274410   3.397   3.837   6.639 -0.8793  0.1335 -0.1040
17640TIP3    H174411   3.484   3.871   6.655 -0.9276  0.2254 -0.0338
17640TIP3    H274412   3.374   3.791   6.720 -0.4950 -0.7542 -0.4896
17641TIP3   OH274413   3.817   1.934  15.437  0.2083 -0.3934  0.1678
17641TIP3    H174414   3.869   1.877  15.381 -0.4044 -0.0484 -0.7746
17641TIP3    H274415   3.775   1.995  15.377 -1.0966 -0.5099  0.9104
17642TIP3   OH274416   1.719   4.766   4.766 -0.0745  0.4235 -0.4246
17642TIP3    H174417   1.729   4.694   4.829 -0.6670  0.1364 -0.6553
17642TIP3    H274418   1.738   4.844   4.817  1.6941  0.0412 -0.4336
17643TIP3   OH274419   4.417   3.867  16.604  0.2065 -0.6949 -0.3325
17643TIP3    H174420   4.467   3.830  16.531  2.9917  0.6519  0.7687
17643TIP3    H274421   4.456   3.952  16.620 -1.5975 -0.1214  1.5304
17644TIP3   OH274422   6.367   0.015  16.313 -0.0965  0.3293 -0.1343
17644TIP3    H174423   6.336  -0.075  16.309 -0.3264  0.4493 -1.5869
17644TIP3    H274424   6.375   0.033  16.406 -1.9775 -0.5219  0.2431
17645TIP3   OH274425   0.048   0.117   1.892 -0.0036 -0.1993  0.6046
17645TIP3    H174426   0.021   0.057   1.962 -0.8643  0.1950  0.6301
17645TIP3    H274427   0.111   0.176   1.932 -1.8378  1.1986  1.5971
17646TIP3   OH274428   3.208   4.744  17.233 -0.9215 -0.2954 -0.0907
17646TIP3    H174429   3.115   4.737  17.212 -1.2760 -0.8634  1.4988
17646TIP3    H274430   3.211   4.750  17.329  0.5247  2.4014 -0.1918
17647TIP3   OH274431   6.343   4.496   0.562  0.4441  0.3795  0.0376
17647TIP3    H174432   6.286   4.491   0.639 -0.0989  0.0860 -0.3668
17647TIP3    H274433   6.396   4.417   0.566  0.6848  0.5562  0.3147
17648TIP3   OH274434   3.054   2.905  15.782  0.7610 -0.3363 -0.3081
17648TIP3    H174435   3.043   3.000  15.780  0.9677 -0.2866  0.4662
17648TIP3    H274436   3.069   2.881  15.691  2.0236  0.5431 -0.3731
17649TIP3   OH274437   1.773   4.825  14.505  0.3139 -0.1538 -0.0446
17649TIP3    H174438   1.853   4.867  14.538  0.8285 -2.1294  1.4528
17649TIP3    H274439   1.791   4.731  14.514 -1.4356 -0.6869 -1.5790
17650TIP3   OH274440   1.329   2.194  16.215  0.2289 -0.4942  0.5354
17650TIP3    H174441   1.363   2.274  16.174  2.0000 -1.2251  0.4959
17650TIP3    H274442   1.251   2.173  16.165  1.1375 -0.1697 -1.0799
17651TIP3   OH274443   3.506   4.546   3.060 -0.0205  0.3802  0.1397
17651TIP3    H174444   3.494   4.588   3.145 -2.2273  1.2597 -0.5151
17651TIP3    H274445   3.503   4.618   2.997 -2.1857 -0.5023 -0.8942
17652TIP3   OH274446   4.615   4.694   5.402  0.6732 -0.1094  0.0834
17652TIP3    H174447   4.533   4.720   5.361  0.8780  0.8893  0.2891
17652TIP3    H274448   4.672   4.668   5.329 -0.3198 -2.3390  0.0343
17653TIP3   OH274449   5.544   0.885   5.470 -0.6121 -0.8368 -0.7183
17653TIP3    H174450   5.498   0.968   5.458 -0.0398 -0.2328  0.9821
17653TIP3    H274451   5.550   0.848   5.382 -0.7800  0.9685 -1.5347
17654TIP3   OH274452   4.203   6.060  15.189 -0.0424  0.6227  0.4149
17654TIP3    H174453   4.124   6.058  15.135  0.7005 -4.2531 -0.9596
17654TIP3    H274454   4.177   6.021  15.272  0.9276 -2.1329 -0.4457
17655TIP3   OH274455   5.287   0.327  15.580  0.0842 -0.3990 -0.1840
17655TIP3    H174456   5.364   0.274  15.599  0.9669  0.8088 -0.3235
17655TIP3    H274457   5.267   0.371  15.662 -0.1387 -0.2932 -0.2954
17656TIP3   OH274458   3.396   2.025   5.910  0.2182 -0.1659 -0.4360
17656TIP3    H174459   3.486   2.052   5.888  0.2907  0.3940  0.5097
17656TIP3    H274460   3.380   2.063   5.996  0.3045 -3.1614  1.0228
17657TIP3   OH274461   4.705   1.800  15.804  0.4327 -0.0878  0.1845
17657TIP3    H174462   4.642   1.756  15.746 -0.2131  0.1435  0.6978
17657TIP3    H274463   4.694   1.893  15.784  0.4143 -0.0286  0.4751
17658TIP3   OH274464   1.215   4.415  12.990  0.2191 -0.5319  0.6274
17658TIP3    H174465   1.122   4.428  12.974  0.5755  0.0861 -1.1856
17658TIP3    H274466   1.221   4.327  13.027 -1.1163 -0.3593  1.3028
17659TIP3   OH274467   3.681   2.648   3.317 -0.1053  0.1825 -0.0884
17659TIP3    H174468   3.662   2.613   3.404 -0.5216  0.5462 -0.0249
17659TIP3    H274469   3.615   2.717   3.305 -0.4532 -0.2820 -0.9436
17660TIP3   OH274470   2.477   4.459  16.868  0.0602 -0.0502 -0.7414
17660TIP3    H174471   2.426   4.540  16.862  0.4586  0.3912  1.2738
17660TIP3    H274472   2.566   4.488  16.889  0.4511 -0.9675 -1.0956
17661TIP3   OH274473   1.738   3.750   2.149  0.3169  0.1037 -0.6096
17661TIP3    H174474   1.807   3.755   2.083 -0.0794 -1.2566 -1.1866
17661TIP3    H274475   1.748   3.829   2.202  1.3478  0.6768 -1.6168
17662TIP3   OH274476   3.338   5.554   0.875 -0.0909 -0.5658 -0.6376
17662TIP3    H174477   3.243   5.547   0.885 -0.0249 -0.5922  0.0099
17662TIP3    H274478   3.373   5.522   0.958  0.4789 -0.3771 -0.8010
17663TIP3   OH274479   1.768   6.354  14.334 -0.3650 -0.5075  0.2394
17663TIP3    H174480   1.846   6.340  14.387 -1.7973 -1.3986  2.2461
17663TIP3    H274481   1.781   6.301  14.255  3.0797  3.0146 -1.9101
17664TIP3   OH274482   3.566   4.992  14.809 -0.1725 -0.4942 -0.4558
17664TIP3    H174483   3.618   5.072  14.811 -0.4703 -0.2502 -1.6038
17664TIP3    H274484   3.549   4.971  14.901  0.6869  0.2434 -0.1216
17665TIP3   OH274485   1.010   0.593   4.797  0.6186  0.2881  0.1845
17665TIP3    H174486   0.955   0.514   4.792 -0.3612  0.9503  0.2504
17665TIP3    H274487   1.084   0.574   4.739  0.1602 -0.5047 -0.1573
17666TIP3   OH274488   5.720   0.816   0.239  0.7251  0.0740  0.0452
17666TIP3    H174489   5.783   0.793   0.171  0.0641  0.4726 -0.7117
17666TIP3    H274490   5.635   0.815   0.195  0.2808  0.3316  0.8666
17667TIP3   OH274491   0.809   1.836  15.543 -0.5163 -0.2812  0.4273
17667TIP3    H174492   0.795   1.753  15.498  5.0726 -2.2678  1.5831
17667TIP3    H274493   0.867   1.885  15.485 -2.3571  2.2163  0.5612
17668TIP3   OH274494   3.848   1.295   2.893  0.2046  0.4081  0.1648
17668TIP3    H174495   3.834   1.287   2.988  1.4805  0.6792  0.3929
17668TIP3    H274496   3.791   1.227   2.855  0.7803 -0.7072  1.2211
17669TIP3   OH274497   2.072   5.200   5.325  0.1797  0.1413  0.3103
17669TIP3    H174498   1.986   5.230   5.353  0.2853  2.1955 -1.3357
17669TIP3    H274499   2.057   5.111   5.293 -1.3052  0.4266  0.1626
17670TIP3   OH274500   1.194   0.917  11.121  0.3837  0.1318  0.4910
17670TIP3    H174501   1.125   0.859  11.153  0.7484  0.0515  1.1660
17670TIP3    H274502   1.274   0.864  11.127  0.7924  0.8317  1.5406
17671TIP3   OH274503   6.475   2.590   4.752  0.2557  0.0233 -0.4553
17671TIP3    H174504   6.546   2.547   4.703 -0.3228  0.3077 -1.5534
17671TIP3    H274505   6.504   2.584   4.844  0.0730 -3.0068 -0.4743
17672TIP3   OH274506   3.989   3.175  12.754 -0.1818  0.4830  0.0271
17672TIP3    H174507   3.976   3.164  12.659 -0.6777  3.0695 -0.2732
17672TIP3    H274508   4.084   3.175  12.765 -0.0737  1.5490 -0.7153
17673TIP3   OH274509   5.757   4.685   6.095  0.4123 -0.4008 -0.0310
17673TIP3    H174510   5.663   4.698   6.084  0.3860 -0.2208  0.3905
17673TIP3    H274511   5.785   4.646   6.013 -0.3095 -1.9142  0.3982
17674TIP3   OH274512   6.067   5.444  14.421  0.2070  0.3286  0.7433
17674TIP3    H174513   6.112   5.360  14.426 -0.2293  0.1670  2.6086
17674TIP3    H274514   6.120   5.496  14.360  1.7692 -0.5386  1.3065
17675TIP3   OH274515   1.489   1.784  15.162  0.7157  0.2428  0.1308
17675TIP3    H174516   1.462   1.808  15.251  1.2190  0.7773  0.1489
17675TIP3    H274517   1.561   1.845  15.142 -0.4788  1.2457 -1.2754
17676TIP3   OH274518   5.861   5.282   3.229 -0.4920 -0.0751 -0.1151
17676TIP3    H174519   5.787   5.343   3.230  0.5817  1.3431  2.4713
17676TIP3    H274520   5.827   5.203   3.272 -0.9074  0.0265 -0.2462
17677TIP3   OH274521   6.037   6.696   1.692  0.2090  0.2130  0.2609
17677TIP3    H174522   5.949   6.731   1.694 -0.5921 -1.5782 -0.6382
17677TIP3    H274523   6.040   6.642   1.613  2.0722  0.1251  0.3286
17678TIP3   OH274524   5.028   4.958   6.224 -0.0462  0.1134 -0.3623
17678TIP3    H174525   5.025   4.865   6.247 -0.2576  0.4112  0.9258
17678TIP3    H274526   4.944   4.993   6.252  1.0082  1.2072  1.7169
17679TIP3   OH274527   0.434   1.463  14.990  0.0227  0.0642 -0.1982
17679TIP3    H174528   0.442   1.452  15.085 -0.5942  0.6460 -0.0715
17679TIP3    H274529   0.497   1.533  14.969 -0.5638  0.6360 -0.0643
17680TIP3   OH274530   4.724   5.392  16.765  0.0939  0.3652 -0.1174
17680TIP3    H174531   4.633   5.364  16.761 -0.2635  1.6285 -1.5133
17680TIP3    H274532   4.750   5.377  16.856 -2.0044  1.5048  0.7292
17681TIP3   OH274533   5.608   1.356   0.579 -0.0803  0.4892 -0.0762
17681TIP3    H174534   5.537   1.311   0.534  0.4924 -0.2604 -0.2483
17681TIP3    H274535   5.594   1.449   0.559 -0.5013  0.2693 -0.8447
17682TIP3   OH274536   4.819   5.721  15.030 -0.5579 -0.9281  0.1399
17682TIP3    H174537   4.836   5.812  15.005 -1.1491 -0.3890  1.5949
17682TIP3    H274538   4.857   5.669  14.959  1.2856  0.3935  0.0783
17683TIP3   OH274539   2.286   6.166   3.060 -0.4086  0.1969 -0.3741
17683TIP3    H174540   2.209   6.167   3.118  0.2091 -1.2374  0.5421
17683TIP3    H274541   2.310   6.073   3.055  1.8215  0.6956  0.1202
17684TIP3   OH274542   1.197   6.588  17.254  0.3696 -0.2282 -0.3258
17684TIP3    H174543   1.226   6.674  17.225  1.8471 -0.8789 -0.8978
17684TIP3    H274544   1.279   6.539  17.268 -0.4297 -2.0614 -1.6542
17685TIP3   OH274545   6.269   1.536   2.006  0.1762 -1.3186 -0.5090
17685TIP3    H174546   6.298   1.552   2.096  1.6199  0.5171 -1.2393
17685TIP3    H274547   6.180   1.501   2.016 -0.9920  1.7585  1.6024
17686TIP3   OH274548   2.311   0.103   0.390 -0.0683 -0.1554 -0.4787
17686TIP3    H174549   2.293   0.164   0.462 -1.5894 -1.5706  0.4287
17686TIP3    H274550   2.255   0.134   0.318 -2.5172 -1.6027  0.6750
17687TIP3   OH274551   1.266   5.973  13.169  0.7099  0.0286 -0.4103
17687TIP3    H174552   1.255   5.918  13.092  0.0140 -0.0282 -0.2736
17687TIP3    H274553   1.361   5.974  13.185  0.6173 -2.7673  0.7842
17688TIP3   OH274554   4.611   5.820  11.413 -0.3059  0.3663 -0.1944
17688TIP3    H174555   4.562   5.831  11.331 -0.3646  0.7506 -0.1101
17688TIP3    H274556   4.608   5.726  11.429  1.3357  0.0137 -1.6238
17689TIP3   OH274557   1.796   6.517   3.115  0.1357 -0.1918  0.5676
17689TIP3    H174558   1.890   6.537   3.119  0.3063 -0.9647  0.5194
17689TIP3    H274559   1.753   6.598   3.142  0.8475 -0.1512  1.6203
17690TIP3   OH274560   0.496   3.122   0.762  0.0542  0.0538 -0.2819
17690TIP3    H174561   0.514   3.197   0.706  0.6551  1.9098  2.2455
17690TIP3    H274562   0.568   3.121   0.825 -1.5705 -0.7049  1.6549
17691TIP3   OH274563   0.006   2.452   3.251  0.2462 -0.5360 -0.4057
17691TIP3    H174564   0.052   2.495   3.179  0.7337  0.8276  0.6702
17691TIP3    H274565   0.065   2.460   3.326 -0.1608 -2.0955  0.1216
17692TIP3   OH274566   0.654   6.513   4.650 -0.1211  0.7483  0.0328
17692TIP3    H174567   0.631   6.466   4.730 -1.4254  1.3479  0.0306
17692TIP3    H274568   0.623   6.456   4.579  0.2408  0.6214 -0.0233
17693TIP3   OH274569   2.017   4.201  14.272  0.2901  0.0225 -0.5458
17693TIP3    H174570   2.045   4.157  14.352 -1.0000  0.5628  0.2330
17693TIP3    H274571   1.945   4.258  14.299  0.6034  1.1179 -1.8867
17694TIP3   OH274572   0.425   0.201  13.240 -0.2468 -0.5406 -0.0342
17694TIP3    H174573   0.434   0.139  13.168 -1.2141 -0.3109 -0.3604
17694TIP3    H274574   0.381   0.277  13.202 -0.2104 -0.1619  0.6531
17695TIP3   OH274575   5.101   0.353   5.162  0.4634 -0.2517 -0.1197
17695TIP3    H174576   5.161   0.403   5.106  0.3172 -1.5895 -1.5380
17695TIP3    H274577   5.027   0.332   5.105 -0.2601 -0.6543  0.9302
17696TIP3   OH274578   1.397   0.513   3.104  0.2256  0.3860 -0.0116
17696TIP3    H174579   1.489   0.538   3.095  0.7331  0.2330  3.2691
17696TIP3    H274580   1.394   0.463   3.186 -2.6171 -0.5993 -0.6107
17697TIP3   OH274581   1.632   3.380   3.005  0.2472 -0.3508  0.6429
17697TIP3    H174582   1.693   3.378   3.079  2.2862  2.0839 -0.7908
17697TIP3    H274583   1.635   3.291   2.970  2.0256 -0.6336  1.3920
17698TIP3   OH274584   0.729   3.894  17.641 -0.0178  0.3108 -0.1963
17698TIP3    H174585   0.810   3.940  17.661  0.0190  0.7244 -1.2320
17698TIP3    H274586   0.665   3.964  17.624 -0.2296 -0.0049 -0.7404
17699TIP3   OH274587   1.153   3.020  17.385 -0.2720 -0.1069 -0.1987
17699TIP3    H174588   1.122   3.012  17.475 -0.9785 -0.0613 -0.4307
17699TIP3    H274589   1.191   2.935  17.365 -2.1314 -0.8791 -0.5896
17700TIP3   OH274590   4.609   6.242   3.337 -0.3256  0.1832 -0.2455
17700TIP3    H174591   4.570   6.324   3.305 -0.1058  0.5881  0.4865
17700TIP3    H274592   4.619   6.188   3.259  0.7945  1.3748 -0.9868
17701TIP3   OH274593   3.651   1.728   1.343 -0.3237 -1.4559 -0.2621
17701TIP3    H174594   3.557   1.708   1.349 -0.0328 -2.9353 -0.2561
17701TIP3    H274595   3.694   1.653   1.383  0.8474 -0.1872  0.9674
17702TIP3   OH274596   1.556   3.100   5.584  0.1198 -0.2079 -0.0837
17702TIP3    H174597   1.619   3.030   5.566  0.0278 -0.2076 -0.4146
17702TIP3    H274598   1.551   3.149   5.502  0.7425  0.6394  0.3653
17703TIP3   OH274599   3.435   4.633   6.034  0.2948  0.1261  0.0207
17703TIP3    H174600   3.420   4.538   6.028 -0.3870  0.1998  0.4668
17703TIP3    H274601   3.528   4.644   6.012  0.3145 -0.6146 -0.3053
17704TIP3   OH274602   5.749   1.484   2.007 -0.2574 -0.0366  0.0251
17704TIP3    H174603   5.805   1.407   2.019  0.7440  0.9970  2.6013
17704TIP3    H274604   5.682   1.476   2.074 -0.5668  0.9667 -0.1482
17705TIP3   OH274605   3.971   3.688  16.988 -0.7659  0.5317 -0.4673
17705TIP3    H174606   4.032   3.685  17.062 -1.0198 -0.0145 -0.2750
17705TIP3    H274607   3.903   3.749  17.015  0.3846  2.2281 -1.2353
17706TIP3   OH274608   3.611   1.092  11.450 -0.1679 -0.0986 -0.0586
17706TIP3    H174609   3.632   1.004  11.483 -0.1556 -0.3942 -0.8483
17706TIP3    H274610   3.546   1.125  11.512  1.0330  0.0027  1.2135
17707TIP3   OH274611   1.936   0.163  16.767 -0.5535  0.1680 -0.8670
17707TIP3    H174612   1.855   0.123  16.800  0.6390 -0.7605  1.1167
17707TIP3    H274613   1.934   0.252  16.801 -0.4414 -0.0605 -0.2528
17708TIP3   OH274614   3.075   5.471   4.343 -0.3948  0.3209  0.0833
17708TIP3    H174615   2.987   5.510   4.346 -0.4584  0.3996 -1.8442
17708TIP3    H274616   3.130   5.539   4.303  0.6893  0.4807  1.7573
17709TIP3   OH274617   3.032   2.992  12.538 -0.1012  0.2381  0.4685
17709TIP3    H174618   2.937   2.994  12.533 -0.1078 -0.7639 -0.1648
17709TIP3    H274619   3.053   3.009  12.629 -0.7751  2.9287  0.2041
17710TIP3   OH274620   6.251   4.989   1.387 -0.1458  0.5900 -0.0799
17710TIP3    H174621   6.316   4.977   1.457 -1.0019 -0.0475  0.6340
17710TIP3    H274622   6.265   4.915   1.329  0.1085  0.7402 -0.2121
17711TIP3   OH274623   0.625   5.272   2.891  0.0441  0.4973 -0.0019
17711TIP3    H174624   0.530   5.284   2.889  0.1572  1.5837 -2.6385
17711TIP3    H274625   0.661   5.358   2.867  1.5389 -0.5880 -1.9620
17712TIP3   OH274626   4.944   0.024   1.386 -0.7303  0.0469  0.4707
17712TIP3    H174627   4.852   0.020   1.362 -0.5356  1.8626 -0.8123
17712TIP3    H274628   4.968   0.116   1.373  1.8970 -0.8251 -1.8241
17713TIP3   OH274629   4.872   1.250   4.046 -0.5809  0.4463  0.1590
17713TIP3    H174630   4.871   1.346   4.051 -1.1784  0.5114 -0.8152
17713TIP3    H274631   4.805   1.230   3.980 -1.4048 -0.7084  1.3158
17714TIP3   OH274632   1.150   4.203   0.302 -0.2439 -0.3169  0.3317
17714TIP3    H174633   1.231   4.245   0.330  0.5718 -1.2409 -0.5633
17714TIP3    H274634   1.087   4.221   0.372  0.1057  2.1906  0.0759
17715TIP3   OH274635   5.065   2.988  16.399 -0.3401  0.5442  0.4791
17715TIP3    H174636   5.113   3.057  16.353  0.8284  1.6715  3.1524
17715TIP3    H274637   5.021   3.033  16.470 -0.4972 -1.3080  1.6333
17716TIP3   OH274638   6.589   4.772   3.807  0.0003 -0.2941 -0.0736
17716TIP3    H174639   6.575   4.766   3.901  1.5022 -0.2369  0.1816
17716TIP3    H274640   6.591   4.866   3.789 -1.7472 -0.2869 -0.4405
17717TIP3   OH274641   4.252   6.715  16.540  0.4797  0.2134 -0.0195
17717TIP3    H174642   4.338   6.697  16.501  0.4065  0.6371 -0.3865
17717TIP3    H274643   4.190   6.707  16.468  0.1652 -0.3846  0.3043
17718TIP3   OH274644   2.968   5.488  17.348  0.1908 -0.0419 -0.1160
17718TIP3    H174645   3.001   5.498  17.259 -1.3291 -1.2672 -0.8823
17718TIP3    H274646   2.922   5.570  17.366  2.3569  1.1049  0.4341
17719TIP3   OH274647   0.816   6.029   1.105 -0.3364  0.3345 -0.0154
17719TIP3    H174648   0.772   6.113   1.095  0.5603  1.2226  2.7261
17719TIP3    H274649   0.906   6.045   1.075  0.1475  0.7306  1.5648
17720TIP3   OH274650   5.306   0.825   5.866 -0.0683 -0.0313 -0.5730
17720TIP3    H174651   5.276   0.914   5.848  0.5755  0.2553 -0.2574
17720TIP3    H274652   5.388   0.816   5.817 -0.0580 -0.4019 -0.4958
17721TIP3   OH274653   4.083   1.147   2.453 -0.4908  0.3381  0.3175
17721TIP3    H174654   4.175   1.175   2.456  0.0970 -0.7811 -2.6855
17721TIP3    H274655   4.084   1.060   2.494 -0.0584  0.1135 -0.1444
17722TIP3   OH274656   2.448   5.776   2.495 -0.2142 -0.0040 -0.2484
17722TIP3    H174657   2.529   5.816   2.465 -0.3259 -0.2769 -0.9314
17722TIP3    H274658   2.464   5.682   2.491 -0.1116 -0.0490  0.9026
17723TIP3   OH274659   1.929   0.572   4.182 -0.4544  0.0092  0.3038
17723TIP3    H174660   1.837   0.592   4.202  0.0315  1.0413  1.7192
17723TIP3    H274661   1.926   0.486   4.141 -2.0798  0.1299  0.0743
17724TIP3   OH274662   2.557   2.367   3.491  0.3713 -0.7622  0.5926
17724TIP3    H174663   2.541   2.421   3.414  2.0911  1.6343  1.7516
17724TIP3    H274664   2.473   2.325   3.509 -1.1584  1.6280 -0.3784
17725TIP3   OH274665   1.461   4.223  12.157 -0.1239  0.1212  0.4215
17725TIP3    H174666   1.519   4.209  12.082  0.9668  0.1785  1.2366
17725TIP3    H274667   1.396   4.286  12.126 -0.0896 -0.3558 -0.6764
17726TIP3   OH274668   2.316   0.689  14.390 -0.8082  0.6743 -0.7087
17726TIP3    H174669   2.300   0.777  14.421  1.6363  0.8788  0.2156
17726TIP3    H274670   2.389   0.698  14.328 -0.7134 -0.6421 -0.8336
17727TIP3   OH274671   6.471   4.802   4.952 -0.2982  0.1466 -0.2012
17727TIP3    H174672   6.479   4.718   4.907 -3.1500 -0.7765  0.7706
17727TIP3    H274673   6.414   4.854   4.896 -1.6564 -0.0165  0.9637
17728TIP3   OH274674   0.317   1.395  17.370  0.1679 -0.1547 -0.2914
17728TIP3    H174675   0.343   1.486  17.386  0.4874 -0.2319 -0.3646
17728TIP3    H274676   0.234   1.401  17.324  0.3059  0.1044 -0.5058
17729TIP3   OH274677   5.968   6.236  11.414 -0.4010 -0.7024 -0.2296
17729TIP3    H174678   5.950   6.328  11.395 -3.2975 -0.8433  1.2397
17729TIP3    H274679   6.019   6.238  11.496 -0.4682 -0.4099 -0.1926
17730TIP3   OH274680   5.043   2.490   4.527 -0.6201 -0.2439  0.0348
17730TIP3    H174681   5.040   2.477   4.621 -0.0656  1.1048  0.2686
17730TIP3    H274682   5.044   2.402   4.490  0.9224 -0.8237  1.3458
17731TIP3   OH274683   6.153   5.914   0.999  0.2867 -0.2054 -0.0200
17731TIP3    H174684   6.100   5.981   1.042 -0.0909  0.0685 -0.8929
17731TIP3    H274685   6.220   5.963   0.951 -0.4729 -0.3828 -1.3111
17732TIP3   OH274686   4.741   5.156   3.998  0.0453  0.0856 -0.1888
17732TIP3    H174687   4.647   5.143   3.988 -0.0350 -0.1768  0.8369
17732TIP3    H274688   4.779   5.123   3.916 -0.5857 -1.6152  0.1693
17733TIP3   OH274689   5.412   0.887   2.796  0.5485  0.0211  0.4129
17733TIP3    H174690   5.439   0.795   2.793  0.4130 -0.0590  1.3269
17733TIP3    H274691   5.322   0.885   2.829 -0.1477  0.3733 -1.3486
17734TIP3   OH274692   6.056   2.262  16.772 -0.5649  0.6910  0.2896
17734TIP3    H174693   6.084   2.228  16.857  2.0260  0.2523 -0.6215
17734TIP3    H274694   6.083   2.354  16.774  0.3955  0.4410 -0.3554
17735TIP3   OH274695   6.717   1.728   2.346 -0.2613 -0.3533 -0.5110
17735TIP3    H174696   6.736   1.821   2.357  0.7444 -0.6313  0.2543
17735TIP3    H274697   6.705   1.695   2.435 -0.8114 -0.9135 -0.7886
17736TIP3   OH274698   4.399   6.635  17.487 -0.0917  0.4876  0.1432
17736TIP3    H174699   4.346   6.604  17.413  0.3921  2.2757 -1.0267
17736TIP3    H274700   4.335   6.653  17.556 -1.0509  2.2310 -1.1125
17737TIP3   OH274701   1.016   4.902  15.344 -0.4295  0.0330  0.0612
17737TIP3    H174702   1.102   4.904  15.386 -0.1023  0.6821 -0.6107
17737TIP3    H274703   1.032   4.860  15.259 -0.9966 -0.8692  0.3855
17738TIP3   OH274704   2.891   3.466  11.829  0.3157  0.3646 -0.3523
17738TIP3    H174705   2.984   3.447  11.833  0.4390  0.7898 -1.1254
17738TIP3    H274706   2.850   3.383  11.806  0.3802 -0.0987  1.0975
17739TIP3   OH274707   2.402   1.753  13.726  0.0816 -0.0384 -0.3223
17739TIP3    H174708   2.463   1.747  13.800 -0.9771  1.1388  0.7142
17739TIP3    H274709   2.447   1.710  13.654  1.9563  0.3962  0.5070
17740TIP3   OH274710   3.575   5.786  16.918  0.7608 -0.1013  0.0831
17740TIP3    H174711   3.591   5.789  16.824 -1.8758  0.3580 -0.4484
17740TIP3    H274712   3.537   5.699  16.933  0.4932  0.0948  0.5806
17741TIP3   OH274713   5.255   1.745  12.630  0.1324 -0.0499  0.3798
17741TIP3    H174714   5.312   1.780  12.561  1.5728 -1.6703  0.6575
17741TIP3    H274715   5.212   1.670  12.590  0.8623 -0.9090  1.1471
17742TIP3   OH274716   4.896   6.247   5.127  0.7162 -0.6864 -0.0845
17742TIP3    H174717   4.825   6.183   5.128 -0.5086  0.5908 -0.7899
17742TIP3    H274718   4.878   6.303   5.203 -1.8254  2.4269 -2.7097
17743TIP3   OH274719   2.638   2.887  15.996 -0.3994 -0.1793 -0.7462
17743TIP3    H174720   2.712   2.869  15.938 -0.2914 -1.1032 -0.3562
17743TIP3    H274721   2.592   2.803  16.001  0.1272 -0.3953  1.2220
17744TIP3   OH274722   3.947   0.157   1.430 -0.0869  0.0695  0.0504
17744TIP3    H174723   3.855   0.160   1.456  0.0266 -1.1555  0.6702
17744TIP3    H274724   3.969   0.248   1.409 -0.6790  0.8931  2.5987
17745TIP3   OH274725   3.795   4.270   2.460 -0.5652 -0.1676  0.5734
17745TIP3    H174726   3.871   4.318   2.427 -0.5294  1.1672  2.4321
17745TIP3    H274727   3.830   4.212   2.528 -1.1515  0.4187  1.4043
17746TIP3   OH274728   3.412   4.082   5.102  1.0672  0.0492 -0.0646
17746TIP3    H174729   3.361   4.102   5.024  3.0093  1.6214 -1.0216
17746TIP3    H274730   3.387   4.149   5.165 -0.4896 -1.2111  0.7021
17747TIP3   OH274731   5.445   2.717   2.432 -0.7879  0.7259 -0.0742
17747TIP3    H174732   5.485   2.692   2.349 -0.9668  0.5020 -0.0928
17747TIP3    H274733   5.413   2.806   2.418 -0.9376  0.6378 -0.2844
17748TIP3   OH274734   3.299   3.954   3.316  0.5122  0.2473  0.2298
17748TIP3    H174735   3.259   3.867   3.323  0.1307  0.2987 -1.1052
17748TIP3    H274736   3.316   3.979   3.407  0.7956 -1.2888  0.6338
17749TIP3   OH274737   5.988   1.566  10.954 -0.6490 -0.2772  0.8622
17749TIP3    H174738   5.904   1.571  10.908 -0.3654 -1.0515  0.2576
17749TIP3    H274739   6.052   1.551  10.885  0.0441  0.6442  1.2818
17750TIP3   OH274740   3.770   0.194  15.503  0.2799  0.3955 -0.2924
17750TIP3    H174741   3.740   0.104  15.513  0.5705  0.3867  0.6566
17750TIP3    H274742   3.836   0.190  15.434  0.6263 -0.2099  0.0637
17751TIP3   OH274743   4.217   1.601  14.838 -0.0953 -0.5646  0.2973
17751TIP3    H174744   4.168   1.530  14.879 -0.7700 -0.0566  0.4030
17751TIP3    H274745   4.209   1.585  14.744 -0.3106 -0.5846  0.3189
17752TIP3   OH274746   4.747   6.670   4.354  0.6984  0.2339  0.4539
17752TIP3    H174747   4.778   6.733   4.289  1.3855  1.7639  2.1647
17752TIP3    H274748   4.808   6.680   4.428 -0.9526 -0.2765  1.9572
17753TIP3   OH274749   1.372   0.569  17.266  0.3776 -0.3334 -0.2702
17753TIP3    H174750   1.404   0.657  17.245  0.6082 -0.3667 -0.0747
17753TIP3    H274751   1.391   0.517  17.188 -1.2063  0.1422 -1.0125
17754TIP3   OH274752   0.764   3.076  13.053 -0.1529 -0.1214 -0.4435
17754TIP3    H174753   0.778   3.052  12.962  0.1786  0.2703 -0.5015
17754TIP3    H274754   0.812   3.158  13.064 -3.4056  1.9992 -0.9745
17755TIP3   OH274755   1.920   4.484   6.566  0.1034 -0.2200 -0.0308
17755TIP3    H174756   1.857   4.488   6.638  0.3851  0.1126  0.2049
17755TIP3    H274757   1.957   4.396   6.571 -0.6907 -0.5911 -0.4799
17756TIP3   OH274758   2.565   0.861  10.733 -0.2711 -0.5095  0.6507
17756TIP3    H174759   2.565   0.907  10.817 -1.9361 -0.8790  0.9101
17756TIP3    H274760   2.545   0.770  10.756  2.2610 -1.2681  0.0921
17757TIP3   OH274761   1.142   5.607   3.701  0.5197 -0.1305 -0.4475
17757TIP3    H174762   1.162   5.695   3.667  0.7725 -0.4989 -1.2674
17757TIP3    H274763   1.048   5.598   3.690  0.3571  0.3515  0.4184
17758TIP3   OH274764   0.094   4.954  11.387 -0.7393  0.0768 -0.4769
17758TIP3    H174765   0.053   5.013  11.450 -0.4086 -0.4653  0.2608
17758TIP3    H274766   0.069   4.990  11.302  1.6403  2.9190 -0.1604
17759TIP3   OH274767   1.766   4.826  15.342  0.0082 -0.2205  0.0569
17759TIP3    H174768   1.849   4.860  15.310 -0.0809  1.6193  1.5947
17759TIP3    H274769   1.729   4.778  15.268  1.4478  0.7535 -1.3421
17760TIP3   OH274770   4.550   5.791   2.554  0.3587 -0.1827  0.5114
17760TIP3    H174771   4.517   5.876   2.584  0.6429  0.3204 -0.5444
17760TIP3    H274772   4.494   5.727   2.596 -0.7922  0.5894  0.1954
17761TIP3   OH274773   4.215   5.309   6.309 -0.3966 -0.2869 -0.3236
17761TIP3    H174774   4.257   5.280   6.228  0.9248  1.4406 -0.3098
17761TIP3    H274775   4.253   5.395   6.326 -1.0699 -0.3656  1.8431
17762TIP3   OH274776   3.721   1.851  16.160  0.3901 -0.2636  0.0981
17762TIP3    H174777   3.762   1.913  16.221  0.9873  0.2508 -0.7871
17762TIP3    H274778   3.793   1.794  16.133 -0.3513 -2.0386  1.6648
17763TIP3   OH274779   0.803   5.472  17.275 -0.5618 -0.2279  0.3134
17763TIP3    H174780   0.785   5.404  17.341  0.6548 -0.9108 -0.0110
17763TIP3    H274781   0.888   5.446  17.238 -0.1427  1.3966  0.0643
17764TIP3   OH274782   3.876   2.703   3.761  0.2631 -0.1100  0.0032
17764TIP3    H174783   3.924   2.634   3.807  0.2043  0.4690  0.9560
17764TIP3    H274784   3.909   2.784   3.799  0.7368  0.4308 -1.4962
17765TIP3   OH274785   3.144   6.356   1.194  0.0691  0.1579  0.6534
17765TIP3    H174786   3.236   6.346   1.221  0.0984  1.1115  0.9263
17765TIP3    H274787   3.142   6.322   1.104  0.2439 -1.8256  1.3367
17766TIP3   OH274788   4.439   0.954  16.435  0.1581 -0.1114  0.3804
17766TIP3    H174789   4.491   0.901  16.375  0.6042  2.8923 -2.1959
17766TIP3    H274790   4.355   0.908  16.442  0.4647 -1.1324 -1.7917
17767TIP3   OH274791   4.492   3.466   0.793  0.1610  0.0707 -0.1125
17767TIP3    H174792   4.572   3.479   0.844  1.1554 -1.4515 -1.1920
17767TIP3    H274793   4.433   3.420   0.853  1.1960 -1.4148 -0.1880
17768TIP3   OH274794   3.758   3.377  12.008 -0.3911 -0.1753  0.4545
17768TIP3    H174795   3.798   3.458  11.978 -0.5669 -0.0383  0.5798
17768TIP3    H274796   3.670   3.378  11.970  0.2032 -1.1847 -1.0330
17769TIP3   OH274797   5.789   4.570   2.925 -0.1400 -0.0343 -0.3805
17769TIP3    H174798   5.883   4.568   2.904 -0.5979 -1.3884 -2.7330
17769TIP3    H274799   5.767   4.478   2.942 -0.9869  0.3238  0.5284
17770TIP3   OH274800   4.795   4.410   5.404  0.3593 -0.4245 -0.0960
17770TIP3    H174801   4.817   4.468   5.332 -0.9778 -0.0040 -0.1924
17770TIP3    H274802   4.701   4.424   5.419 -0.0125 -2.5698 -0.1358
17771TIP3   OH274803   2.014   0.389  11.557  0.0782 -0.5573 -0.2208
17771TIP3    H174804   2.031   0.318  11.495 -0.6481 -0.1805 -0.8618
17771TIP3    H274805   2.083   0.453  11.539  0.8558 -1.1673  0.4930
17772TIP3   OH274806   1.951   5.082  11.228  0.3121 -0.0307 -0.2921
17772TIP3    H174807   1.885   5.043  11.286  1.8205  0.3774  1.7844
17772TIP3    H274808   1.980   5.160  11.274  2.1654 -0.1352 -1.2049
17773TIP3   OH274809   2.818   4.819  16.411  0.5744  0.1205  0.5132
17773TIP3    H174810   2.733   4.788  16.442 -0.2831  1.5925 -0.2218
17773TIP3    H274811   2.837   4.765  16.335  0.7521 -0.8084  1.1934
17774TIP3   OH274812   3.965   4.248   4.087 -0.2823 -0.1684 -1.1127
17774TIP3    H174813   4.033   4.202   4.137  1.5452  3.4463  0.0499
17774TIP3    H274814   3.996   4.245   3.997 -0.3205 -1.3158 -1.1087
17775TIP3   OH274815   6.388   5.687   2.780 -0.6841 -0.2352 -0.1973
17775TIP3    H174816   6.473   5.683   2.824 -0.9575 -1.7497  0.2702
17775TIP3    H274817   6.409   5.708   2.689  0.0238  1.3001  0.2880
17776TIP3   OH274818   5.275   3.239  11.788 -0.7539  0.4213  0.1912
17776TIP3    H174819   5.200   3.201  11.742 -0.4096 -0.9011  0.6568
17776TIP3    H274820   5.237   3.285  11.863 -1.3732  3.1233 -1.6408
17777TIP3   OH274821   1.398   0.489   1.136  0.0240 -0.0126  0.1821
17777TIP3    H174822   1.345   0.409   1.133  2.6471 -2.1552  3.6722
17777TIP3    H274823   1.450   0.486   1.055 -1.1436 -0.8693 -0.5779
17778TIP3   OH274824   2.629   5.762  14.805 -0.7591  0.0834 -0.1923
17778TIP3    H174825   2.553   5.710  14.832 -0.7004  0.1723  0.1514
17778TIP3    H274826   2.592   5.838  14.761 -0.8872  0.3329  0.3366
17779TIP3   OH274827   5.496   5.052  11.634  0.0358  0.4070  0.3299
17779TIP3    H174828   5.461   5.092  11.713 -0.7959  4.5049 -1.8664
17779TIP3    H274829   5.566   5.111  11.605 -0.8246  0.0677 -2.8458
17780TIP3   OH274830   6.109   2.165   4.901 -0.3812  0.3959 -0.7645
17780TIP3    H174831   6.073   2.169   4.812 -1.1288 -1.7111 -0.5954
17780TIP3    H274832   6.038   2.130   4.955  0.4637  0.4717  0.4375
17781TIP3   OH274833   1.429   6.271   6.322  0.7854  0.0414  0.2485
17781TIP3    H174834   1.368   6.342   6.298  2.3600  1.3618 -0.0173
17781TIP3    H274835   1.497   6.314   6.374  1.6126 -1.3526  0.3671
17782TIP3   OH274836   2.300   5.920  16.932  0.4224 -0.7371  0.0429
17782TIP3    H174837   2.339   5.842  16.971 -0.2456 -1.0395  0.1087
17782TIP3    H274838   2.295   5.983  17.004 -0.4877 -1.1758  0.3868
17783TIP3   OH274839   4.554   3.808  15.207 -0.4676  0.5912 -0.5024
17783TIP3    H174840   4.520   3.765  15.286  0.5065 -1.3476 -1.0669
17783TIP3    H274841   4.508   3.764  15.135 -1.5276  2.5005 -1.0671
17784TIP3   OH274842   1.317   1.311   4.709  0.4820 -0.0270  0.0660
17784TIP3    H174843   1.225   1.288   4.706  0.1974  0.9925  0.5476
17784TIP3    H274844   1.358   1.242   4.761  0.2797 -1.3040 -1.3878
17785TIP3   OH274845   6.082   2.735   2.299  0.2119 -0.1600  0.0191
17785TIP3    H174846   6.076   2.645   2.266  1.3729 -0.4405  0.5145
17785TIP3    H274847   6.068   2.728   2.393  3.1803 -0.2875  0.5496
17786TIP3   OH274848   1.421   6.596  11.546  0.1540  0.0405 -0.2473
17786TIP3    H174849   1.442   6.686  11.521 -1.9017  0.0075 -2.4047
17786TIP3    H274850   1.342   6.604  11.600  0.1690 -0.4365 -0.1505
17787TIP3   OH274851   2.476   4.009  15.704  0.1574  0.1148  0.1311
17787TIP3    H174852   2.425   3.976  15.629 -0.1573  0.6095  0.1213
17787TIP3    H274853   2.535   3.938  15.726 -2.1566 -1.4868  1.6926
17788TIP3   OH274854   3.656   1.161   0.500 -0.1843  0.4719  0.1773
17788TIP3    H174855   3.660   1.122   0.413  0.6042  0.4043  0.2341
17788TIP3    H274856   3.628   1.251   0.486 -1.6933 -0.0097  0.0098
17789TIP3   OH274857   3.604   1.066  13.952  0.0914  0.4739  0.7296
17789TIP3    H174858   3.551   1.112  14.016 -0.9768  0.7762 -0.3347
17789TIP3    H274859   3.561   0.981  13.941  1.9241 -0.7679  2.5201
17790TIP3   OH274860   1.929   4.232   2.075  0.0447 -0.3282  0.4889
17790TIP3    H174861   1.980   4.201   2.149 -1.0591 -1.8228  0.6786
17790TIP3    H274862   1.843   4.191   2.087 -0.5257  0.3973 -0.9454
17791TIP3   OH274863   2.726   2.849  14.087 -0.3931 -0.5801 -0.1046
17791TIP3    H174864   2.735   2.820  13.996  1.4154 -0.3161 -0.0487
17791TIP3    H274865   2.677   2.779  14.130 -1.2011 -0.7470 -1.2544
17792TIP3   OH274866   4.986   6.260   0.678 -0.3388 -0.0662  0.0471
17792TIP3    H174867   4.961   6.343   0.637  0.4002  0.1532  0.0409
17792TIP3    H274868   4.994   6.281   0.771 -0.5029 -0.2164  0.0963
17793TIP3   OH274869   1.829   5.449  11.946 -0.2091 -0.1320 -0.3430
17793TIP3    H174870   1.768   5.428  12.016 -1.6958  3.3759 -0.3929
17793TIP3    H274871   1.816   5.380  11.881 -0.1830 -2.3819  1.8909
17794TIP3   OH274872   5.491   3.564   5.644 -0.4217 -0.5235 -0.6917
17794TIP3    H174873   5.448   3.542   5.726 -0.4995  3.6546  0.6165
17794TIP3    H274874   5.423   3.605   5.591  0.7986  2.5273 -0.1658
17795TIP3   OH274875   2.790   3.674  13.869 -0.1429  0.5536  0.1473
17795TIP3    H174876   2.802   3.763  13.904 -2.1848  0.1271  2.1718
17795TIP3    H274877   2.850   3.670  13.795  2.2128  2.6252  1.7376
17796TIP3   OH274878   5.707   2.394   5.474 -0.0150  0.0436  0.4313
17796TIP3    H174879   5.736   2.389   5.565  0.5601  0.1894  0.2632
17796TIP3    H274880   5.777   2.354   5.424  0.3653  1.2659 -0.0704
17797TIP3   OH274881   1.030   3.397   5.119 -0.6986 -0.3475 -0.4812
17797TIP3    H174882   0.956   3.345   5.087 -1.3659  1.2343 -1.6309
17797TIP3    H274883   1.023   3.479   5.072  1.9986 -0.2505 -0.8245
17798TIP3   OH274884   1.696   6.546   4.369 -0.4590  0.5069 -0.3462
17798TIP3    H174885   1.649   6.591   4.299  0.8765  2.0911 -0.2863
17798TIP3    H274886   1.633   6.482   4.402 -2.3618  2.0923 -0.6686
17799TIP3   OH274887   1.950   0.425  13.789  0.2481 -0.3150 -0.0444
17799TIP3    H174888   1.876   0.484  13.805  0.5588  0.3602 -1.0353
17799TIP3    H274889   2.027   0.482  13.795  0.5714 -0.6793 -0.6648
17800TIP3   OH274890   4.706   2.430  12.365  0.3552  0.2890 -0.5431
17800TIP3    H174891   4.691   2.485  12.442  1.6875 -0.6201  0.4110
17800TIP3    H274892   4.652   2.353  12.379  0.3956  0.2412 -0.6481
17801TIP3   OH274893   3.437   0.146   4.486 -0.5645  0.5961 -0.0655
17801TIP3    H174894   3.357   0.189   4.518 -1.9037 -1.6131 -0.1999
17801TIP3    H274895   3.481   0.213   4.434 -3.5333  1.2610 -1.9552
17802TIP3   OH274896   0.638   3.922  15.646  0.3965 -0.2284 -0.6665
17802TIP3    H174897   0.655   3.953  15.557  1.6541  0.0727 -0.3406
17802TIP3    H274898   0.672   3.832  15.647 -0.4661 -0.5629 -0.7445
17803TIP3   OH274899   2.605   0.851   0.961 -0.5791  0.2240  0.0357
17803TIP3    H174900   2.580   0.938   0.993  0.4440  1.0308 -1.2499
17803TIP3    H274901   2.648   0.868   0.877  0.1432 -1.4830  0.0213
17804TIP3   OH274902   6.187   5.930   0.004 -0.2310  0.2469  0.2751
17804TIP3    H174903   6.131   5.999  -0.031 -0.4693 -0.2208 -0.2915
17804TIP3    H274904   6.264   5.976   0.037 -1.1801  0.9589  1.5965
17805TIP3   OH274905   4.256   4.569  13.245  0.2565 -0.0678  0.2368
17805TIP3    H174906   4.216   4.568  13.332 -1.7323 -0.7370 -0.6057
17805TIP3    H274907   4.228   4.653  13.207  1.5607  0.4638  0.4063
17806TIP3   OH274908   5.990   6.085  16.289  0.1584 -0.0465 -0.1849
17806TIP3    H174909   5.922   6.024  16.318  0.9181  0.3142  2.6976
17806TIP3    H274910   5.962   6.170  16.324  1.4458  0.3509 -0.0862
17807TIP3   OH274911   3.531   1.858   1.847  0.2301  0.3236 -0.3810
17807TIP3    H174912   3.483   1.885   1.926 -1.0412 -0.2425 -0.9295
17807TIP3    H274913   3.502   1.768   1.831  2.1793 -0.3660 -0.2366
17808TIP3   OH274914   1.196   1.294  11.493 -0.4756  0.6067 -0.8106
17808TIP3    H174915   1.214   1.384  11.520  1.9091  0.4159 -1.5591
17808TIP3    H274916   1.193   1.245  11.575 -0.6539  1.1874 -0.4610
17809TIP3   OH274917   6.686   4.542   1.867 -0.1746  0.0634 -0.4424
17809TIP3    H174918   6.654   4.457   1.898 -1.9561  1.4520  1.8092
17809TIP3    H274919   6.620   4.571   1.804 -0.7870  0.7391  0.4875
17810TIP3   OH274920   4.171   0.158   6.457  0.3282  0.0976  0.0433
17810TIP3    H174921   4.148   0.124   6.370  1.6146 -2.4785  0.6243
17810TIP3    H274922   4.145   0.251   6.453 -1.1692 -0.3112 -2.4956
17811TIP3   OH274923   5.112   4.402   0.857  0.2848  0.1130 -0.3432
17811TIP3    H174924   5.114   4.317   0.901 -2.3109 -1.2328 -2.5624
17811TIP3    H274925   5.086   4.464   0.926 -1.0401 -1.4625  0.6359
17812TIP3   OH274926   2.931   2.887   5.433 -0.0854  0.1185  0.1643
17812TIP3    H174927   2.908   2.886   5.526  0.9555 -1.3494  0.4352
17812TIP3    H274928   2.884   2.963   5.398 -1.1265  0.2367  1.7097
17813TIP3   OH274929   5.591   3.283  11.515  0.4357 -0.1890 -0.4826
17813TIP3    H174930   5.652   3.264  11.444  0.3149 -3.1220  0.0659
17813TIP3    H274931   5.509   3.240  11.489 -0.3767  0.8215  0.3121
17814TIP3   OH274932   0.361   0.884   2.300  0.0356  0.5591  1.0546
17814TIP3    H174933   0.406   0.800   2.306 -1.3422 -0.2826 -0.0592
17814TIP3    H274934   0.324   0.886   2.212 -2.6756  0.9137  2.1194
17815TIP3   OH274935   2.612   6.706  14.472 -0.7392 -0.3053  0.0594
17815TIP3    H174936   2.654   6.645  14.412 -3.3690 -0.7163 -1.5456
17815TIP3    H274937   2.649   6.791  14.449  0.5610 -0.8504  0.0402
17816TIP3   OH274938   3.327   1.655  11.827 -0.6008 -0.0217  0.3793
17816TIP3    H174939   3.324   1.609  11.911 -0.7044 -0.6469  0.0333
17816TIP3    H274940   3.263   1.610  11.772  0.0656 -0.1416 -0.3078
17817TIP3   OH274941   2.574   0.148   0.090 -0.1562  0.0614  0.1238
17817TIP3    H174942   2.650   0.196   0.058  1.3003 -1.2343  1.4627
17817TIP3    H274943   2.608   0.062   0.114 -1.9625 -0.4151  1.1818
17818TIP3   OH274944   6.173   1.908  14.861 -0.4962  0.1547  0.1638
17818TIP3    H174945   6.164   1.826  14.813 -0.5868  0.0318  0.3925
17818TIP3    H274946   6.165   1.976  14.793 -1.2255 -0.0024  0.0822
17819TIP3   OH274947   1.450   2.544  16.622 -0.2045 -0.1930  0.3010
17819TIP3    H174948   1.405   2.607  16.678  1.8224  1.4471  0.1914
17819TIP3    H274949   1.381   2.483  16.595 -1.9829  1.1855  1.4715
17820TIP3   OH274950   5.994   0.215   4.158  0.1027 -0.0732  0.1859
17820TIP3    H174951   5.932   0.146   4.180 -2.2881  1.9683  0.2948
17820TIP3    H274952   5.984   0.228   4.063 -1.7898  2.0739  0.5904
17821TIP3   OH274953   4.478   5.782   0.904 -0.0850 -0.1465  0.5583
17821TIP3    H174954   4.521   5.697   0.913  0.0493  0.0061  1.5075
17821TIP3    H274955   4.544   5.839   0.865  0.0341 -0.3240  0.4999
17822TIP3   OH274956   6.403   2.578   2.123  0.5850 -0.5765 -0.5165
17822TIP3    H174957   6.322   2.527   2.124 -0.1243  0.5133  0.5890
17822TIP3    H274958   6.373   2.669   2.118  1.7019 -0.0802  1.2182
17823TIP3   OH274959   6.714   0.695  16.916  0.0835  0.8516  0.0296
17823TIP3    H174960   6.794   0.733  16.953  0.6884 -0.0024 -0.3713
17823TIP3    H274961   6.718   0.602  16.941 -0.5396  0.7028 -0.4111
17824TIP3   OH274962   3.206   5.083   5.873  0.0909  0.2887 -0.1580
17824TIP3    H174963   3.252   5.160   5.906  0.2769  0.3815 -0.6254
17824TIP3    H274964   3.230   5.012   5.933 -0.0240  0.5830  0.2302
17825TIP3   OH274965   5.827   0.583  12.740 -0.6351 -0.2189  0.5527
17825TIP3    H174966   5.774   0.518  12.785  0.4241 -2.3468 -1.1129
17825TIP3    H274967   5.786   0.593  12.654  0.5151 -0.4264 -0.0368
17826TIP3   OH274968   2.645   3.716  17.663 -0.3031  0.5050  0.1405
17826TIP3    H174969   2.642   3.750  17.753  0.3312 -0.0068  0.3672
17826TIP3    H274970   2.738   3.707  17.644 -0.3684 -2.4143  0.6504
17827TIP3   OH274971   1.585   6.368   2.644  0.1552 -0.4154  0.0765
17827TIP3    H174972   1.613   6.418   2.721 -0.0354 -0.2665  0.0487
17827TIP3    H274973   1.499   6.404   2.622  0.5046  0.0137 -0.6265
17828TIP3   OH274974   4.178   0.892   0.284 -0.2755 -0.4340 -0.1502
17828TIP3    H174975   4.212   0.826   0.224  2.3954  0.8354 -0.2049
17828TIP3    H274976   4.171   0.847   0.368  2.9387 -0.5611  0.1703
17829TIP3   OH274977   2.341   5.517  17.310 -0.1758 -0.3545 -0.4576
17829TIP3    H174978   2.265   5.543  17.363 -0.5104 -1.3612 -0.4320
17829TIP3    H274979   2.383   5.447  17.359 -0.0831 -0.8157 -1.1827
17830TIP3   OH274980   0.373   3.902  15.408 -0.4037 -0.0850 -0.5249
17830TIP3    H174981   0.280   3.887  15.391 -0.4498  0.5181 -0.8287
17830TIP3    H274982   0.382   3.997  15.412  0.3354 -0.1033 -1.2978
17831TIP3   OH274983   1.244   2.975   1.672 -0.2571 -0.2324  0.2086
17831TIP3    H174984   1.212   2.936   1.753  0.0762  0.5534  0.7311
17831TIP3    H274985   1.241   3.070   1.689  1.8873 -0.1029  0.1046
17832TIP3   OH274986   5.485   6.099   2.681 -0.3808  0.4168  0.0814
17832TIP3    H174987   5.513   6.033   2.618  1.2459 -0.3224  1.4776
17832TIP3    H274988   5.410   6.059   2.726  0.1194 -0.1736  0.4000
17833TIP3   OH274989   2.835   1.066  15.623  0.4243  0.0281  0.3035
17833TIP3    H174990   2.894   1.115  15.565 -0.6087  1.0704  0.1078
17833TIP3    H274991   2.843   1.110  15.707  1.6858 -1.2943  0.9151
17834TIP3   OH274992   5.498   0.746  15.095  0.4389 -0.4107  0.4876
17834TIP3    H174993   5.487   0.734  15.190 -3.7702 -1.2438  0.0835
17834TIP3    H274994   5.545   0.668  15.066 -1.2538 -1.9007  1.5440
17835TIP3   OH274995   5.683   4.428   2.459  0.2551  0.0361  0.2621
17835TIP3    H174996   5.673   4.509   2.409  1.0190  1.0205  1.6470
17835TIP3    H274997   5.604   4.378   2.439 -0.0092  0.8918 -0.9964
17836TIP3   OH274998   0.201   1.009  12.386  0.1845  0.0047 -0.0908
17836TIP3    H174999   0.249   1.015  12.469  1.5708 -0.7153 -0.8134
17836TIP3    H275000   0.146   0.932  12.396  2.2399 -1.6598 -0.7172
17837TIP3   OH275001   4.627   6.562   1.765 -0.6033  0.1628  0.3956
17837TIP3    H175002   4.567   6.635   1.778 -0.6866 -0.3428  3.6528
17837TIP3    H275003   4.584   6.488   1.808  0.8198 -1.0663 -0.2093
17838TIP3   OH275004   1.228   0.084   3.387 -0.1209  0.2776 -0.1766
17838TIP3    H175005   1.239   0.163   3.440  0.0901  0.3707 -0.3620
17838TIP3    H275006   1.316   0.061   3.357 -0.1877  0.0038 -0.1700
17839TIP3   OH275007   1.693   1.124  13.922  0.1881  0.3052 -0.5375
17839TIP3    H175008   1.680   1.029  13.920  2.1500 -0.0021 -1.5240
17839TIP3    H275009   1.738   1.140  14.004  1.7518  0.0404 -1.3021
17840TIP3   OH275010   5.439   3.694  15.369  0.4469  0.0605  0.0442
17840TIP3    H175011   5.514   3.698  15.309  0.1587  3.3754 -0.2707
17840TIP3    H275012   5.458   3.618  15.425  3.4175  0.0339 -0.7986
17841TIP3   OH275013   4.187   4.488   6.121  0.1245  0.9618 -0.4484
17841TIP3    H175014   4.193   4.508   6.028 -0.5291  0.6572 -0.5662
17841TIP3    H275015   4.272   4.451   6.143 -0.5873 -1.5960 -1.5979
17842TIP3   OH275016   1.953   1.190  12.347 -0.0439  0.3333 -0.4441
17842TIP3    H175017   1.904   1.157  12.271  0.4900  0.9050 -1.0496
17842TIP3    H275018   1.885   1.226  12.405 -0.3988  0.6099 -1.0168
17843TIP3   OH275019   1.835   1.608  13.253  0.5120 -0.1347  0.5650
17843TIP3    H175020   1.766   1.633  13.314  1.6394  0.6437  1.5706
17843TIP3    H275021   1.802   1.635  13.167 -0.2555  0.5987  1.0782
17844TIP3   OH275022   5.254   4.060  12.934 -0.1381  0.0430  0.6535
17844TIP3    H175023   5.210   4.034  12.853 -0.2037 -3.0327  1.5441
17844TIP3    H275024   5.342   4.087  12.907 -0.5607  0.2643 -0.5384
17845TIP3   OH275025   6.292   0.772   3.740  0.4431 -0.8388  0.1688
17845TIP3    H175026   6.222   0.708   3.730  1.4520 -1.9948  0.2917
17845TIP3    H275027   6.249   0.856   3.727 -0.5880 -1.6027 -1.7260
17846TIP3   OH275028   6.349   1.300   2.765 -0.0966  0.3692 -0.0016
17846TIP3    H175029   6.325   1.285   2.857  2.2835 -0.8728  0.4924
17846TIP3    H275030   6.266   1.318   2.722 -1.7623 -2.1934  1.8053
17847TIP3   OH275031   0.084   4.420  13.915  0.6983  0.1858  0.4010
17847TIP3    H175032   0.046   4.386  13.996  0.8565  0.4071  0.5669
17847TIP3    H275033   0.165   4.369  13.904  0.6345  0.0976  0.3372
17848TIP3   OH275034   0.526   5.645   1.367  0.1272 -0.1275 -0.1190
17848TIP3    H175035   0.526   5.635   1.463  0.1006  0.6223 -0.0345
17848TIP3    H275036   0.433   5.657   1.344  0.1698  0.0898 -0.1863
17849TIP3   OH275037   4.103   2.920  14.222 -0.0425  0.4508 -0.4667
17849TIP3    H175038   4.110   3.015  14.226  2.6255  0.3720 -1.2507
17849TIP3    H275039   4.097   2.893  14.314 -1.6629  1.3591 -0.2651
17850TIP3   OH275040   5.607   1.282   1.584 -0.1411  0.2211 -1.0971
17850TIP3    H175041   5.520   1.316   1.602  0.7821  2.2310 -0.1514
17850TIP3    H275042   5.633   1.237   1.664 -1.4282 -3.1530 -2.3953
17851TIP3   OH275043   2.685   4.411  12.153  0.6038 -0.3434 -0.2188
17851TIP3    H175044   2.677   4.342  12.218 -0.3292 -0.2604 -0.2374
17851TIP3    H275045   2.656   4.490  12.199  0.8646 -0.1110 -0.4513
17852TIP3   OH275046   2.285   0.564  11.406  0.0657 -0.1074 -0.0904
17852TIP3    H175047   2.259   0.636  11.463 -0.9873 -0.6002  0.0870
17852TIP3    H275048   2.340   0.604  11.339  0.5565  0.6356  0.7403
17853TIP3   OH275049   4.931   3.380  11.758  0.0729  0.0841 -0.2312
17853TIP3    H175050   4.938   3.290  11.726 -0.6044 -0.6234  1.4811
17853TIP3    H275051   4.866   3.375  11.829  2.5441  1.1860  2.3196
17854TIP3   OH275052   2.410   0.016   5.370 -0.3135 -0.6405 -0.3112
17854TIP3    H175053   2.392  -0.069   5.411 -0.7755 -0.2505  0.3199
17854TIP3    H275054   2.324   0.053   5.352 -0.1475 -1.3576 -2.8937
17855TIP3   OH275055   1.010   0.780   2.926  0.0641  0.3282 -0.5901
17855TIP3    H175056   0.946   0.778   2.997  0.3788 -0.0953 -0.3172
17855TIP3    H275057   1.059   0.699   2.935  2.0116  1.5702  0.4805
17856TIP3   OH275058   5.484   3.158   0.291 -0.5601  0.0060  0.2222
17856TIP3    H175059   5.541   3.235   0.290  0.8361 -0.9695 -1.6107
17856TIP3    H275060   5.415   3.179   0.227  0.2778 -0.5465 -0.8911
17857TIP3   OH275061   1.412   3.182   0.291  0.0063 -0.4460 -0.0462
17857TIP3    H175062   1.442   3.190   0.200 -0.4240 -1.5953 -0.3051
17857TIP3    H275063   1.488   3.206   0.343  0.2495  0.2651 -0.7013
17858TIP3   OH275064   5.651   4.031   5.511  0.2896  0.1845 -0.0087
17858TIP3    H175065   5.704   4.034   5.591 -0.5849  0.8278  0.5513
17858TIP3    H275066   5.671   4.114   5.467 -0.1032  0.3400  0.1076
17859TIP3   OH275067   2.210   2.561  14.944  0.4501 -0.6426 -0.3646
17859TIP3    H175068   2.228   2.470  14.924  0.7491 -0.8465  0.7930
17859TIP3    H275069   2.197   2.564  15.039  0.6286  0.5494 -0.3533
17860TIP3   OH275070   5.334   0.583   3.483 -0.0353 -0.2223  0.3892
17860TIP3    H175071   5.416   0.556   3.523 -0.0882  0.9976  1.3812
17860TIP3    H275072   5.355   0.662   3.434 -0.7454  0.5509  1.2887
17861TIP3   OH275073   3.612   5.281  16.030 -0.8889 -0.0601  0.1326
17861TIP3    H175074   3.611   5.371  16.064  1.0038  0.2497 -0.4941
17861TIP3    H275075   3.587   5.227  16.104  0.8301  0.7782  1.3846
17862TIP3   OH275076   5.009   2.610  13.103 -0.6040  0.7995  0.3859
17862TIP3    H175077   4.917   2.585  13.106 -0.8975  1.9210  1.0031
17862TIP3    H275078   5.053   2.545  13.158 -0.9893  0.1624 -0.0437
17863TIP3   OH275079   4.129   6.394  13.510  0.8354 -0.0758  0.3675
17863TIP3    H175080   4.123   6.335  13.436  2.2569 -0.1861  0.3143
17863TIP3    H275081   4.171   6.343  13.579 -0.7208 -0.0704  1.3801
17864TIP3   OH275082   1.743   0.914  11.918  0.6767 -0.7288  0.2202
17864TIP3    H175083   1.688   0.965  11.978 -0.1754 -0.8260 -0.4712
17864TIP3    H275084   1.767   0.836  11.968  1.6423  0.1098  1.1406
17865TIP3   OH275085   2.588   1.764  11.218  0.0719 -0.0188 -0.1515
17865TIP3    H175086   2.560   1.751  11.309 -0.9140 -1.5105 -0.6389
17865TIP3    H275087   2.547   1.847  11.192  2.7744  2.0559  1.6263
17866TIP3   OH275088   2.671   6.623   0.097  0.1160  0.1451 -0.0426
17866TIP3    H175089   2.685   6.532   0.126 -2.3681 -1.2626 -2.7071
17866TIP3    H275090   2.717   6.628   0.013 -0.0373  1.2853 -0.0723
17867TIP3   OH275091   1.366   1.771   0.261 -0.8609 -0.2434 -0.5469
17867TIP3    H175092   1.450   1.767   0.307  0.1760  0.9156 -2.2591
17867TIP3    H275093   1.315   1.835   0.311 -0.7059 -0.8315  0.4025
17868TIP3   OH275094   0.151   1.006   6.348  0.3304 -0.1832 -0.4439
17868TIP3    H175095   0.172   0.921   6.387  0.1980  0.0318  0.1030
17868TIP3    H275096   0.101   1.052   6.415  1.1825  0.6777 -0.3790
17869TIP3   OH275097   4.891   3.798  15.275 -0.2072 -0.3274  0.6113
17869TIP3    H175098   4.943   3.878  15.272  0.5042 -0.7465  1.4427
17869TIP3    H275099   4.860   3.786  15.185  2.1193 -0.7073 -0.2086
17870TIP3   OH275100   1.364   2.484  16.180  0.2111  0.2516 -0.6726
17870TIP3    H175101   1.407   2.521  16.103 -1.4015  0.4485 -1.5333
17870TIP3    H275102   1.302   2.551  16.208 -0.7763 -0.6819 -0.5554
17871TIP3   OH275103   0.557   3.885   5.520  0.1304 -0.1937 -0.0238
17871TIP3    H175104   0.561   3.792   5.501  0.6870 -0.1539 -0.1296
17871TIP3    H275105   0.464   3.903   5.533 -0.0738 -0.5988 -0.8422
17872TIP3   OH275106   4.713   0.544  12.194  0.2697 -0.3766  0.1961
17872TIP3    H175107   4.688   0.565  12.104 -2.0185 -0.5779  0.7202
17872TIP3    H275108   4.630   0.524  12.237  1.4011 -1.0201  2.1669
17873TIP3   OH275109   2.491   1.669   3.910 -0.6186 -0.4302 -0.0516
17873TIP3    H175110   2.520   1.578   3.899 -0.5043 -0.2574 -1.2123
17873TIP3    H275111   2.431   1.665   3.985  1.1044 -1.0650  1.3683
17874TIP3   OH275112   6.402   4.382   4.648 -0.3596  0.0217  0.5094
17874TIP3    H175113   6.336   4.321   4.615  1.9152 -1.9691 -0.6314
17874TIP3    H275114   6.422   4.438   4.573 -0.2725  0.1942  0.6614
17875TIP3   OH275115   0.185   3.105   2.492 -0.5773  0.4393 -0.4206
17875TIP3    H175116   0.233   3.176   2.534 -0.4256  0.0213  0.1178
17875TIP3    H275117   0.129   3.070   2.561  0.1412 -0.6727 -0.3747
17876TIP3   OH275118   6.241   3.338  14.186 -0.2986 -0.1146  0.3769
17876TIP3    H175119   6.301   3.372  14.252 -0.0476 -1.5197  0.9110
17876TIP3    H275120   6.297   3.288  14.127 -0.9321 -1.6925  1.0506
17877TIP3   OH275121   2.311   6.118  16.151 -0.5278  0.0460  0.6480
17877TIP3    H175122   2.233   6.171  16.134 -0.5862  0.9837  3.2577
17877TIP3    H275123   2.384   6.180  16.144 -0.0564 -0.6668 -1.0703
17878TIP3   OH275124   2.479   5.117  15.136 -0.1291  0.2539 -0.3832
17878TIP3    H175125   2.535   5.191  15.112  1.6785 -0.8520  0.3011
17878TIP3    H275126   2.427   5.100  15.057  1.9606  0.0249 -1.7871
17879TIP3   OH275127   0.581   1.964   2.958 -0.0180  0.0908  0.7342
17879TIP3    H175128   0.609   1.952   2.867  0.0283  0.6412  0.6729
17879TIP3    H275129   0.486   1.953   2.955  0.1534 -1.6717  0.9268
17880TIP3   OH275130   4.233   1.298  16.774 -0.5301 -0.4567  0.0570
17880TIP3    H175131   4.250   1.295  16.868 -0.2490  0.5677  0.0502
17880TIP3    H275132   4.138   1.293  16.767 -0.8783  2.8209  0.6393
17881TIP3   OH275133   0.280   3.721  12.782 -0.1161 -0.3017  0.5478
17881TIP3    H175134   0.307   3.646  12.835 -0.0163 -1.6152 -1.2719
17881TIP3    H275135   0.193   3.697  12.750  0.6613 -0.5107 -1.5498
17882TIP3   OH275136   5.688   6.495   3.487  0.3115  0.1226 -0.0537
17882TIP3    H175137   5.736   6.446   3.421  3.1639 -0.2343  2.0565
17882TIP3    H275138   5.632   6.430   3.529  0.0197 -0.1058 -0.7939
17883TIP3   OH275139   5.101   1.286  12.655  0.3449  0.6625 -0.2210
17883TIP3    H175140   5.126   1.283  12.748 -4.9699  2.0437  1.6222
17883TIP3    H275141   5.096   1.194  12.629  3.4694  0.2693  0.1932
17884TIP3   OH275142   4.854   4.946   3.118  0.2167 -0.5061  0.1421
17884TIP3    H175143   4.934   4.901   3.146  1.2350 -0.4556 -2.4251
17884TIP3    H275144   4.863   4.952   3.023 -1.7440  1.6619  0.0358
17885TIP3   OH275145   3.060   4.887  13.801  0.3390 -0.6691  0.5366
17885TIP3    H175146   3.147   4.878  13.839  2.0263  0.9133 -2.5544
17885TIP3    H275147   3.036   4.979  13.818 -1.1747 -1.2872  2.0548
17886TIP3   OH275148   2.486   3.482  16.271 -0.8119 -0.0944 -0.2102
17886TIP3    H175149   2.552   3.446  16.329 -0.7646  2.4421  1.4584
17886TIP3    H275150   2.536   3.527  16.203 -0.8453 -0.2966 -0.3693
17887TIP3   OH275151   2.678   1.834   4.048  0.5962 -0.0856 -0.1193
17887TIP3    H175152   2.614   1.903   4.065  0.9511  0.3988 -0.7011
17887TIP3    H275153   2.637   1.779   3.981  0.5895 -0.0457 -0.1479
17888TIP3   OH275154   6.524   4.588   6.733 -0.4277  0.0061 -0.1770
17888TIP3    H175155   6.450   4.648   6.733  0.7436  1.5635  1.4066
17888TIP3    H275156   6.488   4.504   6.704 -2.3857  1.1514 -1.2184
17889TIP3   OH275157   1.384   5.878  12.517  0.5786 -0.4988 -0.2850
17889TIP3    H175158   1.393   5.952  12.577  2.3320  1.8588 -3.1268
17889TIP3    H275159   1.321   5.909  12.451  0.9066 -1.7519 -1.2298
17890TIP3   OH275160   5.204   5.857   5.412 -0.2119 -0.3363  0.2429
17890TIP3    H175161   5.207   5.806   5.332 -2.1235 -0.0448 -0.0652
17890TIP3    H275162   5.208   5.792   5.482  0.7922 -0.6367 -0.0808
17891TIP3   OH275163   5.943   2.323   1.270  0.2873  0.1635  0.1208
17891TIP3    H175164   5.960   2.384   1.342  0.9923 -1.0810  1.0478
17891TIP3    H275165   5.989   2.242   1.295 -1.2173 -1.0065 -0.7189
17892TIP3   OH275166   6.356   3.880   0.575 -0.0397  0.3669 -0.4042
17892TIP3    H175167   6.293   3.891   0.504 -0.7464  0.8404  0.2858
17892TIP3    H275168   6.314   3.920   0.651 -0.7499 -2.9437  1.1256
17893TIP3   OH275169   6.088   4.102   6.621 -0.3136  0.9940 -0.3717
17893TIP3    H175170   6.160   4.069   6.567 -0.0214  0.4214  0.3500
17893TIP3    H275171   6.106   4.067   6.708 -1.8282  0.3060 -0.3144
17894TIP3   OH275172   4.254   2.061  16.555  0.9297 -0.0409 -0.1751
17894TIP3    H175173   4.344   2.053  16.522  0.7959 -2.0676 -0.1918
17894TIP3    H275174   4.263   2.056  16.650  0.8855  0.4698 -0.1430
17895TIP3   OH275175   5.303   1.057   3.414  0.3024  0.3696 -0.1086
17895TIP3    H175176   5.306   1.026   3.505  0.4109 -0.2348 -0.3175
17895TIP3    H275177   5.251   1.138   3.419  0.9192  0.7433  0.6006
17896TIP3   OH275178   0.681   2.059   5.184  0.4452 -0.2840  0.0572
17896TIP3    H175179   0.713   2.042   5.272  1.4628 -0.1750 -0.2854
17896TIP3    H275180   0.605   2.116   5.198  0.4299 -0.4841  0.8713
17897TIP3   OH275181   2.747   4.974  12.495 -0.1765 -0.9766  0.2339
17897TIP3    H175182   2.811   4.980  12.566 -0.9824  0.7414  0.8628
17897TIP3    H275183   2.667   4.945  12.537 -0.8982  0.8897  0.2396
17898TIP3   OH275184   2.716   1.837  12.565  0.7030  0.0622  0.5624
17898TIP3    H175185   2.647   1.862  12.627  0.6786 -0.1708  0.6270
17898TIP3    H275186   2.705   1.743  12.553  1.0844  0.0068  0.6603
17899TIP3   OH275187   0.393   4.690   5.479 -0.0394 -0.1795 -0.6406
17899TIP3    H175188   0.424   4.634   5.550  0.5769 -0.3636 -1.0459
17899TIP3    H275189   0.298   4.694   5.490  0.1168  0.4401  0.6674
17900TIP3   OH275190   6.042   6.699   3.105 -0.0117 -0.7619 -0.1005
17900TIP3    H175191   6.105   6.762   3.141  1.7613 -0.1583 -3.8226
17900TIP3    H275192   5.980   6.752   3.055 -1.2648 -1.6835  0.4233
17901TIP3   OH275193   3.946   5.023  11.885 -0.3037  0.1394  0.4563
17901TIP3    H175194   3.904   5.071  11.814  3.4800  2.1221 -0.7303
17901TIP3    H275195   3.943   5.082  11.960  1.5868  1.0183 -0.1010
17902TIP3   OH275196   0.599   4.553   1.929  0.6695  0.1341 -0.0186
17902TIP3    H175197   0.532   4.484   1.935  0.7803 -0.0024 -0.3161
17902TIP3    H275198   0.596   4.581   1.837  1.8803 -0.7344 -0.3428
17903TIP3   OH275199   1.619   5.086   3.033 -0.5731  0.0647  0.1121
17903TIP3    H175200   1.598   5.062   2.943  0.2594  1.4873 -0.4964
17903TIP3    H275201   1.683   5.157   3.025 -1.4287  1.1104  1.7984
17904TIP3   OH275202   3.122   3.750   0.680  0.1068 -0.2130 -0.0457
17904TIP3    H175203   3.134   3.840   0.712 -2.1589  0.8120 -1.7959
17904TIP3    H275204   3.174   3.746   0.600  1.4923 -1.0650  0.8354
17905TIP3   OH275205   4.587   5.360   3.755 -0.6153  0.0869 -0.3250
17905TIP3    H175206   4.577   5.393   3.665 -0.0756  0.1704 -0.3607
17905TIP3    H275207   4.527   5.286   3.760  1.4793 -1.8554 -1.7385
17906TIP3   OH275208   0.357   5.102  11.938 -0.0598 -0.3430  0.1695
17906TIP3    H175209   0.307   5.021  11.925 -0.5213  0.1554 -1.4832
17906TIP3    H275210   0.446   5.079  11.913 -0.0300 -0.5436  0.4598
17907TIP3   OH275211   0.710   6.659   0.654  0.3076 -0.0311  0.3069
17907TIP3    H175212   0.737   6.601   0.584  2.8296 -0.0787  1.2358
17907TIP3    H275213   0.666   6.732   0.610 -0.0664 -1.0799 -1.1138
17908TIP3   OH275214   5.852   1.039   5.514 -0.9569 -0.0965  0.5046
17908TIP3    H175215   5.838   0.962   5.458  0.8433 -0.3142  0.2954
17908TIP3    H275216   5.883   1.106   5.454 -2.8972  0.9767  0.6191
17909TIP3   OH275217   1.601   5.314   4.242  0.5608  0.0040 -0.6244
17909TIP3    H175218   1.565   5.313   4.153 -0.3981  1.1240 -0.2745
17909TIP3    H275219   1.595   5.406   4.268  1.7808 -0.1460  0.2274
17910TIP3   OH275220   5.599   5.720  14.618 -0.2715  0.4721  0.3755
17910TIP3    H175221   5.613   5.629  14.593  0.8404  0.6502  0.2566
17910TIP3    H275222   5.629   5.725  14.709  0.1056  0.8029  0.2394
17911TIP3   OH275223   2.221   0.511  13.447 -0.3478 -0.4204  0.5659
17911TIP3    H175224   2.166   0.466  13.383 -1.1178  0.1040  0.8392
17911TIP3    H275225   2.272   0.574  13.396  2.0991 -2.7352 -0.1052
17912TIP3   OH275226   3.334   3.123   1.280 -0.2328  0.6305 -0.5353
17912TIP3    H175227   3.256   3.167   1.315  0.4541  1.9221 -0.5900
17912TIP3    H275228   3.386   3.102   1.357 -0.6217 -0.2455 -0.4983
17913TIP3   OH275229   2.328   2.113  15.901  0.2618 -0.4712 -0.1706
17913TIP3    H175230   2.289   2.183  15.954  1.3369  1.5700 -1.8872
17913TIP3    H275231   2.267   2.040  15.909 -0.2638  0.1485  2.7737
17914TIP3   OH275232   2.689   4.510  13.126  0.4688 -0.3957 -0.0024
17914TIP3    H175233   2.630   4.574  13.086 -0.4898  0.7167  2.8591
17914TIP3    H275234   2.662   4.426  13.089 -2.6122  0.1466  0.6819
17915TIP3   OH275235   1.096   0.083   4.716  0.3568  0.5995  0.7428
17915TIP3    H175236   1.100   0.066   4.622  0.3085  1.6536  0.5410
17915TIP3    H275237   1.047   0.009   4.751 -0.1402  0.4926 -0.1439
17916TIP3   OH275238   4.166   2.575  14.639 -0.0497  0.0134  0.4153
17916TIP3    H175239   4.115   2.555  14.560  0.0090 -2.0543  0.8333
17916TIP3    H275240   4.106   2.557  14.711 -0.1536  2.0490  0.8968
17917TIP3   OH275241   2.515   0.504   4.373  0.1381  0.1793  0.0142
17917TIP3    H175242   2.592   0.556   4.350 -0.1763  0.9923  0.7561
17917TIP3    H275243   2.455   0.517   4.300  0.4987 -0.0361 -0.3222
17918TIP3   OH275244   4.901   4.404  11.328 -0.3398 -0.0475  0.1865
17918TIP3    H175245   4.820   4.390  11.378  0.2041 -1.0210  0.8295
17918TIP3    H275246   4.947   4.474  11.374  0.6774 -1.6695  1.7736
17919TIP3   OH275247   5.050   1.964  12.843 -0.4144  0.1455  0.4341
17919TIP3    H175248   5.067   1.891  12.902 -0.3686 -1.2911 -1.2900
17919TIP3    H275249   5.016   2.033  12.900  1.7639 -0.3402  2.4745
17920TIP3   OH275250   0.519   4.885  12.115 -0.0708  0.2017  0.0237
17920TIP3    H175251   0.478   4.860  12.032  2.8948  0.1753 -1.5873
17920TIP3    H275252   0.447   4.888  12.177 -2.4285  0.0493 -2.4909
17921TIP3   OH275253   1.792   3.684  14.381  0.2956 -0.0450 -0.2272
17921TIP3    H175254   1.768   3.668  14.472  0.2987  0.1396 -0.1948
17921TIP3    H275255   1.730   3.631  14.330 -0.1171  0.3516 -0.1408
17922TIP3   OH275256   0.584   3.684  13.889 -0.0521  0.3532 -0.0692
17922TIP3    H175257   0.664   3.676  13.837  1.0305  0.6413  1.4945
17922TIP3    H275258   0.566   3.594  13.919  0.9175  0.5914  1.3102
17923TIP3   OH275259   3.311   3.676  12.145  0.5701  0.8644 -0.2990
17923TIP3    H175260   3.350   3.606  12.197  0.1861  1.0544  0.2595
17923TIP3    H275261   3.376   3.694  12.077 -0.0559 -1.1883 -1.5155
17924TIP3   OH275262   2.937   4.079   4.625 -0.3101 -0.5039 -0.4631
17924TIP3    H175263   3.001   4.119   4.566  0.7925 -1.3556  0.1206
17924TIP3    H275264   2.961   4.110   4.712 -2.5362  1.5525 -0.4896
17925TIP3   OH275265   0.509   2.356  16.239 -0.2654  0.4371  0.6607
17925TIP3    H175266   0.544   2.271  16.211  1.2810  1.1217  0.4378
17925TIP3    H275267   0.465   2.337  16.322  1.7100 -0.3010  1.6155
17926TIP3   OH275268   4.717   6.106  13.511 -0.0291  0.6561 -0.4210
17926TIP3    H175269   4.702   6.052  13.588  1.9440  0.7544  0.0696
17926TIP3    H275270   4.802   6.077  13.477  1.1437  3.4674 -0.1055
17927TIP3   OH275271   2.685   0.544  14.402 -0.5867  0.1938  0.0573
17927TIP3    H175272   2.650   0.633  14.409  1.5366  1.0920  0.0454
17927TIP3    H275273   2.684   0.510  14.491  0.5487  1.0564  0.4191
17928TIP3   OH275274   3.087   0.823   3.650 -0.5125 -0.1377  0.0675
17928TIP3    H175275   3.085   0.913   3.682 -0.2683 -0.2972  0.5547
17928TIP3    H275276   3.180   0.804   3.638 -0.6406  0.5494 -2.6515
17929TIP3   OH275277   0.903   4.523   0.375  0.1177  0.5305  0.1877
17929TIP3    H175278   0.882   4.597   0.432 -0.1805  1.8104 -1.5072
17929TIP3    H275279   0.829   4.517   0.315  0.4619 -0.7169 -0.1288
17930TIP3   OH275280   2.738   1.516  14.227 -0.2078 -0.1012  0.3119
17930TIP3    H175281   2.690   1.487  14.305 -1.3752  0.3389 -0.2150
17930TIP3    H275282   2.714   1.609  14.217 -1.6513 -0.6067 -1.6346
17931TIP3   OH275283   2.350   5.130  14.900  0.1210  0.2335  0.2527
17931TIP3    H175284   2.388   5.192  14.838  0.8387 -1.9194 -1.6165
17931TIP3    H275285   2.272   5.174  14.933  0.9522  2.3593 -0.4404
17932TIP3   OH275286   1.872   5.201   1.252 -0.6144 -0.3167 -0.2064
17932TIP3    H175287   1.837   5.139   1.317 -1.3641 -0.8106 -1.0512
17932TIP3    H275288   1.800   5.261   1.235  0.0742  0.7397  0.5151
17933TIP3   OH275289   1.596   5.221   3.662  0.0164  0.1678 -0.3222
17933TIP3    H175290   1.527   5.238   3.726 -1.6557  0.1018 -2.0166
17933TIP3    H275291   1.566   5.264   3.582  2.4412  0.9951 -0.8936
17934TIP3   OH275292   4.240   3.907   6.241  0.4133 -0.0194  0.1623
17934TIP3    H175293   4.253   3.891   6.147 -0.6580  0.3447 -0.0662
17934TIP3    H275294   4.171   3.845   6.266  0.7776 -0.1936  0.7400
17935TIP3   OH275295   6.000   1.205   6.684 -0.3364  0.3887 -0.3460
17935TIP3    H175296   6.063   1.265   6.643 -0.4384  1.3035  0.7888
17935TIP3    H275297   6.036   1.118   6.669  0.7064  0.8431 -0.5431
17936TIP3   OH275298   6.667   4.419  11.761 -0.8117  0.3426  0.0815
17936TIP3    H175299   6.630   4.506  11.745 -0.1173  0.1814 -2.9369
17936TIP3    H275300   6.636   4.365  11.688  0.9873 -1.2015  0.3841
17937TIP3   OH275301   5.036   4.667   3.653  0.1567 -0.4999 -0.1310
17937TIP3    H175302   5.030   4.740   3.592  1.0998 -0.0862  0.2527
17937TIP3    H275303   5.111   4.615   3.621  0.9833 -0.0015  0.9365
17938TIP3   OH275304   0.359   2.272   6.194 -0.3675 -0.1250 -0.1369
17938TIP3    H175305   0.347   2.354   6.146 -1.2064  1.0380  1.9493
17938TIP3    H275306   0.271   2.237   6.207 -0.1836 -0.2741  0.7855
17939TIP3   OH275307   0.728   0.811   5.334 -0.9481  0.4413  0.2819
17939TIP3    H175308   0.785   0.754   5.283 -0.5674  1.0921 -0.0333
17939TIP3    H275309   0.772   0.819   5.419 -0.1366  1.5717 -0.2179
17940TIP3   OH275310   1.211   4.045  11.228  0.1167  0.0378 -0.6631
17940TIP3    H175311   1.197   4.030  11.134 -1.7815 -0.4901 -0.3366
17940TIP3    H275312   1.189   4.137  11.242  0.3073  0.0917 -0.7207
17941TIP3   OH275313   2.510   5.551   5.339  0.2336  0.5157  0.3262
17941TIP3    H175314   2.564   5.551   5.260 -1.3717  1.7406 -0.8434
17941TIP3    H275315   2.444   5.484   5.322  0.5163  0.0171  1.1368
17942TIP3   OH275316   3.193   6.701   3.206  0.0235  0.6518  0.0634
17942TIP3    H175317   3.129   6.692   3.277  1.2931 -1.5417  1.0463
17942TIP3    H275318   3.220   6.793   3.211 -0.3917  0.7299  2.0340
17943TIP3   OH275319   4.257   5.135   2.816 -0.5740  0.8132  0.0673
17943TIP3    H175320   4.226   5.216   2.774  0.8373  1.1673 -0.3557
17943TIP3    H275321   4.245   5.068   2.748 -2.2939  0.5003  0.6140
17944TIP3   OH275322   0.119   6.363  13.528 -0.7383 -0.0726  0.0065
17944TIP3    H175323   0.117   6.399  13.439 -0.2590 -0.6867 -0.2571
17944TIP3    H275324   0.209   6.333  13.540 -0.3345  1.5533  1.3420
17945TIP3   OH275325   1.033   5.728   0.235  0.6704  0.1656  0.2201
17945TIP3    H175326   0.954   5.680   0.262 -0.2665  0.8463 -1.2088
17945TIP3    H275327   1.043   5.796   0.302  1.1182 -1.0247  1.4094
17946TIP3   OH275328   2.877   2.567   4.723  0.2010 -0.5659  0.2751
17946TIP3    H175329   2.828   2.485   4.736  0.0525 -0.2995  1.5121
17946TIP3    H275330   2.966   2.547   4.753  0.6104 -0.7511 -1.0154
17947TIP3   OH275331   2.123   5.159   3.641 -0.0332  0.0725 -0.5305
17947TIP3    H175332   2.166   5.226   3.588  0.8732  0.3392  0.4928
17947TIP3    H275333   2.132   5.078   3.590  0.5415  0.3816 -0.9243
17948TIP3   OH275334   0.356   4.399   1.942  0.0910  0.0097  0.4517
17948TIP3    H175335   0.297   4.356   2.004 -0.4633  0.8288  0.5107
17948TIP3    H275336   0.303   4.410   1.863  0.1803  0.6869  0.4794
17949TIP3   OH275337   3.178   4.766   6.363  0.0647  0.2062  0.1642
17949TIP3    H175338   3.172   4.861   6.377 -1.0994  0.0494  0.8557
17949TIP3    H275339   3.188   4.730   6.451  0.4751 -0.3254 -0.0959
17950TIP3   OH275340   1.794   1.437  16.818  0.2026 -0.1693  0.6789
17950TIP3    H175341   1.795   1.419  16.724  0.8901 -2.7755  1.1048
17950TIP3    H275342   1.702   1.454  16.838 -0.4197 -2.3180 -0.0829
17951TIP3   OH275343   0.825   2.836  13.127  0.0374 -0.2833 -0.3014
17951TIP3    H175344   0.797   2.926  13.108  0.2450  0.1943  1.4597
17951TIP3    H275345   0.913   2.845  13.162  0.4405 -1.2889 -1.0204
17952TIP3   OH275346   6.105   1.899  12.970  0.0280 -0.0299  0.3226
17952TIP3    H175347   6.075   1.854  13.049 -0.3835 -0.6748 -0.1903
17952TIP3    H275348   6.053   1.979  12.966  0.4332  0.2722  0.9893
17953TIP3   OH275349   4.098   2.376   3.559 -0.2208  0.4448  0.0216
17953TIP3    H175350   4.055   2.456   3.529  0.8583  1.3164  0.7141
17953TIP3    H275351   4.027   2.315   3.575 -1.2419  1.8606  1.1857
17954TIP3   OH275352   3.865   5.901  14.424  0.6831  0.3347  0.3585
17954TIP3    H175353   3.781   5.941  14.449  0.2448  0.4554 -1.1857
17954TIP3    H275354   3.888   5.944  14.342  1.9415 -0.1829  0.4126
17955TIP3   OH275355   0.528   2.433  12.608 -0.2408  0.2581 -0.0148
17955TIP3    H175356   0.589   2.406  12.677 -1.3407  0.4715  1.0811
17955TIP3    H275357   0.550   2.525  12.593  0.6403 -0.0388 -0.6716
17956TIP3   OH275358   0.818   1.737   3.922 -0.5119 -0.1527 -0.0040
17956TIP3    H175359   0.819   1.833   3.917 -0.6286  0.0235  2.1676
17956TIP3    H275360   0.875   1.708   3.851  0.5444  1.5855  0.0731
17957TIP3   OH275361   0.698   1.066  17.622 -0.3991 -0.1183 -0.2292
17957TIP3    H175362   0.743   1.140  17.663  0.9329 -1.1840  0.3334
17957TIP3    H275363   0.718   1.074  17.529  0.7948 -0.4228 -0.0210
17958TIP3   OH275364   0.765   6.099  13.721 -0.0075  0.1795  0.3592
17958TIP3    H175365   0.787   6.113  13.629 -1.3628  1.4414  0.1913
17958TIP3    H275366   0.765   6.004  13.732  1.1630  0.0322 -0.6687
17959TIP3   OH275367   6.482   2.110   5.263  0.6954  0.3462 -0.1160
17959TIP3    H175368   6.504   2.017   5.262 -1.2354 -0.1663  0.0841
17959TIP3    H275369   6.515   2.144   5.179  1.6367 -0.4520 -0.0774
17960TIP3   OH275370   4.637   0.168   6.458 -0.0606 -0.1804  0.0674
17960TIP3    H175371   4.569   0.124   6.510 -0.5375  0.4496 -0.0141
17960TIP3    H275372   4.651   0.110   6.383  0.9671 -1.3367  1.1058
17961TIP3   OH275373   5.577   2.372  17.504  0.0240  0.0816  0.0817
17961TIP3    H175374   5.650   2.316  17.478 -0.5984 -0.4851 -0.4912
17961TIP3    H275375   5.515   2.312  17.547 -0.3689  0.4468  0.0337
17962TIP3   OH275376   5.487   3.059   5.760 -0.0703  0.2429  0.4663
17962TIP3    H175377   5.500   3.035   5.668 -1.1848 -2.1275  0.8627
17962TIP3    H275378   5.575   3.078   5.792  0.6222 -1.0442 -0.5605
17963TIP3   OH275379   2.230   6.635  12.008 -0.7131 -0.2708 -0.7335
17963TIP3    H175380   2.171   6.622  11.934 -0.0158  0.7414 -1.4905
17963TIP3    H275381   2.226   6.552  12.056 -0.9356 -1.0744 -2.0834
17964TIP3   OH275382   0.353   4.725   1.607  0.6578 -0.1525 -0.6623
17964TIP3    H175383   0.290   4.785   1.648  1.7957 -0.5717  1.8766
17964TIP3    H275384   0.333   4.731   1.513 -2.2482  0.7334 -0.1114
17965TIP3   OH275385   4.810   2.311   5.993  0.1024  0.3274 -0.7062
17965TIP3    H175386   4.772   2.389   5.953 -0.8359  1.0634  1.5130
17965TIP3    H275387   4.886   2.343   6.041  0.4632 -0.3317 -0.8307
17966TIP3   OH275388   0.069   6.016   2.414 -0.2113  0.2334  0.0991
17966TIP3    H175389   0.043   6.057   2.331  3.2519  1.3135 -0.5988
17966TIP3    H275390   0.021   6.065   2.481 -1.4543  0.7562 -1.1249
17967TIP3   OH275391   5.796   2.788  14.260  0.3490 -0.4472  0.5404
17967TIP3    H175392   5.717   2.835  14.288 -0.0450  1.2068 -2.8105
17967TIP3    H275393   5.768   2.697  14.249 -1.4911  0.2729 -1.5053
17968TIP3   OH275394   0.648   4.127   2.063  0.5632 -0.3552 -0.5647
17968TIP3    H175395   0.588   4.174   2.122  0.2870 -1.9305  0.4774
17968TIP3    H275396   0.602   4.124   1.979  0.7726  1.5531 -0.7761
17969TIP3   OH275397   3.788   3.332   3.921  0.5233 -0.3252 -0.1697
17969TIP3    H175398   3.718   3.277   3.955  1.9156 -2.0011  0.1472
17969TIP3    H275399   3.808   3.392   3.993 -1.3677  1.0247 -0.7096
17970TIP3   OH275400   3.794   5.864  17.136  0.0899 -0.1708  0.1865
17970TIP3    H175401   3.788   5.840  17.043  1.7533  0.3022 -0.0707
17970TIP3    H275402   3.821   5.784  17.180 -0.1998 -0.2655  0.1922
17971TIP3   OH275403   1.993   5.886  17.595 -0.0079 -0.5926  0.7569
17971TIP3    H175404   2.029   5.874  17.506 -1.8547  2.5213 -0.5618
17971TIP3    H275405   1.909   5.842  17.593  0.4108 -1.4443  1.3641
17972TIP3   OH275406   1.860   3.602   5.328 -0.1445 -0.5360  0.0669
17972TIP3    H175407   1.927   3.538   5.351 -0.3212 -0.0254  2.2865
17972TIP3    H275408   1.820   3.626   5.412 -2.5819 -0.2296 -1.0866
17973TIP3   OH275409   3.126   3.835   0.101  0.2047  0.2366 -0.0189
17973TIP3    H175410   3.211   3.853   0.061  1.1886  0.3765  2.0151
17973TIP3    H275411   3.142   3.760   0.158 -0.9585  0.5023  0.6791
17974TIP3   OH275412   2.307   1.822  13.312 -0.5587 -0.1259 -0.0612
17974TIP3    H175413   2.263   1.814  13.227  0.0737 -2.9011 -0.2341
17974TIP3    H275414   2.286   1.740  13.358 -0.1298  0.9030  2.1196
17975TIP3   OH275415   6.642   4.813   4.115  0.2010  0.1280  0.3608
17975TIP3    H175416   6.639   4.730   4.162 -0.0189  2.2783  4.5870
17975TIP3    H275417   6.557   4.854   4.131  1.8704  3.1203  2.6884
17976TIP3   OH275418   2.212   3.376  14.529  0.0776 -0.1780 -0.0576
17976TIP3    H175419   2.122   3.408  14.523 -0.4606 -1.8055 -2.0598
17976TIP3    H275420   2.237   3.360  14.438  1.9864 -0.8642  0.5380
17977TIP3   OH275421   3.222   5.917   1.873 -0.6192 -0.1596 -0.0693
17977TIP3    H175422   3.136   5.877   1.858 -1.3247  1.0529  0.5600
17977TIP3    H275423   3.265   5.858   1.935 -0.0081 -2.0489 -2.1679
17978TIP3   OH275424   4.567   1.010   2.934  0.5228 -0.4567 -0.0097
17978TIP3    H175425   4.644   1.046   2.891  0.9679 -0.9609  0.3472
17978TIP3    H275426   4.594   0.922   2.961  0.0818 -0.3502  0.8136
17979TIP3   OH275427   3.772   3.191   5.548  0.1823  0.1335 -0.0250
17979TIP3    H175428   3.825   3.270   5.562 -0.5137  0.8665 -1.3117
17979TIP3    H275429   3.819   3.122   5.595  0.3072  1.4759  1.9820
17980TIP3   OH275430   5.969   2.732   4.391 -0.0105  0.3049  0.4683
17980TIP3    H175431   5.940   2.823   4.387 -0.3382  0.2303  1.0539
17980TIP3    H275432   5.993   2.718   4.483  0.9293  0.0677  0.2025
17981TIP3   OH275433   4.161   6.573   3.549  0.3347 -0.0780  0.6890
17981TIP3    H175434   4.144   6.630   3.624  0.0461 -2.2119  2.3145
17981TIP3    H275435   4.075   6.547   3.517  0.4284 -1.4629  1.4799
17982TIP3   OH275436   2.249   6.320   5.496  0.3167 -0.0319  0.0461
17982TIP3    H175437   2.260   6.235   5.538  2.0084  0.6017  1.0327
17982TIP3    H275438   2.338   6.356   5.493 -0.1880  1.1877 -1.4753
17983TIP3   OH275439   6.466   3.097  14.500 -0.0460  0.2107 -0.1880
17983TIP3    H175440   6.437   3.073  14.412 -1.2354  0.2418  0.1884
17983TIP3    H275441   6.502   3.016  14.536 -0.7321 -0.1219 -0.2405
17984TIP3   OH275442   2.539   2.097   2.213  0.2967 -0.0757 -0.5960
17984TIP3    H175443   2.616   2.044   2.233 -0.7976 -1.1866  0.9756
17984TIP3    H275444   2.554   2.180   2.260  0.3648 -0.4438  0.0457
17985TIP3   OH275445   2.306   1.902   7.165  0.8544  0.2254 -0.2862
17985TIP3    H175446   2.390   1.860   7.145  0.5923 -0.4373 -0.0475
17985TIP3    H275447   2.244   1.857   7.107  0.8651  1.5999 -1.4029
17986TIP3   OH275448   3.900   3.431  14.938  0.3983 -0.2908 -0.7548
17986TIP3    H175449   3.838   3.462  14.872 -0.3661  1.1641  0.5683
17986TIP3    H275450   3.960   3.505  14.950  0.3003 -0.3721  0.4025
17987TIP3   OH275451   1.271   5.717   2.782  0.0957  0.4730 -0.1527
17987TIP3    H175452   1.336   5.689   2.847  0.6392 -1.7350 -1.5364
17987TIP3    H275453   1.319   5.716   2.699 -0.7742  2.5036 -0.7274
17988TIP3   OH275454   3.049   6.389   2.738 -0.3580 -0.0510 -0.0573
17988TIP3    H175455   3.053   6.359   2.828 -0.0756 -0.7914 -0.3109
17988TIP3    H275456   2.986   6.332   2.695 -1.2538  0.9425 -0.0967
17989TIP3   OH275457   5.903   6.210   3.022  0.1879  0.0148 -0.3522
17989TIP3    H175458   5.969   6.280   3.018  1.0046 -0.7916 -2.0325
17989TIP3    H275459   5.845   6.228   2.949 -1.9660  1.0981  1.4891
17990TIP3   OH275460   2.529   4.982  11.029 -0.0904 -0.0721  0.1909
17990TIP3    H175461   2.586   5.043  10.982 -0.1669 -0.2825 -0.1867
17990TIP3    H275462   2.563   4.896  11.007 -0.1807 -0.1760  0.4595
17991TIP3   OH275463   2.473   1.679  16.562 -0.3196 -0.2502  0.3126
17991TIP3    H175464   2.401   1.616  16.572  0.1347 -0.8341 -0.0734
17991TIP3    H275465   2.429   1.762  16.544 -0.8970 -0.6444 -0.1437
17992TIP3   OH275466   1.298   1.680   3.519 -0.3152  0.0231  0.0506
17992TIP3    H175467   1.225   1.740   3.534 -0.2084  0.1751 -0.0326
17992TIP3    H275468   1.317   1.689   3.425 -0.3356 -0.1829  0.0257
17993TIP3   OH275469   3.769   2.133  12.387  0.2078  0.5593  0.5034
17993TIP3    H175470   3.688   2.112  12.434 -0.3443  0.7489 -0.3414
17993TIP3    H275471   3.752   2.218  12.346  0.5062  0.2034 -0.3947
17994TIP3   OH275472   0.614   0.458  11.969 -0.4071 -0.2610  0.0958
17994TIP3    H175473   0.690   0.400  11.976  0.6689  1.0051 -0.5728
17994TIP3    H275474   0.547   0.404  11.927  0.6368 -0.9651 -0.7312
17995TIP3   OH275475   3.079   3.519   5.643  0.1429  0.0095  0.4052
17995TIP3    H175476   3.090   3.550   5.553  1.3597  2.3945  1.2713
17995TIP3    H275477   2.993   3.552   5.669 -0.1263 -0.5143  0.1896
17996TIP3   OH275478   4.078   5.176   1.346 -0.2329  0.1277  0.1186
17996TIP3    H175479   4.043   5.246   1.402  1.7474  1.5436 -0.3275
17996TIP3    H275480   4.145   5.218   1.293  1.0339 -2.1024 -0.2014
17997TIP3   OH275481   2.839   0.268  16.889 -0.2802 -0.1165 -0.0801
17997TIP3    H175482   2.928   0.241  16.911 -0.3719 -1.0831 -0.8406
17997TIP3    H275483   2.784   0.224  16.954 -0.2400  0.1414  0.1301
17998TIP3   OH275484   3.374   2.763   4.613  0.1277 -0.3131  0.3122
17998TIP3    H175485   3.417   2.678   4.607 -0.6356 -0.7435  0.8415
17998TIP3    H275486   3.302   2.758   4.551  0.4224  0.1672 -0.0798
17999TIP3   OH275487   1.336   0.728  15.093  0.1858 -0.0407  0.2659
17999TIP3    H175488   1.283   0.699  15.019  0.1541 -0.2557  0.3722
17999TIP3    H275489   1.364   0.816  15.069 -1.7557  0.8170  1.0387
18000TIP3   OH275490   1.127   3.638  17.431 -0.0516  0.2135 -0.1916
18000TIP3    H175491   1.152   3.731  17.431  0.1589  0.1592 -0.6593
18000TIP3    H275492   1.078   3.626  17.350 -2.1024  0.4338  0.9485
18001TIP3   OH275493   2.921   5.680  12.213  0.0924  0.7392 -0.4637
18001TIP3    H175494   3.004   5.679  12.261  0.5445  1.9285 -1.1464
18001TIP3    H275495   2.927   5.605  12.154 -0.6577 -0.9957  1.5593
18002TIP3   OH275496   0.282   6.478   4.880  0.1267 -0.2649 -0.2910
18002TIP3    H175497   0.273   6.564   4.922  0.5840 -0.7561  0.8370
18002TIP3    H275498   0.227   6.485   4.802  0.7605  1.3097 -0.6433
18003TIP3   OH275499   0.249   2.763  15.285  0.0913 -0.6004 -0.0124
18003TIP3    H175500   0.167   2.727  15.318 -0.3278  0.2763 -0.0482
18003TIP3    H275501   0.267   2.714  15.205 -0.6875 -0.4466 -0.2913
18004TIP3   OH275502   1.438   0.455   5.619 -0.0546  0.5926 -0.0040
18004TIP3    H175503   1.449   0.545   5.589  0.3805  0.6547  0.3372
18004TIP3    H275504   1.527   0.421   5.628 -0.2224 -0.1479 -0.9445
18005TIP3   OH275505   3.345   1.639   0.125 -0.0490 -0.5584  0.3260
18005TIP3    H175506   3.387   1.696   0.190  0.7417 -1.7281  0.8731
18005TIP3    H275507   3.327   1.697   0.051  2.0896  0.1210  0.2558
18006TIP3   OH275508   1.954   6.539   2.760 -0.7020  0.0744  0.4342
18006TIP3    H175509   2.015   6.478   2.802 -0.3174  1.1781  1.5338
18006TIP3    H275510   1.944   6.505   2.671  0.4085 -0.9282  0.6655
18007TIP3   OH275511   0.843   4.531   6.188 -0.1977 -0.0466 -0.2349
18007TIP3    H175512   0.883   4.538   6.274  1.7186  1.0096 -1.1335
18007TIP3    H275513   0.787   4.608   6.180 -1.2059 -0.6966  0.4380
18008TIP3   OH275514   1.688   1.117   4.133 -0.6911  0.1037 -0.0188
18008TIP3    H175515   1.598   1.147   4.149 -1.1983 -0.8995 -0.9090
18008TIP3    H275516   1.718   1.086   4.218 -1.1554  0.5120  0.3053
18009TIP3   OH275517   2.337   2.103   5.486 -0.7061 -0.3057  0.3789
18009TIP3    H175518   2.318   2.197   5.490 -1.7746 -0.5018  0.3006
18009TIP3    H275519   2.399   2.088   5.556 -0.1382  0.5465  0.0817
18010TIP3   OH275520   0.909   2.633  12.570 -0.0928  0.5210  0.2773
18010TIP3    H175521   1.004   2.617  12.566 -0.3243 -1.1336  0.8461
18010TIP3    H275522   0.879   2.582  12.645 -1.4519  1.0324  0.1062
18011TIP3   OH275523   1.960   1.411  12.060  0.0324  0.5873 -0.6025
18011TIP3    H175524   1.870   1.384  12.079  0.5863 -0.5821  0.5802
18011TIP3    H275525   1.960   1.506  12.073 -1.2219  0.7424 -1.5517
18012TIP3   OH275526   6.171   2.158   2.816 -0.5850  0.3064  0.0716
18012TIP3    H175527   6.242   2.123   2.761 -0.0965  0.8734  0.3353
18012TIP3    H275528   6.092   2.115   2.782  0.1801 -2.5451  1.6009
18013TIP3   OH275529   1.036   1.105  16.493  0.3103 -0.2084 -0.1813
18013TIP3    H175530   0.984   1.145  16.423  0.4965 -0.0078 -0.2017
18013TIP3    H275531   1.102   1.053  16.447  0.1075 -0.4951 -0.1555
18014TIP3   OH275532   5.635   6.655   3.160  0.4763 -0.1426  0.2952
18014TIP3    H175533   5.540   6.639   3.160  0.1807  1.2343  2.3618
18014TIP3    H275534   5.672   6.575   3.125 -1.4181 -1.0227  0.1487
18015TIP3   OH275535   0.945   1.121  13.200  0.0293 -0.4200 -0.7119
18015TIP3    H175536   0.880   1.075  13.252  0.7140 -1.1526 -0.4961
18015TIP3    H275537   0.893   1.182  13.146 -0.6852  0.3472  0.7809
18016TIP3   OH275538   1.252   3.015  12.401  0.3088  0.5246 -0.5151
18016TIP3    H175539   1.224   2.946  12.340 -1.1258 -0.7319  1.4393
18016TIP3    H275540   1.322   2.974  12.452  0.2535  0.9234 -0.1134
18017TIP3   OH275541   4.418   6.210   4.017 -0.0171  0.2371 -0.4116
18017TIP3    H175542   4.390   6.282   4.072  0.2094  0.7173 -0.9160
18017TIP3    H275543   4.460   6.148   4.077  0.9273  1.1102 -0.1500
18018TIP3   OH275544   3.993   5.195   6.704 -0.6304  0.3890 -0.0419
18018TIP3    H175545   4.056   5.123   6.697  1.7731  2.0466  2.6290
18018TIP3    H275546   3.978   5.205   6.797 -2.3573  2.1701 -0.4542
18019TIP3   OH275547   5.085   4.084   4.158  0.6317 -0.3054  0.9809
18019TIP3    H175548   5.023   4.075   4.231 -1.4433 -0.6048 -0.7206
18019TIP3    H275549   5.110   4.177   4.159 -1.0379  0.1806  0.8529
18020TIP3   OH275550   2.213   1.251  12.444  0.2987  0.5517  0.3567
18020TIP3    H175551   2.193   1.200  12.522 -1.1581  2.1069  1.0777
18020TIP3    H275552   2.129   1.259  12.398  0.5417  1.9362  0.0908
18021TIP3   OH275553   1.935   2.473  16.453  0.2354  0.1987 -1.1205
18021TIP3    H175554   1.917   2.393  16.404 -1.3740  0.5340 -1.1187
18021TIP3    H275555   1.875   2.538  16.418 -1.1580  0.3974  1.3820
18022TIP3   OH275556   3.352   0.851   3.518  0.2333  0.0107  0.2395
18022TIP3    H175557   3.407   0.773   3.527 -0.7035 -1.2067 -3.1316
18022TIP3    H275558   3.401   0.907   3.457 -0.0073  1.1816  1.0996
18023TIP3   OH275559   2.830   0.888   1.211 -0.0783  0.2853 -0.3106
18023TIP3    H175560   2.856   0.903   1.302  2.8040  0.8897 -1.0991
18023TIP3    H275561   2.805   0.975   1.179  0.0367  0.2917 -0.3850
18024TIP3   OH275562   3.337   6.260   2.285  0.1403 -0.6472  0.6134
18024TIP3    H175563   3.311   6.239   2.195 -0.3392 -2.2627  1.0811
18024TIP3    H275564   3.277   6.329   2.313  0.7965  0.4273 -0.5381
18025TIP3   OH275565   6.366   0.761   4.802  0.4417  0.5148  0.3319
18025TIP3    H175566   6.389   0.725   4.716 -0.2012  1.3946 -0.2179
18025TIP3    H275567   6.420   0.711   4.864  1.2354  0.1708 -0.6158
18026TIP3   OH275568   4.428   0.645  17.311 -0.7591 -0.2437 -0.0495
18026TIP3    H175569   4.520   0.669  17.306 -0.7789 -0.4886 -2.7371
18026TIP3    H275570   4.425   0.575  17.377  0.8211  0.3093  0.6473
18027TIP3   OH275571   4.847   0.357   5.620 -0.9549 -0.1043 -0.3519
18027TIP3    H175572   4.800   0.352   5.537  0.7558  1.4310 -1.4989
18027TIP3    H275573   4.875   0.448   5.626 -1.8532  0.0949  2.4412
18028TIP3   OH275574   4.617   3.699  14.536  0.4531 -0.2129 -0.5943
18028TIP3    H175575   4.596   3.778  14.586  0.1678 -0.7310  0.1046
18028TIP3    H275576   4.669   3.731  14.462  0.5772  0.5935 -0.1622
18029TIP3   OH275577   1.670   5.542   0.839  0.1158  0.2281  0.3374
18029TIP3    H175578   1.576   5.560   0.833  0.2042  0.3900 -0.6032
18029TIP3    H275579   1.677   5.481   0.913 -0.8700 -0.7191 -0.3102
18030TIP3   OH275580   6.299   2.357  15.642  0.3467 -0.2774  0.6329
18030TIP3    H175581   6.209   2.327  15.656  0.1852  0.2600  0.7388
18030TIP3    H275582   6.350   2.276  15.635 -0.1786 -0.5875  0.3257
18031TIP3   OH275583   0.471   1.076  17.185  0.4470  0.0312 -0.1702
18031TIP3    H175584   0.477   1.134  17.110  0.1848  0.6820  0.2993
18031TIP3    H275585   0.448   1.134  17.258 -1.3078 -0.8536  0.0417
18032TIP3   OH275586   0.842   4.498   5.321  0.2011  0.3480 -0.1012
18032TIP3    H175587   0.756   4.457   5.328  1.0683 -1.4159  0.7889
18032TIP3    H275588   0.864   4.523   5.410  1.5553 -1.3185  0.0803
18033TIP3   OH275589   4.315   4.186   5.946 -0.0166  0.4298 -0.0658
18033TIP3    H175590   4.328   4.235   6.028  2.4177  1.0418 -0.7427
18033TIP3    H275591   4.384   4.119   5.947 -1.6669 -1.3448 -0.3988
18034TIP3   OH275592   4.599   1.258  15.970  0.1150  0.8256  0.5232
18034TIP3    H175593   4.559   1.219  15.893  2.5850 -1.7952  0.3860
18034TIP3    H275594   4.666   1.317  15.935  0.2364  0.7834  0.6809
18035TIP3   OH275595   2.319   4.177  11.066  0.0955  0.3835  0.4729
18035TIP3    H175596   2.323   4.259  11.017  0.5251  0.0877  0.0051
18035TIP3    H275597   2.408   4.163  11.099  0.3141 -0.4703 -0.4255
18036TIP3   OH275598   5.267   0.181  15.235 -0.2723 -0.0433 -0.2796
18036TIP3    H175599   5.230   0.253  15.185 -0.0234  1.1687  1.2059
18036TIP3    H275600   5.310   0.126  15.169 -3.3464 -0.7528 -1.8848
18037TIP3   OH275601   2.660   1.803   6.909  0.1183 -0.3239  0.6433
18037TIP3    H175602   2.613   1.871   6.861 -0.3976 -0.7198  0.5802
18037TIP3    H275603   2.681   1.737   6.843  1.5116  0.2338  0.5040
18038TIP3   OH275604   5.853   0.406  16.017  0.2101 -0.3269 -0.0903
18038TIP3    H175605   5.826   0.390  16.108  0.3793 -0.7378 -0.1133
18038TIP3    H275606   5.931   0.460  16.024 -0.4186  0.6029 -0.0161
18039TIP3   OH275607   1.239   3.454   5.819  0.6359  0.1056 -0.4033
18039TIP3    H175608   1.292   3.475   5.743  0.2868  0.6485 -0.5000
18039TIP3    H275609   1.238   3.358   5.822 -2.0668 -0.1137 -3.0627
18040TIP3   OH275610   6.597   1.209  13.335 -0.4283 -0.1912  0.2030
18040TIP3    H175611   6.676   1.160  13.313 -0.3560 -0.1026  0.2671
18040TIP3    H275612   6.625   1.273  13.401 -0.6064 -0.3357  0.4242
18041TIP3   OH275613   1.108   0.689  17.667  0.1406 -0.1698  0.0564
18041TIP3    H175614   1.068   0.672  17.752 -0.8032  0.8038 -0.1716
18041TIP3    H275615   1.117   0.785  17.663  1.0546 -0.2621 -0.5527
18042TIP3   OH275616   3.722   6.713   0.136 -0.1319  0.4024 -0.8454
18042TIP3    H175617   3.639   6.723   0.181  0.1342  1.2859 -0.5329
18042TIP3    H275618   3.717   6.626   0.095 -0.4679 -0.3264  0.6691
18043TIP3   OH275619   1.987   2.153   4.322 -0.0635 -0.3911 -0.2055
18043TIP3    H175620   1.917   2.187   4.378  1.4134 -0.6715  1.9226
18043TIP3    H275621   1.944   2.135   4.239 -2.0485  1.4397  0.3350
18044TIP3   OH275622   1.762   3.674   0.918 -0.1201 -0.2234 -0.6157
18044TIP3    H175623   1.807   3.694   1.000  1.9364  2.3364 -2.2219
18044TIP3    H275624   1.686   3.733   0.917 -0.4006 -0.5790 -0.3590
18045TIP3   OH275625   6.544   5.162   2.287 -0.6077 -0.1170  0.3368
18045TIP3    H175626   6.466   5.207   2.257 -0.5070 -1.0745 -1.4416
18045TIP3    H275627   6.614   5.195   2.231 -0.0452 -0.5349  0.7764
18046TIP3   OH275628   6.359   5.137   6.929 -0.1260 -0.5297  0.2825
18046TIP3    H175629   6.431   5.196   6.951 -0.3120 -1.0394  2.4327
18046TIP3    H275630   6.281   5.180   6.963 -0.3580 -1.6225  1.2065
18047TIP3   OH275631   3.580   6.051  14.855 -0.2817 -0.0450  0.2708
18047TIP3    H175632   3.536   5.967  14.846 -0.0123 -0.1100 -0.5070
18047TIP3    H275633   3.527   6.111  14.802 -0.1673  0.1576  0.3865
18048TIP3   OH275634   0.300   6.031   1.197 -0.0282 -0.5132 -0.4771
18048TIP3    H175635   0.269   6.115   1.164  0.3779  0.0854  0.5929
18048TIP3    H275636   0.318   6.047   1.290 -0.5727 -1.9585 -0.0903
18049TIP3   OH275637   0.059   2.511  15.374  0.3247  0.5003  0.0146
18049TIP3    H175638  -0.021   2.458  15.381  1.0608 -0.5492  0.7325
18049TIP3    H275639   0.087   2.502  15.283  0.1609  0.0749  0.0063
18050TIP3   OH275640   5.578   0.836  17.319 -0.1355  0.0241 -0.3547
18050TIP3    H175641   5.631   0.905  17.358 -1.6661  0.8067  0.4046
18050TIP3    H275642   5.613   0.755  17.357  2.2915  0.1963 -1.9619
18051TIP3   OH275643   5.497   5.203   2.312  0.4513  0.6176  0.4227
18051TIP3    H175644   5.464   5.244   2.232  1.4503  0.2562 -0.1993
18051TIP3    H275645   5.427   5.213   2.376 -0.4920  0.6298 -0.5983
18052TIP3   OH275646   5.052   6.673  15.575  0.2444 -0.0931 -0.4953
18052TIP3    H175647   4.961   6.659  15.551  0.1842  0.1426 -0.4126
18052TIP3    H275648   5.072   6.603  15.638 -0.3086  0.6922  0.5808
18053TIP3   OH275649   2.724   6.460   1.851  0.2816  0.5526  0.2973
18053TIP3    H175650   2.725   6.383   1.793  1.6548  0.0504  0.9359
18053TIP3    H275651   2.704   6.533   1.793  2.0435  0.1217 -0.9510
18054TIP3   OH275652   5.485   4.717   5.995 -0.1974 -0.8177  0.1545
18054TIP3    H175653   5.479   4.773   5.918  1.1450  1.7494  1.7991
18054TIP3    H275654   5.411   4.743   6.050  0.3903 -0.6867  0.8992
18055TIP3   OH275655   3.212   4.215   3.472  0.2230  0.8462 -0.0273
18055TIP3    H175656   3.209   4.121   3.487  0.9337  0.9898  1.2110
18055TIP3    H275657   3.213   4.225   3.377  0.4445 -0.4086 -0.1725
18056TIP3   OH275658   2.515   6.429   5.478  0.0073  0.3249  0.0039
18056TIP3    H175659   2.507   6.370   5.402 -2.3178  2.5471 -1.6457
18056TIP3    H275660   2.592   6.481   5.459 -0.4781  0.7720 -0.8151
18057TIP3   OH275661   1.321   4.681  14.784  1.1934  0.0839 -0.2316
18057TIP3    H175662   1.229   4.676  14.757  1.0436 -0.0550  0.2930
18057TIP3    H275663   1.333   4.772  14.812  1.3595  0.2388 -0.7974
18058TIP3   OH275664   5.047   3.620   5.144  0.0483 -0.9234  0.5930
18058TIP3    H175665   5.098   3.627   5.225  0.8984  0.8568 -0.0399
18058TIP3    H275666   5.109   3.589   5.079 -0.6790 -2.5215  0.6253
18059TIP3   OH275667   3.160   5.145  12.947  0.8005  0.2134  0.7193
18059TIP3    H175668   3.095   5.212  12.927  0.7271 -0.3346 -0.9609
18059TIP3    H275669   3.119   5.091  13.015 -0.0501  0.5179  0.4531
18060TIP3   OH275670   2.485   2.513   3.272  0.6539  0.1238 -0.3335
18060TIP3    H175671   2.536   2.526   3.193 -1.1665  2.4929 -1.2416
18060TIP3    H275672   2.472   2.601   3.307 -3.0070 -0.2495 -0.3902
18061TIP3   OH275673   5.335   4.074   4.402 -0.6307  0.5598  0.7071
18061TIP3    H175674   5.308   4.019   4.329  0.4874 -0.1451  0.8176
18061TIP3    H275675   5.429   4.085   4.391 -0.5157  0.7959  1.8080
18062TIP3   OH275676   4.756   2.562   0.939  0.0081 -0.0281  0.5187
18062TIP3    H175677   4.671   2.603   0.953 -0.8449 -0.7647 -1.8656
18062TIP3    H275678   4.738   2.468   0.946  0.4496 -0.2135 -0.6346
18063TIP3   OH275679   4.126   5.492   0.585  0.3824  0.2664  0.0632
18063TIP3    H175680   4.145   5.584   0.603 -0.6058  0.6490 -0.7371
18063TIP3    H275681   4.072   5.463   0.658  1.7472 -0.0609  0.9710
18064TIP3   OH275682   1.342   4.722  11.933 -0.2820  0.0949 -0.3789
18064TIP3    H175683   1.319   4.781  12.005  0.4955 -0.4843  0.3680
18064TIP3    H275684   1.438   4.718  11.936 -0.2396  0.0644 -1.4602
18065TIP3   OH275685   3.108   2.259  14.335  0.0172 -0.6773 -0.4460
18065TIP3    H175686   3.134   2.235  14.424 -0.7801 -1.3049 -0.3755
18065TIP3    H275687   3.191   2.269  14.288  0.6070  2.0976  0.9546
18066TIP3   OH275688   5.814   5.105   0.599  0.3385  0.2541  0.5280
18066TIP3    H175689   5.899   5.080   0.564  0.9203  1.0660  1.3058
18066TIP3    H275690   5.807   5.199   0.583 -0.6570  0.1020 -0.0108
18067TIP3   OH275691   6.506   3.025  16.523 -0.0419  0.1310 -0.4812
18067TIP3    H175692   6.504   3.003  16.430 -2.9340  0.0548 -0.4848
18067TIP3    H275693   6.474   3.115  16.528 -1.8422 -0.5192  0.5433
18068TIP3   OH275694   5.821   2.313  11.465  0.4253 -0.4589 -0.1082
18068TIP3    H175695   5.857   2.308  11.377 -0.0772  0.4053 -0.3786
18068TIP3    H275696   5.756   2.243  11.469  1.0090 -1.0079 -0.1493
18069TIP3   OH275697   5.348   3.328  15.082  0.0975 -0.1145  0.1501
18069TIP3    H175698   5.430   3.280  15.069  0.4584  0.1490  1.3926
18069TIP3    H275699   5.317   3.300  15.168 -0.6302  0.5027  0.0958
18070TIP3   OH275700   1.917   1.304   0.370 -0.1657  0.0625  0.6603
18070TIP3    H175701   1.837   1.296   0.318  0.3216 -1.2686  0.0900
18070TIP3    H275702   1.987   1.312   0.305  0.5266 -2.2616  1.0242
18071TIP3   OH275703   6.129   1.073  14.891 -0.2581  0.3254  0.1796
18071TIP3    H175704   6.187   1.147  14.906  0.8012 -0.2652 -0.8904
18071TIP3    H275705   6.063   1.107  14.830 -0.3637  0.6494  0.4645
18072TIP3   OH275706   5.459   4.993  11.000 -0.2177 -0.0735  0.1492
18072TIP3    H175707   5.468   4.982  11.094 -0.7346  0.1065  0.2256
18072TIP3    H275708   5.541   4.960  10.963  1.5325  3.0775  0.8637
18073TIP3   OH275709   1.465   3.837  16.989  0.0021  0.5467 -0.0088
18073TIP3    H175710   1.438   3.821  17.080  1.1393 -0.9335  0.0925
18073TIP3    H275711   1.401   3.901  16.957 -1.6337 -0.3935  1.2038
18074TIP3   OH275712   2.617   4.323   0.259  0.0789 -0.1300  0.0008
18074TIP3    H175713   2.549   4.255   0.264  0.2049 -0.2765 -0.2314
18074TIP3    H275714   2.698   4.274   0.249  0.1600  0.0609 -0.2783
18075TIP3   OH275715   4.017   4.186   1.492  0.1716 -0.0042 -0.1583
18075TIP3    H175716   4.011   4.098   1.456 -0.8678 -0.1937  0.4391
18075TIP3    H275717   3.972   4.241   1.428 -0.2260 -0.0977  0.0335
18076TIP3   OH275718   0.088   4.040  15.577 -0.5557  0.1532 -0.5589
18076TIP3    H175719   0.009   4.062  15.527 -0.6922 -1.6955 -1.2437
18076TIP3    H275720   0.100   3.946  15.563  1.2428  0.2038  0.2996
18077TIP3   OH275721   1.097   4.323   6.718 -0.0461  0.1852  0.2444
18077TIP3    H175722   1.041   4.400   6.714 -0.6624 -0.2676  0.1068
18077TIP3    H275723   1.044   4.257   6.762  0.0314 -0.5405 -0.7242
18078TIP3   OH275724   4.622   1.399  17.122 -0.0619 -0.9798  0.6827
18078TIP3    H175725   4.700   1.381  17.176 -0.3692  2.0774  2.3440
18078TIP3    H275726   4.560   1.329  17.147  1.2774 -2.0608  1.1298
18079TIP3   OH275727   1.468   4.263   4.137 -0.2336 -0.2695 -0.3578
18079TIP3    H175728   1.393   4.274   4.196 -0.6122  0.4050 -0.9333
18079TIP3    H275729   1.481   4.169   4.131  0.8226 -0.3336  2.0299
18080TIP3   OH275730   5.176   2.223  11.666 -0.2181 -0.0601 -0.5043
18080TIP3    H175731   5.233   2.196  11.738 -0.8978  0.7426  0.3538
18080TIP3    H275732   5.236   2.245  11.594  0.6121  1.4267  0.5913
18081TIP3   OH275733   0.236   2.895  16.380  0.3303 -0.2230 -0.9456
18081TIP3    H175734   0.281   2.871  16.299 -2.2225 -1.7954 -2.0482
18081TIP3    H275735   0.197   2.813  16.410 -0.8928  0.8306  0.4927
18082TIP3   OH275736   0.427   3.194  11.574  0.3834  0.5876 -0.1873
18082TIP3    H175737   0.484   3.133  11.526 -0.0574 -1.0329  1.2389
18082TIP3    H275738   0.451   3.280  11.540  1.4627 -0.3015 -1.8674
18083TIP3   OH275739   6.514   1.597  17.100  0.2428 -0.7233  0.1097
18083TIP3    H175740   6.492   1.683  17.063  0.7316 -0.8346 -0.4532
18083TIP3    H275741   6.430   1.558  17.120  0.0020 -0.2481  0.0456
18084TIP3   OH275742   5.722   6.344  11.813 -0.2205 -0.1648  0.0313
18084TIP3    H175743   5.749   6.385  11.895  0.0077  1.8122 -0.9593
18084TIP3    H275744   5.692   6.417  11.759 -1.4595 -1.5563 -1.2328
18085TIP3   OH275745   6.683   3.660  16.323  0.2656  0.0262 -0.0189
18085TIP3    H175746   6.734   3.716  16.264 -0.4233  2.6249  1.6916
18085TIP3    H275747   6.746   3.634  16.391  1.1712 -3.3103 -1.8709
18086TIP3   OH275748   1.509   1.352  13.277 -0.2646  0.4427  0.3258
18086TIP3    H175749   1.527   1.392  13.191  0.3928  0.0180  0.2583
18086TIP3    H275750   1.581   1.290  13.290 -1.8679 -1.6122 -0.1175
18087TIP3   OH275751   4.647   1.850  16.764  0.3967 -0.4358 -0.1905
18087TIP3    H175752   4.682   1.810  16.844  0.5513 -0.5654 -0.3207
18087TIP3    H275753   4.710   1.827  16.697  1.0868  0.9803 -0.0675
18088TIP3   OH275754   4.748   0.985   3.305  0.2206 -0.1436  0.1228
18088TIP3    H175755   4.694   0.911   3.276 -0.3374  0.4681 -0.4283
18088TIP3    H275756   4.708   1.013   3.387  0.0748 -0.0847  0.0318
18089TIP3   OH275757   0.397   2.523   0.515 -0.2237 -0.6362  0.1998
18089TIP3    H175758   0.434   2.492   0.433  1.3348 -0.3573  0.7603
18089TIP3    H275759   0.314   2.563   0.490  0.6587  0.3211 -1.3883
18090TIP3   OH275760   3.161   4.719  15.639  0.1443 -0.6875 -0.1350
18090TIP3    H175761   3.072   4.746  15.617  0.3429 -0.8322 -1.1404
18090TIP3    H275762   3.191   4.669  15.563  1.4270  0.1934 -0.2520
18091TIP3   OH275763   4.784   5.114  13.350  0.1499 -0.1942 -0.5717
18091TIP3    H175764   4.778   5.089  13.443  0.2650 -0.7344 -0.7065
18091TIP3    H275765   4.778   5.031  13.303  1.1904 -0.0375 -1.0086
18092TIP3   OH275766   6.364   4.161   0.962  0.2974 -0.4784 -0.6434
18092TIP3    H175767   6.448   4.146   1.005  0.5730  2.1893 -0.0984
18092TIP3    H275768   6.311   4.206   1.027 -0.3274  0.9915 -2.0956
18093TIP3   OH275769   1.011   1.472   4.873 -0.1973  0.5402 -0.0164
18093TIP3    H175770   1.057   1.511   4.799  0.6682 -0.3816  0.0158
18093TIP3    H275771   1.076   1.415   4.915 -1.4468 -1.0999 -0.1908
18094TIP3   OH275772   3.903   1.466  17.306  0.0581  0.3884  0.1850
18094TIP3    H175773   3.913   1.370  17.311  2.0975  0.5978  4.2755
18094TIP3    H275774   3.987   1.497  17.273  0.5266  0.8555  1.7748
18095TIP3   OH275775   1.695   4.831  15.999 -0.3635 -0.0093  0.4990
18095TIP3    H175776   1.759   4.777  16.044 -1.3425 -0.8829  0.8902
18095TIP3    H275777   1.745   4.877  15.931  0.6700 -0.6046  0.8376
18096TIP3   OH275778   3.506   0.434  11.888 -0.3394 -0.4171 -0.9390
18096TIP3    H175779   3.424   0.384  11.888 -1.4167  1.2219  0.3515
18096TIP3    H275780   3.487   0.510  11.833 -0.6706  1.3334  1.4259
18097TIP3   OH275781   0.155   0.247  15.577  0.5357 -0.4290 -0.3889
18097TIP3    H175782   0.123   0.248  15.487 -0.1392  0.0500 -0.1448
18097TIP3    H275783   0.095   0.189  15.623  0.9589 -0.7773 -0.2677
18098TIP3   OH275784   3.672   1.774   5.244  0.2722  0.0850  0.1684
18098TIP3    H175785   3.587   1.802   5.210  0.1411  0.4449  0.7724
18098TIP3    H275786   3.707   1.850   5.290  1.5997  0.4089 -1.2939
18099TIP3   OH275787   0.210   3.547  15.292  0.2103 -0.1354 -0.2943
18099TIP3    H175788   0.158   3.490  15.349 -0.2557  0.8479  0.2998
18099TIP3    H275789   0.149   3.572  15.222  0.6961 -1.1071 -1.0972
18100TIP3   OH275790   4.161   0.053   1.889 -0.4933  0.3024 -0.2567
18100TIP3    H175791   4.198  -0.028   1.923 -0.6313  0.5536  0.5220
18100TIP3    H275792   4.086   0.025   1.837  0.7429 -0.2009 -1.8092
18101TIP3   OH275793   1.284   6.712   4.146  0.0548 -0.2412  0.6724
18101TIP3    H175794   1.216   6.764   4.102 -0.7657  1.0114  3.1815
18101TIP3    H275795   1.242   6.628   4.164 -0.0414 -0.2900  0.2286
18102TIP3   OH275796   0.694   2.912  16.857 -0.2156 -0.4085 -0.5780
18102TIP3    H175797   0.692   3.008  16.862  1.8806 -0.3649  0.7655
18102TIP3    H275798   0.711   2.893  16.765 -0.8673  0.4899 -0.9023
18103TIP3   OH275799   6.128   0.108   4.431  0.5866  0.2416 -0.3258
18103TIP3    H175800   6.142   0.183   4.489  2.4089  0.5557 -1.1209
18103TIP3    H275801   6.124   0.146   4.343 -1.0945 -0.3458 -0.5409
18104TIP3   OH275802   2.484   0.991  16.233  0.5188 -0.2515 -0.5023
18104TIP3    H175803   2.407   0.949  16.273 -1.5244  1.3395 -2.5427
18104TIP3    H275804   2.458   1.008  16.143  2.7823  1.6492 -0.8784
18105TIP3   OH275805   2.821   4.791   0.194 -0.2876 -0.5136 -0.2832
18105TIP3    H175806   2.774   4.784   0.111  0.6556  0.5697 -0.9508
18105TIP3    H275807   2.865   4.707   0.204 -0.3399 -0.6246 -0.9429
18106TIP3   OH275808   0.059   3.809   4.161 -0.4248  0.0321 -0.1680
18106TIP3    H175809   0.056   3.846   4.073  2.0182 -0.0583 -0.3669
18106TIP3    H275810   0.150   3.821   4.188 -0.5526 -2.0968  1.4080
18107TIP3   OH275811   5.522   0.200  15.408 -0.5301 -0.2449  0.4648
18107TIP3    H175812   5.434   0.178  15.439 -0.2222 -0.7979  0.9893
18107TIP3    H275813   5.577   0.192  15.486  0.2416 -1.4669 -0.1597
18108TIP3   OH275814   1.274   4.921  16.938  0.0508 -0.6770  0.4097
18108TIP3    H175815   1.291   4.910  17.031  0.6711  0.7519  0.4960
18108TIP3    H275816   1.342   4.870  16.894  0.0196 -0.9984  0.7366
18109TIP3   OH275817   2.559   1.284  13.020 -0.2034  0.4940  0.3919
18109TIP3    H175818   2.532   1.259  12.932  0.4795  0.3813  0.2054
18109TIP3    H275819   2.540   1.377  13.026  1.3253  0.9080 -0.5072
18110TIP3   OH275820   6.034   1.055  16.246  0.0267  0.6197  0.5086
18110TIP3    H175821   6.076   0.978  16.207 -0.4930  1.0821 -1.0186
18110TIP3    H275822   6.033   1.120  16.176  1.1505  2.3347  1.9849
18111TIP3   OH275823   6.691   5.918  17.666  0.8248  0.1374 -0.1788
18111TIP3    H175824   6.671   5.829  17.637 -0.5714  0.9420 -1.9692
18111TIP3    H275825   6.768   5.909  17.722 -1.4788 -2.6566  2.9355
18112TIP3   OH275826   6.692   1.189  14.127  0.0900  0.1808  0.5315
18112TIP3    H175827   6.735   1.275  14.129  0.5148 -0.0300  0.7065
18112TIP3    H275828   6.608   1.205  14.085  0.6620  0.4701 -0.5264
18113TIP3   OH275829   2.201   3.163  16.993  0.1193 -0.3433  0.5037
18113TIP3    H175830   2.233   3.159  17.083 -1.3050  0.1744  1.0710
18113TIP3    H275831   2.178   3.073  16.971  1.6477 -0.6774  0.1772
18114TIP3   OH275832   4.788   5.242  17.250 -0.0847  0.3822 -0.4482
18114TIP3    H175833   4.865   5.185  17.258 -0.0237  0.3819 -0.9756
18114TIP3    H275834   4.740   5.205  17.175 -0.6627  0.3030 -0.0383
18115TIP3   OH275835   4.615   4.397  17.217  0.1749 -0.0637  0.4358
18115TIP3    H175836   4.553   4.449  17.166  1.1054  1.1244  0.4678
18115TIP3    H275837   4.668   4.352  17.152  0.0662 -0.1248  0.3896
18116TIP3   OH275838   6.182   5.320   5.942 -0.9889 -1.0403 -0.4088
18116TIP3    H175839   6.219   5.376   5.874 -0.0070 -3.1832 -1.7665
18116TIP3    H275840   6.256   5.301   6.000 -1.6571  0.1956  0.8826
18117TIP3   OH275841   2.879   4.419  14.311  0.0845  0.1491  0.3272
18117TIP3    H175842   2.922   4.480  14.251 -0.5583  0.7000  0.4226
18117TIP3    H275843   2.787   4.422  14.287 -0.2233  0.5807  1.5011
18118TIP3   OH275844   5.545   2.264   5.796 -0.2905 -0.1137 -0.5532
18118TIP3    H175845   5.496   2.210   5.858 -1.0077 -0.3194 -1.2776
18118TIP3    H275846   5.633   2.226   5.796  0.0787  0.6108  1.1883
18119TIP3   OH275847   6.121   4.925  16.107 -0.1341  0.3463  0.4690
18119TIP3    H175848   6.039   4.899  16.065  0.1120 -2.2037  1.4079
18119TIP3    H275849   6.165   4.981  16.043 -3.1114  2.8949  0.4142
18120TIP3   OH275850   5.631   0.223   3.029 -0.0482  0.4036 -0.0018
18120TIP3    H175851   5.708   0.180   3.066  0.5033  0.9108 -0.5257
18120TIP3    H275852   5.664   0.268   2.952 -1.1000 -0.3213 -0.9060
18121TIP3   OH275853   3.313   3.504   0.070 -0.2641 -0.1095  0.2160
18121TIP3    H175854   3.398   3.548   0.066 -0.3191  0.0083  0.3220
18121TIP3    H275855   3.334   3.412   0.086 -0.0448 -0.5251 -2.0541
18122TIP3   OH275856   4.050   6.170  13.037  0.0694  0.0616 -0.2814
18122TIP3    H175857   4.092   6.088  13.012  0.4278  0.1512  0.0173
18122TIP3    H275858   3.956   6.151  13.031  0.1220 -0.7433  0.8975
18123TIP3   OH275859   5.372   2.965  15.591 -0.3771  0.0770  0.2653
18123TIP3    H175860   5.430   2.937  15.662  0.6933  0.4090 -0.4547
18123TIP3    H275861   5.431   2.993  15.521 -1.4134  0.2377 -0.5724
18124TIP3   OH275862   1.198   5.229  13.365  0.3964  0.4146 -0.5176
18124TIP3    H175863   1.230   5.317  13.387  2.7544  0.3511 -3.1326
18124TIP3    H275864   1.180   5.232  13.271 -0.9432 -1.5205 -0.3867
18125TIP3   OH275865   3.375   0.927   6.398 -0.1336  0.2879 -0.3096
18125TIP3    H175866   3.293   0.887   6.428 -0.0572  0.4630  0.1514
18125TIP3    H275867   3.375   0.915   6.303 -0.6930  0.2827 -0.3115
18126TIP3   OH275868   4.895   0.367  12.654  0.4609  0.4686 -0.7680
18126TIP3    H175869   4.875   0.363  12.560  0.6194  0.1296 -0.7879
18126TIP3    H275870   4.815   0.402  12.694 -0.3366 -1.1702 -0.8112
18127TIP3   OH275871   3.704   0.259  15.765 -0.0896  0.0381  0.4497
18127TIP3    H175872   3.741   0.258  15.677 -0.5744 -0.9681  0.2453
18127TIP3    H275873   3.705   0.351  15.791  1.5134  0.1718  0.0128
18128TIP3   OH275874   6.303   3.588   2.490  0.6672  0.2369 -0.7159
18128TIP3    H175875   6.307   3.683   2.478 -1.7409  0.8632  2.1732
18128TIP3    H275876   6.300   3.553   2.401  1.4247  2.8465 -1.8722
18129TIP3   OH275877   2.744   1.452  14.916 -0.2341 -0.4707  0.1865
18129TIP3    H175878   2.812   1.397  14.954 -1.2516 -2.3203 -0.5377
18129TIP3    H275879   2.727   1.519  14.982 -0.4302 -2.2844  2.0570
18130TIP3   OH275880   2.098   2.110   6.946 -0.3382  0.2303  0.3722
18130TIP3    H175881   2.032   2.046   6.920 -0.6182  0.8115 -0.3776
18130TIP3    H275882   2.062   2.195   6.919  0.2693  0.6517  0.8511
18131TIP3   OH275883   5.344   6.218  14.665 -0.3993  0.1472  0.3842
18131TIP3    H175884   5.372   6.148  14.606 -0.2023  0.2433  0.3643
18131TIP3    H275885   5.359   6.183  14.753 -0.0863  0.2542  0.3724
18132TIP3   OH275886   5.256   0.070  11.690  0.3827  0.3094 -0.5345
18132TIP3    H175887   5.188   0.034  11.633 -1.5675  1.4417  0.9387
18132TIP3    H275888   5.207   0.112  11.761  2.6717  0.0542  1.3007
18133TIP3   OH275889   1.004   2.004  17.540 -0.3513  0.1452  0.4369
18133TIP3    H175890   1.077   1.949  17.569 -0.4548 -1.1189 -1.4967
18133TIP3    H275891   0.926   1.964  17.579 -0.3820 -0.9240 -0.6505
18134TIP3   OH275892   5.691   1.215   2.245  0.3611 -0.3102  0.7564
18134TIP3    H175893   5.711   1.292   2.299  1.5502 -0.3310  0.3725
18134TIP3    H275894   5.702   1.141   2.304  1.4281 -0.3168  0.5758
18135TIP3   OH275895   0.901   2.355  11.950 -0.2341 -0.1910  0.0224
18135TIP3    H175896   0.826   2.389  11.999  0.5900  0.0066  1.1831
18135TIP3    H275897   0.863   2.291  11.890 -1.5374  1.1423 -0.6349
18136TIP3   OH275898   1.667   4.925  11.814 -0.1198 -0.4937 -0.7020
18136TIP3    H175899   1.648   5.008  11.771 -1.4687 -1.0009 -1.1528
18136TIP3    H275900   1.744   4.942  11.867  1.1544  0.3900 -2.7004
18137TIP3   OH275901   1.252   3.971  13.475  0.1014 -0.1153  0.0500
18137TIP3    H175902   1.173   3.947  13.426  0.6364 -0.4506 -0.6575
18137TIP3    H275903   1.282   3.889  13.515  0.9767 -0.3110 -0.9809
18138TIP3   OH275904   1.236   1.619  12.357 -0.4576  0.2431  0.1552
18138TIP3    H175905   1.229   1.649  12.266 -0.2587 -0.3732 -0.0664
18138TIP3    H275906   1.311   1.560  12.357 -0.7708 -0.1597  0.6174
18139TIP3   OH275907   6.658   3.027   5.599  0.2621 -0.4738  1.0339
18139TIP3    H175908   6.617   2.940   5.594 -2.0027  0.5454  0.8365
18139TIP3    H275909   6.686   3.045   5.509 -1.7789  0.1024  0.4644
18140TIP3   OH275910   3.004   3.440  12.175  0.1819 -0.1187  0.5553
18140TIP3    H175911   2.996   3.517  12.118 -2.0005  0.6231  1.7179
18140TIP3    H275912   3.012   3.476  12.263  2.0958 -1.2464  0.8828
18141TIP3   OH275913   4.902   2.571  17.074  0.1305 -0.1383 -0.1971
18141TIP3    H175914   4.873   2.633  17.007 -0.7715  0.1527  0.4424
18141TIP3    H275915   4.857   2.489  17.053 -0.2537 -0.0104  0.1323
18142TIP3   OH275916   5.542   4.990  11.294 -0.0980  0.1606 -0.1930
18142TIP3    H175917   5.477   4.940  11.344  1.1220  0.4383  1.8035
18142TIP3    H275918   5.516   5.081  11.306 -0.1739  0.1958 -0.6320
18143TIP3   OH275919   5.639   4.659  16.432 -0.1922 -0.3832  0.0405
18143TIP3    H175920   5.717   4.627  16.478  0.7546 -1.6853 -2.2782
18143TIP3    H275921   5.632   4.602  16.356 -1.6320  1.6678 -1.4535
18144TIP3   OH275922   3.138   5.660   3.743  0.1582  0.7920 -0.2421
18144TIP3    H175923   3.192   5.735   3.719 -0.9777  1.8101  0.2987
18144TIP3    H275924   3.124   5.670   3.837 -1.4987  0.9211 -0.4773
18145TIP3   OH275925   1.279   3.256   3.734  0.2839 -0.6922  0.1760
18145TIP3    H175926   1.296   3.292   3.647 -1.5479 -0.0307  0.0355
18145TIP3    H275927   1.270   3.162   3.720  0.7976 -0.6860 -0.2066
18146TIP3   OH275928   0.449   3.476  14.764 -0.2412 -0.2671 -0.1980
18146TIP3    H175929   0.431   3.432  14.681 -0.1394 -0.7976  0.0571
18146TIP3    H275930   0.517   3.423  14.805 -0.6217 -0.2778  0.4341
18147TIP3   OH275931   5.229   3.802   6.495  0.2108  0.0537  0.0353
18147TIP3    H175932   5.202   3.733   6.555  0.8141  0.5055  0.8524
18147TIP3    H275933   5.150   3.855   6.483  0.2862  0.4248  1.0893
18148TIP3   OH275934   6.286   1.749   1.543 -0.0113 -0.0607 -0.4918
18148TIP3    H175935   6.298   1.690   1.616  0.4578 -0.2763 -0.7374
18148TIP3    H275936   6.225   1.704   1.484 -1.3465  0.6312  0.3186
18149TIP3   OH275937   2.165   5.136   0.729  0.5405  0.0579 -0.3449
18149TIP3    H175938   2.074   5.107   0.744  0.0437  2.2203  1.4173
18149TIP3    H275939   2.162   5.182   0.645  0.0260  0.0161 -0.3563
18150TIP3   OH275940   3.988   0.928   1.432 -0.2493 -0.9589  0.8355
18150TIP3    H175941   3.913   0.868   1.435 -0.0164 -1.2208  2.9112
18150TIP3    H275942   3.979   0.981   1.511 -0.5163  1.9130 -0.9667
18151TIP3   OH275943   3.097   3.881   6.278  0.4558 -0.4000  0.0218
18151TIP3    H175944   3.031   3.815   6.298 -0.8931  1.0119  0.4526
18151TIP3    H275945   3.179   3.843   6.308 -0.0279 -2.4673 -1.0845
18152TIP3   OH275946   2.102   1.689  11.985  0.3963  0.0173  0.5579
18152TIP3    H175947   2.110   1.656  11.896 -0.6079  1.7240 -0.2003
18152TIP3    H275948   2.133   1.779  11.980 -0.8165  0.5250  1.6577
18153TIP3   OH275949   6.660   0.109  14.686 -0.2663  0.0851  0.5162
18153TIP3    H175950   6.676   0.123  14.779  1.6048  2.6768 -0.1121
18153TIP3    H275951   6.742   0.074  14.652 -0.6099  0.0935 -0.3585
18154TIP3   OH275952   2.638   6.326   3.641  0.1737  0.0736  0.5455
18154TIP3    H175953   2.584   6.251   3.664 -0.1870  0.3642  0.6563
18154TIP3    H275954   2.577   6.400   3.640  0.4670  0.3136  0.1366
18155TIP3   OH275955   3.639   1.716   3.736 -0.8191  0.2039 -0.6922
18155TIP3    H175956   3.661   1.650   3.801 -0.8946 -0.7227 -1.5933
18155TIP3    H275957   3.562   1.760   3.772 -0.6773 -0.0835 -0.0159
18156TIP3   OH275958   4.697   4.871  13.597 -0.3708 -0.1965  0.4091
18156TIP3    H175959   4.773   4.866  13.656  0.1923 -0.3811 -0.3141
18156TIP3    H275960   4.704   4.792  13.543 -1.3448 -0.4508  0.6484
18157TIP3   OH275961   4.546   1.376   2.885  0.6322 -0.2575  0.5228
18157TIP3    H175962   4.502   1.453   2.921  0.7424 -0.2609  0.6648
18157TIP3    H275963   4.537   1.386   2.790  0.3693 -0.2338  0.5482
18158TIP3   OH275964   2.757   3.415   6.632  0.5822  0.1869 -0.0532
18158TIP3    H175965   2.723   3.350   6.693  1.7310 -0.8656 -0.4988
18158TIP3    H275966   2.788   3.487   6.688 -3.3359  1.7924  0.3478
18159TIP3   OH275967   1.732   2.404   0.227 -0.6091 -0.1570  0.1527
18159TIP3    H175968   1.761   2.320   0.192 -2.2204 -0.2874 -0.9568
18159TIP3    H275969   1.640   2.390   0.250 -0.2502  0.6114  2.3162
18160TIP3   OH275970   5.583   4.040   3.876  0.2114 -0.7015  0.3452
18160TIP3    H175971   5.640   4.046   3.953  0.1447 -0.1230  0.3508
18160TIP3    H275972   5.613   3.961   3.830  0.4521 -0.8773  0.7996
18161TIP3   OH275973   4.294   0.772   2.610 -0.1269 -0.1801 -0.4033
18161TIP3    H175974   4.307   0.688   2.654  0.3280 -0.5717 -1.2544
18161TIP3    H275975   4.311   0.838   2.678  1.0265 -0.7632 -0.0945
18162TIP3   OH275976   0.632   0.035  11.979  0.1761  0.5606  0.7866
18162TIP3    H175977   0.607   0.056  11.889  1.1515 -0.2369  0.3101
18162TIP3    H275978   0.571  -0.035  12.005 -2.0262  2.7115  1.8202
18163TIP3   OH275979   3.582   5.486   6.342  0.7241 -0.4498  0.1022
18163TIP3    H175980   3.612   5.508   6.431  1.2074  1.5026 -0.4940
18163TIP3    H275981   3.596   5.392   6.335 -1.6973 -1.1717  2.9515
18164TIP3   OH275982   0.975   4.867   6.131 -0.0505  0.6963 -0.4437
18164TIP3    H175983   1.023   4.811   6.193 -1.0675 -0.6359 -0.7999
18164TIP3    H275984   1.039   4.890   6.064  0.0325 -1.5137 -1.2113
18165TIP3   OH275985   5.965   3.847   1.455  0.0443 -0.1624  0.3104
18165TIP3    H175986   5.992   3.881   1.369  0.8344  2.0708  1.3731
18165TIP3    H275987   6.035   3.787   1.480  0.0698 -0.4238 -0.3698
18166TIP3   OH275988   6.317   2.624  15.096 -0.0975 -0.2118 -0.0840
18166TIP3    H175989   6.292   2.633  15.004 -0.8270 -0.2928  0.1068
18166TIP3    H275990   6.407   2.657  15.099 -0.4295  0.7712 -0.6311
18167TIP3   OH275991   5.059   3.527   0.680 -0.6458 -0.8089  0.0704
18167TIP3    H175992   5.107   3.610   0.682 -1.5200 -0.2940  1.1457
18167TIP3    H275993   5.094   3.476   0.753 -1.2892 -0.6654  0.4957
18168TIP3   OH275994   4.390   2.547   1.414 -0.3203 -0.2075  0.1286
18168TIP3    H175995   4.296   2.544   1.397 -0.1316  1.7006 -1.5256
18168TIP3    H275996   4.402   2.625   1.468  0.5066  0.7090 -1.3280
18169TIP3   OH275997   6.526   4.658   1.412 -0.1157  0.1364  0.3469
18169TIP3    H175998   6.515   4.636   1.504 -1.8489  2.1449  0.7014
18169TIP3    H275999   6.440   4.692   1.385  1.0330  1.9174 -1.3224
18170TIP3   OH276000   4.502   1.284  11.271  0.3579 -0.0451 -0.2039
18170TIP3    H176001   4.514   1.365  11.221 -0.6509  0.4552  0.3253
18170TIP3    H276002   4.452   1.227  11.213 -1.3410  0.7579  0.4018
18171TIP3   OH276003   5.008   0.119   6.821  0.1278 -0.1849  0.0428
18171TIP3    H176004   4.949   0.122   6.746  0.0174 -0.7606  0.1023
18171TIP3    H276005   5.054   0.035   6.812  2.0312  0.8709 -0.8218
18172TIP3   OH276006   3.144   0.302  14.337 -0.2368  0.2635  0.2618
18172TIP3    H176007   3.099   0.365  14.394  0.4910  0.3268  0.7680
18172TIP3    H276008   3.074   0.244  14.306 -0.5692 -0.0761  1.6002
18173TIP3   OH276009   0.797   5.083   0.595  0.1441  0.4276  0.2258
18173TIP3    H176010   0.884   5.052   0.622 -0.5859 -0.3802  1.7937
18173TIP3    H276011   0.737   5.039   0.655 -1.2676  1.7617 -0.1596
18174TIP3   OH276012   1.030   2.092   2.021  0.5746  0.4862 -0.7375
18174TIP3    H176013   1.036   2.028   1.951  0.8425 -1.0483  0.6284
18174TIP3    H276014   1.121   2.112   2.044  0.4913  0.5766 -0.4776
18175TIP3   OH276015   2.354   2.345   0.618 -0.0054 -0.0851  0.1638
18175TIP3    H176016   2.304   2.383   0.546  0.5611  0.4069  0.0197
18175TIP3    H276017   2.408   2.417   0.651  1.6033 -0.9008 -0.5648
18176TIP3   OH276018   4.596   5.292  16.417  0.2306 -0.0366 -0.5620
18176TIP3    H176019   4.588   5.371  16.470  2.0845 -0.2901  0.1532
18176TIP3    H276020   4.684   5.259  16.435 -0.7881 -2.7864 -0.1329
18177TIP3   OH276021   6.411   6.429   4.219 -0.0898  0.3354  0.1184
18177TIP3    H176022   6.503   6.444   4.239  0.1648  0.8588 -1.2823
18177TIP3    H276023   6.399   6.335   4.227  0.4013  0.3425  0.9584
18178TIP3   OH276024   0.296   6.538  17.538 -0.7733 -0.3631  0.0637
18178TIP3    H176025   0.221   6.586  17.571 -1.7304 -0.1948 -2.1556
18178TIP3    H276026   0.259   6.465  17.489  0.5125 -0.5568 -0.6753
18179TIP3   OH276027   6.382   4.362   6.677  1.3426  0.5748 -0.6422
18179TIP3    H176028   6.391   4.268   6.692 -0.1632  0.3140 -1.1630
18179TIP3    H276029   6.328   4.368   6.598  0.6630  1.8725 -0.1080
18180TIP3   OH276030   0.725   1.082  16.207  0.1980 -0.8062 -0.0824
18180TIP3    H176031   0.708   1.160  16.154  0.7838 -0.7868 -0.2467
18180TIP3    H276032   0.655   1.082  16.272 -0.0919 -0.4118 -0.3866
18181TIP3   OH276033   0.652   5.048  16.601  0.5930 -0.0862  0.0956
18181TIP3    H176034   0.621   4.960  16.619 -0.5918  0.4234  0.6884
18181TIP3    H276035   0.616   5.101  16.673 -2.6449  1.6784 -2.5241
18182TIP3   OH276036   2.728   1.214  13.337 -0.0220 -0.1931 -0.5026
18182TIP3    H176037   2.783   1.195  13.413  0.8425 -1.8038 -1.4689
18182TIP3    H276038   2.677   1.134  13.324  0.4934 -0.2863 -2.1234
18183TIP3   OH276039   4.984   2.575  15.070  0.0721  0.1359  0.0702
18183TIP3    H176040   4.978   2.638  15.142 -0.0854 -1.0837  1.1568
18183TIP3    H276041   5.003   2.492  15.113  1.5829 -0.3504 -1.4265
18184TIP3   OH276042   0.323   2.699  11.868 -0.4751 -0.2689  0.0904
18184TIP3    H176043   0.384   2.756  11.915 -0.3569 -0.3280  0.0079
18184TIP3    H276044   0.375   2.662  11.796 -0.7950  0.2490 -0.4156
18185TIP3   OH276045   3.040   5.951  15.103  0.8957  0.0312 -0.0188
18185TIP3    H176046   2.959   5.910  15.074 -0.2575  2.0020  0.2865
18185TIP3    H276047   3.042   6.036  15.059  1.6283  0.9730  1.7438
18186TIP3   OH276048   1.285   5.141  13.940  0.3219 -0.5653  0.3694
18186TIP3    H176049   1.371   5.111  13.970 -0.1328 -0.4681  1.8252
18186TIP3    H276050   1.224   5.107  14.005 -0.6272  0.2649 -0.0717
18187TIP3   OH276051   5.975   0.197   0.191 -0.1484 -0.3119 -0.3316
18187TIP3    H176052   5.975   0.238   0.278  1.2265 -0.6046 -0.1725
18187TIP3    H276053   5.963   0.270   0.130 -0.7339 -0.0605  0.0738
18188TIP3   OH276054   5.614   5.385   3.204  0.0567 -0.2336  0.0162
18188TIP3    H176055   5.563   5.332   3.265  2.9796 -0.2278  2.7674
18188TIP3    H276056   5.610   5.474   3.239 -0.1354  0.2557 -1.2092
18189TIP3   OH276057   4.028   1.965  10.823 -0.5703 -0.2070 -0.0840
18189TIP3    H176058   4.122   1.956  10.809 -0.4255 -1.5931  1.5512
18189TIP3    H276059   3.991   1.962  10.735  0.7194 -2.3216 -0.6320
18190TIP3   OH276060   4.179   2.846   4.768 -0.0518 -0.6985 -0.0922
18190TIP3    H176061   4.260   2.865   4.815  0.4086 -2.3968 -0.1360
18190TIP3    H276062   4.195   2.761   4.727 -0.7845  0.2530 -2.5380
18191TIP3   OH276063   6.038   1.738   3.979  0.3134 -0.4789 -0.1027
18191TIP3    H176064   6.038   1.646   4.003 -1.6743 -0.0325  2.0114
18191TIP3    H276065   6.088   1.781   4.049  1.9837  0.0045 -1.5273
18192TIP3   OH276066   3.603   3.008  15.002  0.2901 -0.1603 -0.1684
18192TIP3    H176067   3.542   3.061  15.053  0.7710  2.6572 -2.2976
18192TIP3    H276068   3.565   3.004  14.914  1.2688 -1.7237 -0.5725
18193TIP3   OH276069   3.637   0.193   1.302 -0.0423 -0.4847 -0.4922
18193TIP3    H176070   3.555   0.146   1.286  0.4372 -1.1216 -1.1156
18193TIP3    H276071   3.662   0.166   1.391 -1.9236  1.8939  0.8823
18194TIP3   OH276072   0.018   5.055   0.325  0.2726 -0.3674  0.0468
18194TIP3    H176073  -0.063   5.079   0.280  1.8473  2.1374 -1.7703
18194TIP3    H276074   0.001   5.074   0.417 -1.4452 -0.7283 -0.1613
18195TIP3   OH276075   4.721   5.181   1.004  0.6826 -0.1218  0.0370
18195TIP3    H176076   4.776   5.247   1.046  0.8248 -0.0312 -0.2920
18195TIP3    H276077   4.741   5.100   1.051 -0.8964  0.3972  1.7482
18196TIP3   OH276078   4.276   0.169   2.467 -0.8653  0.3043  0.1875
18196TIP3    H176079   4.270   0.078   2.495  0.6541  0.4155  0.9900
18196TIP3    H276080   4.282   0.219   2.549  0.1298  0.9454 -0.2504
18197TIP3   OH276081   4.530   6.485  12.870 -0.3796 -0.6011  0.1594
18197TIP3    H176082   4.447   6.444  12.894 -1.4250  0.0542 -2.0798
18197TIP3    H276083   4.550   6.449  12.784  0.0332  1.5458 -0.6972
18198TIP3   OH276084   0.387   1.784   0.276 -0.0180 -0.0863 -0.4148
18198TIP3    H176085   0.448   1.849   0.241  0.3472 -0.4567 -0.4712
18198TIP3    H276086   0.442   1.723   0.325 -0.3905 -0.2053 -0.1430
18199TIP3   OH276087   1.702   1.311  17.396  0.1671 -0.0854  0.4016
18199TIP3    H176088   1.652   1.352  17.325 -0.2287 -0.2593  0.5775
18199TIP3    H276089   1.646   1.321  17.473  0.5793  0.0649  0.6806
18200TIP3   OH276090   3.199   6.019   0.321  0.1643 -0.2134  0.2224
18200TIP3    H176091   3.124   5.960   0.306 -0.3488  0.8363 -1.7708
18200TIP3    H276092   3.268   5.984   0.265 -0.2380  1.1837 -1.2015
18201TIP3   OH276093   3.584   0.110   2.083 -0.6609 -0.1309 -0.2272
18201TIP3    H176094   3.507   0.091   2.029 -2.4438 -0.9902  2.4439
18201TIP3    H276095   3.640   0.033   2.071 -0.3279  0.3096 -1.8528
18202TIP3   OH276096   1.501   0.954  16.556  0.1226 -0.1314  0.6019
18202TIP3    H176097   1.540   0.866  16.561  1.6186  0.4896  0.5374
18202TIP3    H276098   1.548   1.005  16.622 -0.7053  0.6378  0.6127
18203TIP3   OH276099   1.897   5.655   2.372 -0.6226  0.6461 -0.0787
18203TIP3    H176100   1.953   5.625   2.300 -1.4951  0.5202 -0.7241
18203TIP3    H276101   1.841   5.580   2.391  0.5215  0.1926  1.7005
18204TIP3   OH276102   3.814   2.435  10.858 -0.9621 -0.2943  0.0934
18204TIP3    H176103   3.837   2.399  10.944 -0.1305 -1.6450 -0.6775
18204TIP3    H276104   3.812   2.530  10.873  1.6122 -0.2978  1.0825
18205TIP3   OH276105   4.453   5.062  17.030  0.5673 -0.2383 -0.3608
18205TIP3    H176106   4.488   5.075  17.118 -0.7455  1.7727 -0.0621
18205TIP3    H276107   4.359   5.051  17.043  0.4639 -0.7277 -1.4601
18206TIP3   OH276108   5.384   2.700  10.784  0.4266 -0.2860  0.5128
18206TIP3    H176109   5.325   2.760  10.738  0.9292  0.4016  0.7559
18206TIP3    H276110   5.397   2.628  10.723 -0.1568 -0.1347  0.2045
18207TIP3   OH276111   3.124   5.708   4.014 -0.2586 -0.0327  0.1154
18207TIP3    H176112   3.160   5.711   4.103 -1.3730  2.0588  0.5659
18207TIP3    H276113   3.032   5.733   4.025 -0.2053  1.1626 -1.7026
18208TIP3   OH276114   6.367   1.477   3.322  0.4349  1.2961 -0.4792
18208TIP3    H176115   6.378   1.478   3.417  1.7391  1.0066 -0.6076
18208TIP3    H276116   6.367   1.569   3.297  0.5620  1.3607 -0.2443
18209TIP3   OH276117   3.847   5.882  16.462  0.0946  0.1129  0.0471
18209TIP3    H176118   3.814   5.827  16.390 -1.0862  0.6385  0.1628
18209TIP3    H276119   3.785   5.868  16.533  0.0124  1.2542  0.2190
18210TIP3   OH276120   6.536   4.013   1.543 -0.6385  0.1861 -0.0781
18210TIP3    H176121   6.532   3.986   1.634 -1.4709  1.1394  0.1882
18210TIP3    H276122   6.625   3.992   1.515 -0.5993 -0.7586  0.7399
18211TIP3   OH276123   5.803   6.025   2.609 -0.2271  0.3578  0.7714
18211TIP3    H176124   5.739   5.957   2.590 -0.2492  0.1968  1.3894
18211TIP3    H276125   5.764   6.105   2.573 -0.6032  0.1944  0.8109
18212TIP3   OH276126   1.919   5.877   3.611 -0.0070 -0.7069 -0.1419
18212TIP3    H176127   1.835   5.832   3.609  0.8543 -2.4751 -3.7119
18212TIP3    H276128   1.916   5.938   3.537  1.7166 -0.5226 -0.1143
18213TIP3   OH276129   5.704   2.208   4.992  0.1970  0.1970  0.3803
18213TIP3    H176130   5.632   2.175   4.938 -0.2382 -1.1103  1.6924
18213TIP3    H276131   5.677   2.297   5.015 -0.5234  0.0826  0.0202
18214TIP3   OH276132   2.643   0.591   0.827  0.1643 -0.1526  0.0356
18214TIP3    H176133   2.560   0.637   0.837 -0.6478 -1.6863  0.7239
18214TIP3    H276134   2.674   0.577   0.916 -0.8589 -3.0047  0.0522
18215TIP3   OH276135   0.290   4.333  13.212 -0.8517  0.2902 -0.1375
18215TIP3    H176136   0.333   4.344  13.128 -0.4690  2.0119  0.2416
18215TIP3    H276137   0.328   4.254  13.249  0.8680  0.9104 -0.4889
18216TIP3   OH276138   5.198   1.405   5.294 -0.4034  0.0980  0.4749
18216TIP3    H176139   5.131   1.415   5.226  1.0892 -0.6676 -1.1793
18216TIP3    H276140   5.216   1.495   5.323  0.0733  0.6199 -1.3188
18217TIP3   OH276141   4.162   4.553  13.502 -0.4912 -0.7115 -0.3020
18217TIP3    H176142   4.182   4.503  13.582 -1.3344  0.9203  0.9912
18217TIP3    H276143   4.067   4.556  13.500 -0.4838  1.6471  0.2428
18218TIP3   OH276144   5.983   1.035   0.848 -0.0371 -0.0018 -0.3961
18218TIP3    H176145   5.956   0.990   0.928 -0.3149  0.0944 -0.4319
18218TIP3    H276146   5.985   1.128   0.873  3.4240 -0.1787  0.5306
18219TIP3   OH276147   2.773   2.808  15.766 -0.3248 -0.0508  0.2043
18219TIP3    H176148   2.743   2.829  15.677 -1.1916 -0.9919  0.2627
18219TIP3    H276149   2.869   2.811  15.759 -0.3601 -0.9283 -0.9797
18220TIP3   OH276150   4.037   5.793  14.162 -0.8183 -0.2188 -0.0034
18220TIP3    H176151   4.132   5.801  14.160 -0.6230 -1.4047  1.8864
18220TIP3    H276152   4.006   5.879  14.189 -0.0224 -0.6262  2.4308
18221TIP3   OH276153   6.372   3.170  16.937 -1.1510  0.3288 -0.2529
18221TIP3    H176154   6.400   3.092  16.889 -1.4105  1.0059 -1.5497
18221TIP3    H276155   6.442   3.233  16.923 -0.7694  0.2341  1.0925
18222TIP3   OH276156   0.157   5.891  12.573  0.4815 -0.4052 -0.5436
18222TIP3    H176157   0.108   5.920  12.497 -1.9874 -2.9472 -0.0782
18222TIP3    H276158   0.168   5.796  12.560  3.7726 -0.2631  0.2939
18223TIP3   OH276159   3.596   2.627   5.516  0.3225  0.2818 -0.5543
18223TIP3    H176160   3.541   2.680   5.458  0.0462 -0.2996 -0.8323
18223TIP3    H276161   3.672   2.604   5.462  0.4171  0.3522 -0.4504
18224TIP3   OH276162   0.467   3.734  14.391  0.0020 -0.2504  0.3170
18224TIP3    H176163   0.548   3.715  14.436 -0.0888 -1.5689 -0.0299
18224TIP3    H276164   0.489   3.728  14.298 -0.4466 -0.4336  0.2183
18225TIP3   OH276165   3.578   3.810  14.236  0.0388 -0.6962 -0.1963
18225TIP3    H176166   3.485   3.820  14.254 -0.4659 -2.3663 -1.6044
18225TIP3    H276167   3.583   3.786  14.143  1.9706  0.4771 -0.4679
18226TIP3   OH276168   2.911   3.415  17.416 -0.5626 -0.4215 -0.1161
18226TIP3    H176169   2.983   3.470  17.448 -0.4446 -0.5303 -0.1910
18226TIP3    H276170   2.884   3.364  17.493 -0.9179  0.0059  0.0439
18227TIP3   OH276171   3.640   1.807  13.638  0.4434 -0.3924 -0.2027
18227TIP3    H176172   3.601   1.787  13.553 -1.6893  0.4775  0.4959
18227TIP3    H276173   3.634   1.725  13.687 -2.2423  0.1005  0.4605
18228TIP3   OH276174   0.810   4.550  17.358 -0.3281  0.5189  0.0696
18228TIP3    H176175   0.875   4.515  17.419 -2.4553  0.0356  2.1732
18228TIP3    H276176   0.820   4.496  17.279  0.5752 -0.7675  1.0244
18229TIP3   OH276177   3.686   0.479   5.563  0.2597  0.3635  0.0073
18229TIP3    H176178   3.637   0.400   5.538 -1.6396  1.7389 -0.9136
18229TIP3    H276179   3.748   0.449   5.628 -1.3943 -1.6483  0.7793
18230TIP3   OH276180   1.824   5.484   2.165  0.0166  0.0236  0.2871
18230TIP3    H176181   1.802   5.395   2.193  1.1835 -0.5868 -0.6962
18230TIP3    H276182   1.749   5.511   2.111 -0.9096  0.1321  1.5699
18231TIP3   OH276183   3.452   6.469   5.382  0.0725 -0.0505  0.0981
18231TIP3    H176184   3.368   6.473   5.427 -0.7070 -0.4242 -1.2507
18231TIP3    H276185   3.514   6.440   5.449 -0.9850 -0.3445  0.9824
18232TIP3   OH276186   2.287   2.156  12.463  0.8556 -0.4346  0.6492
18232TIP3    H176187   2.271   2.172  12.370  3.3761 -0.4145  0.1389
18232TIP3    H276188   2.269   2.063  12.476 -1.7169  0.0015  0.7327
18233TIP3   OH276189   3.250   5.684   1.662  0.0300  0.5067  0.6944
18233TIP3    H176190   3.231   5.712   1.572 -0.5568  0.5012  0.8127
18233TIP3    H276191   3.191   5.736   1.716 -1.5158 -1.3168  0.8867
18234TIP3   OH276192   2.288   5.842  15.721 -0.0932  0.4633  0.4696
18234TIP3    H176193   2.238   5.776  15.770 -0.0846 -0.7871 -1.1193
18234TIP3    H276194   2.308   5.910  15.786 -2.4432  0.2393  1.5425
18235TIP3   OH276195   2.842   0.800   3.095  0.4474  0.2726 -0.0168
18235TIP3    H176196   2.933   0.770   3.097  0.3962  0.0374  2.7848
18235TIP3    H276197   2.795   0.733   3.144 -0.9444  1.2982  0.0764
18236TIP3   OH276198   1.986   5.415   5.044  0.0492 -0.2869 -0.4044
18236TIP3    H176199   2.055   5.421   4.978 -0.4942 -1.2637 -1.0812
18236TIP3    H276200   1.960   5.323   5.044  0.1313 -0.3328  1.2863
18237TIP3   OH276201   1.980   3.943  16.581 -0.3364 -0.6469  0.7234
18237TIP3    H176202   2.012   3.999  16.511  0.3589 -0.0756  1.4770
18237TIP3    H276203   1.938   4.003  16.643 -0.0127 -1.0030  1.3049
18238TIP3   OH276204   1.574   1.082  16.302  0.1325  0.0339  0.2304
18238TIP3    H176205   1.485   1.102  16.273 -0.0002 -0.3835  0.3422
18238TIP3    H276206   1.573   1.094  16.397  0.5603  1.3716  0.0815
18239TIP3   OH276207   2.436   5.579  14.890  0.4119  0.1897  0.1961
18239TIP3    H176208   2.409   5.601  14.979  0.9027  0.6584  0.2359
18239TIP3    H276209   2.358   5.539  14.850  0.0296  0.4507  0.6707
18240TIP3   OH276210   4.045   3.734  10.983  0.1887  0.0787  0.0168
18240TIP3    H176211   4.077   3.647  10.959  1.7152  0.5878  0.0830
18240TIP3    H276212   4.117   3.772  11.034 -0.7223  1.1318  0.5454
18241TIP3   OH276213   0.962   5.405  15.650 -0.2497  0.1519 -0.3196
18241TIP3    H176214   1.028   5.435  15.588  0.4288 -1.0254 -0.2035
18241TIP3    H276215   0.881   5.401  15.599  0.5053 -1.8499 -1.4878
18242TIP3   OH276216   2.604   1.743   1.695 -0.1057  0.8074 -0.0807
18242TIP3    H176217   2.536   1.680   1.667 -0.3319  0.1068  1.8984
18242TIP3    H276218   2.647   1.768   1.613 -1.3640 -0.3455 -1.1720
18243TIP3   OH276219   2.013   3.994   4.152  0.8012  0.4491 -0.0058
18243TIP3    H176220   2.052   4.078   4.126 -0.2333  0.6972 -0.8522
18243TIP3    H276221   2.084   3.947   4.197  1.0434  2.2558  1.6170
18244TIP3   OH276222   4.933   6.651   0.125 -0.7317 -0.0175  0.2343
18244TIP3    H176223   4.883   6.732   0.115  1.1936  1.0961 -1.1219
18244TIP3    H276224   4.943   6.619   0.035 -1.4148 -1.7878  0.7469
18245TIP3   OH276225   0.379   1.925  14.137 -0.1116 -0.0912  0.1725
18245TIP3    H176226   0.471   1.943  14.118  0.1739 -2.2738 -0.8010
18245TIP3    H276227   0.379   1.836  14.172 -2.0200 -1.0193 -1.9258
18246TIP3   OH276228   5.843   6.693  16.870 -0.5833  0.0370 -0.0295
18246TIP3    H176229   5.751   6.691  16.897 -1.0990  0.9155 -1.5675
18246TIP3    H276230   5.867   6.601  16.862 -2.3759 -0.3398 -2.7072
18247TIP3   OH276231   5.516   4.498  13.964  0.5059 -0.0655 -0.0650
18247TIP3    H176232   5.606   4.528  13.953  0.3656  0.4206  0.1068
18247TIP3    H276233   5.517   4.448  14.046  0.3887  0.8509  0.5023
18248TIP3   OH276234   2.102   3.387  13.523 -0.2230  0.2249  0.5672
18248TIP3    H176235   2.165   3.433  13.579 -0.9205  1.0925  0.6604
18248TIP3    H276236   2.140   3.392  13.435  0.6098 -0.6627  0.8634
18249TIP3   OH276237   2.733   4.196  14.182 -0.8318 -0.4338 -0.1512
18249TIP3    H176238   2.686   4.279  14.188 -0.2474 -0.0095 -1.1894
18249TIP3    H276239   2.815   4.218  14.138 -0.4646 -1.4830 -0.0218
18250TIP3   OH276240   1.876   2.270  13.714 -0.3281 -0.5675 -0.1589
18250TIP3    H176241   1.824   2.312  13.782  1.8582 -0.4011  1.4892
18250TIP3    H276242   1.829   2.188  13.696 -0.9018 -0.6705  1.6294
18251TIP3   OH276243   1.671   0.020  16.807  0.3267 -0.2259 -0.5892
18251TIP3    H176244   1.620  -0.023  16.738 -0.1924 -0.3018 -0.1622
18251TIP3    H276245   1.681  -0.047  16.874 -2.1650  0.8210  0.9690
18252TIP3   OH276246   0.372   5.659   1.886  0.6759  0.1870 -0.0841
18252TIP3    H176247   0.444   5.601   1.911  1.5886  0.5260 -1.7949
18252TIP3    H276248   0.414   5.741   1.861 -0.4758  1.0696  0.7530
18253TIP3   OH276249   1.990   2.924  15.858 -0.5417  0.3382  0.0604
18253TIP3    H176250   1.949   2.995  15.907 -0.4993 -0.0066  0.5918
18253TIP3    H276251   2.077   2.958  15.835 -0.3217  0.2662  0.7638
18254TIP3   OH276252   2.876   3.800   7.001 -0.2126  0.0160  0.0064
18254TIP3    H176253   2.856   3.790   7.094  2.1681  0.6312  0.6567
18254TIP3    H276254   2.896   3.893   6.990  1.9477 -0.4448 -0.5181
18255TIP3   OH276255   3.877   6.591   0.782  0.3830  0.1414  0.3036
18255TIP3    H176256   3.891   6.502   0.816 -1.2699 -0.0085  0.6625
18255TIP3    H276257   3.934   6.646   0.836  0.8012 -0.5845  0.6338
18256TIP3   OH276258   2.009   0.207  11.349  0.0580 -0.2451 -0.1500
18256TIP3    H176259   1.921   0.187  11.319  0.3810 -3.3434  0.6101
18256TIP3    H276260   2.062   0.131  11.322  2.5272  1.4994 -0.6075
18257TIP3   OH276261   6.511   5.833   4.397  0.0246 -0.1184 -0.0044
18257TIP3    H176262   6.552   5.843   4.311  0.9520 -0.5475  0.3708
18257TIP3    H276263   6.557   5.895   4.453  0.3289 -0.7660  0.4765
18258TIP3   OH276264   1.818   0.854  15.734  0.1969  0.4280 -0.2698
18258TIP3    H176265   1.874   0.915  15.686  0.8291  0.9379  1.0797
18258TIP3    H276266   1.736   0.852  15.683  0.2821  2.1193 -0.5354
18259TIP3   OH276267   1.140   4.998   1.434 -0.2764 -0.0309  0.1107
18259TIP3    H176268   1.110   4.908   1.423  0.7871 -0.5218  0.9652
18259TIP3    H276269   1.187   5.017   1.353  1.1715 -0.9739  0.6718
18260TIP3   OH276270   5.517   2.798  14.222 -0.2431 -0.1939  0.1087
18260TIP3    H176271   5.446   2.836  14.274 -2.4352 -0.7499 -2.2207
18260TIP3    H276272   5.476   2.779  14.137  2.3351 -2.0442 -0.8462
18261TIP3   OH276273   3.358   1.015   1.205 -0.3463 -0.7684 -0.2750
18261TIP3    H176274   3.397   1.063   1.133  2.8764 -1.7534  0.6606
18261TIP3    H276275   3.331   0.931   1.167  1.3417 -1.2860 -0.4184
18262TIP3   OH276276   6.088   3.399  12.189  0.1966  0.1194  0.0879
18262TIP3    H176277   6.125   3.421  12.274  0.4993 -0.1847  0.0386
18262TIP3    H276278   6.059   3.308  12.197 -1.2681  0.5960  0.3636
18263TIP3   OH276279   4.102   1.660   3.586 -0.1046 -0.2946 -0.0211
18263TIP3    H176280   4.040   1.596   3.621 -1.6109  0.9885 -0.2195
18263TIP3    H276281   4.167   1.670   3.655 -2.5914  1.6306  2.2828
18264TIP3   OH276282   6.578   0.480  15.694  0.1545  0.8069 -0.1124
18264TIP3    H176283   6.623   0.463  15.777 -0.8550 -0.7271  0.1677
18264TIP3    H276284   6.644   0.460  15.627  0.6843  1.1336  0.3056
18265TIP3   OH276285   6.693   1.931  16.154  0.1006 -0.4077 -0.3353
18265TIP3    H176286   6.763   1.943  16.090  0.0633 -0.5065 -0.3954
18265TIP3    H276287   6.738   1.924  16.238  0.1810 -0.7616 -0.4075
18266TIP3   OH276288   4.452   3.217  13.287  0.3937 -0.4072 -0.0141
18266TIP3    H176289   4.373   3.261  13.258 -0.7220 -1.4832  1.2524
18266TIP3    H276290   4.438   3.124  13.268  1.1904 -0.6605  0.5251
18267TIP3   OH276291   5.113   0.481  13.681  0.0219  0.2017 -0.2098
18267TIP3    H176292   5.179   0.446  13.741  1.3442  0.5638 -1.4240
18267TIP3    H276293   5.110   0.418  13.609 -0.2330  0.7078 -0.6441
18268TIP3   OH276294   1.730   1.080  12.193 -0.2135  0.5204  0.4261
18268TIP3    H176295   1.697   1.134  12.121 -0.3399 -0.1946 -0.0570
18268TIP3    H276296   1.680   1.108  12.269 -0.5200  0.8423  0.1069
18269TIP3   OH276297   6.413   6.159   6.331 -0.2100 -0.3554 -0.0552
18269TIP3    H176298   6.462   6.198   6.259 -1.2913  0.8992 -0.1254
18269TIP3    H276299   6.351   6.100   6.289  0.9498 -1.6830  0.0177
18270TIP3   OH276300   3.305   1.043  11.054 -0.0085  0.2785 -0.0277
18270TIP3    H176301   3.385   0.996  11.031  0.8510  2.0051 -0.7078
18270TIP3    H276302   3.305   1.047  11.149  0.7289  0.2960 -0.0286
18271TIP3   OH276303   5.980   1.446   0.308 -0.0502 -0.0507 -0.1954
18271TIP3    H176304   5.931   1.410   0.381  0.6625 -0.7892 -0.0691
18271TIP3    H276305   6.058   1.390   0.301  1.6839  2.1204  0.7213
18272TIP3   OH276306   6.325   5.686  16.700  0.2345  0.0720  0.0158
18272TIP3    H176307   6.333   5.768  16.749  0.6146 -0.5710  1.0538
18272TIP3    H276308   6.259   5.636  16.748  0.8525 -0.7000  0.0911
18273TIP3   OH276309   0.250   0.245   6.172 -0.3584 -0.4733 -0.0216
18273TIP3    H176310   0.282   0.187   6.240 -1.9431 -1.9994 -0.5183
18273TIP3    H276311   0.212   0.320   6.219 -0.6465 -1.0881  0.7371
18274TIP3   OH276312   0.772   3.666  17.452 -0.2691  0.2346  0.3684
18274TIP3    H176313   0.776   3.752  17.493 -1.2123 -0.1584  1.3539
18274TIP3    H276314   0.704   3.619  17.502 -0.9723 -0.5090 -1.2113
18275TIP3   OH276315   3.397   6.414  14.137  0.5017 -0.4637  0.2156
18275TIP3    H176316   3.308   6.384  14.118 -0.8949  2.9290  0.6578
18275TIP3    H276317   3.406   6.404  14.232 -0.4578  1.5049  0.5579
18276TIP3   OH276318   2.260   1.268  17.446  0.8104 -0.2094 -0.3658
18276TIP3    H176319   2.190   1.212  17.480  0.0740  0.9866  0.1639
18276TIP3    H276320   2.225   1.301  17.363 -0.1334  1.9324  0.8185
18277TIP3   OH276321   0.802   6.597  13.226  0.3219 -0.0531 -0.6493
18277TIP3    H176322   0.849   6.516  13.246 -0.3784 -0.6980 -1.5460
18277TIP3    H276323   0.840   6.627  13.144  1.6150  1.3664  0.4067
18278TIP3   OH276324   0.255   0.524   3.689 -0.2127  0.0168 -0.9630
18278TIP3    H176325   0.281   0.596   3.632  1.2027 -0.7335 -1.3061
18278TIP3    H276326   0.284   0.445   3.643  0.2425 -0.6503  0.4182
18279TIP3   OH276327   1.250   0.932  16.406 -0.1526 -0.0391 -0.1082
18279TIP3    H176328   1.330   0.936  16.457  1.2649  1.1139 -2.2953
18279TIP3    H276329   1.229   0.838  16.401  1.8189 -0.4930 -0.5829
18280TIP3   OH276330   1.140   2.299  16.741  0.3279  0.7844 -0.1299
18280TIP3    H176331   1.161   2.324  16.651 -0.5815  1.9352 -0.0442
18280TIP3    H276332   1.068   2.356  16.766 -0.0301 -0.1276  1.0381
18281TIP3   OH276333   1.212   1.912   0.451 -0.2533  0.7261  0.2487
18281TIP3    H176334   1.261   1.899   0.532  0.6463  1.6495 -0.1278
18281TIP3    H276335   1.142   1.847   0.455 -0.8317  1.4144  2.2132
18282TIP3   OH276336   3.461   1.763   6.151  0.4040  0.0858 -0.1826
18282TIP3    H176337   3.539   1.794   6.196  0.6028 -0.9419  0.1925
18282TIP3    H276338   3.389   1.810   6.194  0.8711  2.1646 -1.4962
18283TIP3   OH276339   3.921   2.187  13.645  0.0158 -0.5364  0.1295
18283TIP3    H176340   3.837   2.142  13.652 -0.6692  0.6977 -0.0524
18283TIP3    H276341   3.986   2.116  13.651 -0.9964 -1.4119  1.1158
18284TIP3   OH276342   6.676   0.056   5.628  0.2174  0.3222  0.2029
18284TIP3    H176343   6.717  -0.003   5.691  0.3953  0.8456  0.5836
18284TIP3    H276344   6.586   0.066   5.660  0.4922  1.1165  0.7700
18285TIP3   OH276345   0.299   3.942  14.450  0.1772  0.5121 -0.0516
18285TIP3    H176346   0.331   3.854  14.432 -2.4249 -0.6137  0.3654
18285TIP3    H276347   0.359   3.976  14.517 -0.1273 -1.9047  1.5533
18286TIP3   OH276348   2.463   4.891  17.357 -0.3345 -0.1634 -0.2306
18286TIP3    H176349   2.373   4.867  17.378 -0.1216 -0.7605  0.0343
18286TIP3    H276350   2.487   4.955  17.424 -0.6151  0.1176 -0.4000
18287TIP3   OH276351   3.071   6.438  17.159  0.2366 -0.7061  0.3874
18287TIP3    H176352   3.017   6.392  17.223 -1.3989 -0.5273 -0.8049
18287TIP3    H276353   3.029   6.524  17.150  0.0413 -0.9630 -1.3985
18288TIP3   OH276354   4.309   5.098   0.672 -0.9413 -0.2718  0.2130
18288TIP3    H176355   4.399   5.129   0.658 -0.4792 -1.9591 -0.8479
18288TIP3    H276356   4.274   5.085   0.584 -1.9629 -0.3992  0.6208
18289TIP3   OH276357   6.321   5.383  13.072  0.0056  0.6482  0.0103
18289TIP3    H176358   6.235   5.363  13.036 -0.4653  2.1842  0.2326
18289TIP3    H276359   6.305   5.403  13.164  0.5487  1.3080 -0.0316
18290TIP3   OH276360   2.540   2.110   3.796  0.4211 -0.5300  1.0032
18290TIP3    H176361   2.578   2.084   3.712 -0.2561 -1.2269  0.8986
18290TIP3    H276362   2.471   2.045   3.812 -1.1594  1.0356  0.8738
18291TIP3   OH276363   2.254   5.694   0.248  0.7499 -0.2708  0.0076
18291TIP3    H176364   2.277   5.734   0.332 -2.3771  1.5200  0.1676
18291TIP3    H276365   2.269   5.762   0.183 -1.6379  0.2304 -0.1305
18292TIP3   OH276366   6.624   3.824  12.183  0.1993  0.1505  0.2480
18292TIP3    H176367   6.556   3.872  12.136  0.2981 -0.5052 -0.5765
18292TIP3    H276368   6.635   3.872  12.265  0.2914  1.5412 -0.5467
18293TIP3   OH276369   5.193   3.877  16.180 -0.0577 -0.0241  0.5574
18293TIP3    H176370   5.173   3.918  16.096 -0.4987 -1.0292  0.1596
18293TIP3    H276371   5.134   3.920  16.242 -0.5001 -0.0484  0.1538
18294TIP3   OH276372   4.005   1.899  14.995  0.0359  0.0416 -0.1954
18294TIP3    H176373   3.956   1.817  14.991  0.7966 -0.3932 -0.9546
18294TIP3    H276374   3.959   1.951  15.060 -0.7666 -0.7865 -0.0776
18295TIP3   OH276375   2.372   0.813   4.117  0.4643 -0.3873 -0.1350
18295TIP3    H176376   2.323   0.843   4.193 -2.2696 -4.0470 -0.1494
18295TIP3    H276377   2.349   0.874   4.047 -1.3584 -0.0071  0.7558
18296TIP3   OH276378   3.321   2.460   0.169  0.1749 -0.0639 -0.6592
18296TIP3    H176379   3.405   2.414   0.174  0.1107 -0.1377 -0.2035
18296TIP3    H276380   3.256   2.395   0.197  0.1571  0.4853  0.6769
18297TIP3   OH276381   6.551   4.894  16.772 -0.0275 -0.3493 -0.5005
18297TIP3    H176382   6.497   4.973  16.764 -0.1020 -0.4312 -0.8332
18297TIP3    H276383   6.617   4.916  16.837 -0.5717 -0.3064  0.0443
18298TIP3   OH276384   6.259   0.201  10.675 -0.0891 -0.4033  0.2802
18298TIP3    H176385   6.299   0.258  10.740 -1.0217  1.1993 -0.4891
18298TIP3    H276386   6.189   0.156  10.722 -0.0645 -0.0709  0.6353
18299TIP3   OH276387   2.757   4.387   4.380  0.3375 -0.3840  0.2204
18299TIP3    H176388   2.838   4.427   4.349 -0.9228 -0.2779 -3.3900
18299TIP3    H276389   2.751   4.304   4.333 -1.6311 -0.3756  0.3640
18300TIP3   OH276390   2.948   4.390  12.861  0.2020  0.3271 -0.3601
18300TIP3    H176391   2.909   4.462  12.810  0.0715 -0.7661 -1.8788
18300TIP3    H276392   2.981   4.432  12.940  2.4024  2.5469 -2.2899
18301TIP3   OH276393   2.217   0.610   6.516  0.3458 -0.0311  0.3802
18301TIP3    H176394   2.258   0.613   6.602  0.2365 -0.9557  0.4734
18301TIP3    H276395   2.282   0.565   6.461 -0.2611 -0.9114  0.3725
18302TIP3   OH276396   0.942   0.308   1.781  0.5562  0.3492 -0.1615
18302TIP3    H176397   0.985   0.269   1.858 -0.1665 -0.2847 -0.0633
18302TIP3    H276398   0.958   0.245   1.711  1.1333  0.8822 -0.5195
18303TIP3   OH276399   4.540   5.009   3.457 -0.3850 -0.0049  0.1407
18303TIP3    H176400   4.558   4.933   3.401 -1.7170  1.8462 -3.0279
18303TIP3    H276401   4.626   5.046   3.476  0.1028 -0.6639 -0.7201
18304TIP3   OH276402   2.996   4.538   5.526 -0.9350  0.0443  0.0903
18304TIP3    H176403   3.016   4.527   5.434 -1.9924 -0.9259 -0.0451
18304TIP3    H276404   3.077   4.569   5.565  0.3254 -2.0949 -0.6935
18305TIP3   OH276405   4.685   3.771  17.240 -0.1144 -0.3255 -0.1473
18305TIP3    H176406   4.759   3.714  17.217  0.7260  0.2801  0.9539
18305TIP3    H276407   4.667   3.752  17.332  1.0772  2.0400  0.6862
18306TIP3   OH276408   6.125   5.527   4.417 -0.2961  0.6105 -0.2550
18306TIP3    H176409   6.052   5.548   4.359  1.3277  0.3023 -2.5474
18306TIP3    H276410   6.168   5.610   4.433 -0.6685  0.6762  0.4325
18307TIP3   OH276411   2.394   1.648   3.099 -0.0745  0.3843  0.3758
18307TIP3    H176412   2.412   1.639   3.193  0.8038  0.4383  0.2132
18307TIP3    H276413   2.470   1.694   3.064  1.6672 -3.2887 -1.1074
18308TIP3   OH276414   0.388   5.267   1.807 -0.1102 -0.1608  0.0241
18308TIP3    H176415   0.312   5.210   1.792 -1.0807  0.9950  0.3841
18308TIP3    H276416   0.356   5.333   1.869  1.2310  0.2893  0.2593
18309TIP3   OH276417   4.680   3.164   1.365  0.2207  0.0235 -1.2184
18309TIP3    H176418   4.724   3.102   1.307  0.9954 -0.8437  0.2524
18309TIP3    H276419   4.693   3.129   1.453  0.2406  2.0028 -0.3731
18310TIP3   OH276420   1.951   5.715   3.328 -0.8103  0.2370 -0.0294
18310TIP3    H176421   1.896   5.665   3.388  1.4709 -1.9993  0.3730
18310TIP3    H276422   1.968   5.798   3.373 -1.4692 -0.2322  1.1208
18311TIP3   OH276423   4.739   3.910   3.940  1.1169 -0.2552 -0.0004
18311TIP3    H176424   4.707   3.975   3.878 -1.2940 -0.5989  0.7955
18311TIP3    H276425   4.711   3.941   4.026  2.8722 -0.6734  0.7833
18312TIP3   OH276426   3.384   0.675  14.813 -0.0541  0.6477 -0.0630
18312TIP3    H176427   3.409   0.608  14.876 -1.4186  0.7001  0.5718
18312TIP3    H276428   3.465   0.723  14.796  0.3320  0.7272  1.7723
18313TIP3   OH276429   0.732   4.497  15.774  0.8103  0.2208  0.4624
18313TIP3    H176430   0.679   4.460  15.844  1.9387  0.0221  1.2354
18313TIP3    H276431   0.676   4.562  15.732  0.2745  0.6817  1.8509
18314TIP3   OH276432   1.447   1.179  14.889  0.3324 -0.2857  0.0379
18314TIP3    H176433   1.367   1.128  14.875 -0.1339  0.8980 -2.0554
18314TIP3    H276434   1.421   1.248  14.950  0.2559 -0.9325  0.7542
18315TIP3   OH276435   0.022   2.058   4.067  0.3474 -0.5780 -0.4120
18315TIP3    H176436   0.093   2.011   4.111 -0.5117 -0.7603  0.8157
18315TIP3    H276437   0.021   2.144   4.109  0.0996 -0.4420 -0.6964
18316TIP3   OH276438   2.561   1.631  17.522 -0.1716  0.1906  0.3680
18316TIP3    H176439   2.593   1.647  17.611  1.0521  1.7318 -0.2902
18316TIP3    H276440   2.600   1.548  17.496  1.4200  0.8796  0.4495
18317TIP3   OH276441   1.001   4.456  11.804 -0.0143 -0.3675 -0.0556
18317TIP3    H176442   0.947   4.480  11.729 -0.6635 -2.5372 -0.3390
18317TIP3    H276443   1.000   4.360  11.806 -0.8724 -0.4407  3.3226
18318TIP3   OH276444   2.888   6.681  15.641 -0.1728 -0.7793  0.1366
18318TIP3    H176445   2.976   6.684  15.604  0.6512 -0.5035  2.0080
18318TIP3    H276446   2.881   6.594  15.679 -0.1133 -0.2914  1.3095
18319TIP3   OH276447   2.315   0.472  11.898 -0.0630 -0.6576 -0.3498
18319TIP3    H176448   2.241   0.413  11.913  0.3375 -1.1310 -0.2157
18319TIP3    H276449   2.356   0.439  11.818  0.5971 -1.0090  0.1305
18320TIP3   OH276450   1.714   2.757  11.380 -0.2673 -0.7514  0.5520
18320TIP3    H176451   1.784   2.698  11.352 -0.5655 -1.1173  0.5586
18320TIP3    H276452   1.657   2.763  11.303  0.4662  0.6151  0.0837
18321TIP3   OH276453   5.436   0.984   3.652  0.2356 -0.1896 -0.2379
18321TIP3    H176454   5.413   1.046   3.721 -0.6259  0.2326 -0.8853
18321TIP3    H276455   5.490   0.918   3.696 -0.3233  0.0497  0.8465
18322TIP3   OH276456   5.740   0.619  12.471  0.7242 -0.0499 -0.1711
18322TIP3    H176457   5.744   0.524  12.476 -2.6194 -0.4178 -2.0156
18322TIP3    H276458   5.733   0.638  12.378 -1.3472  1.7792  0.2799
18323TIP3   OH276459   2.106   4.040  16.155  0.1600 -0.2225  0.7783
18323TIP3    H176460   2.182   3.985  16.172  2.6297  2.8637  0.7151
18323TIP3    H276461   2.115   4.067  16.064  1.6087  3.5040  1.8081
18324TIP3   OH276462   4.286   1.216   4.285  0.0222 -0.3666 -0.1266
18324TIP3    H176463   4.355   1.282   4.278 -0.7899  0.5667  0.3177
18324TIP3    H276464   4.277   1.200   4.379  1.3381 -2.3831 -0.2793
18325TIP3   OH276465   4.966   4.388  17.463 -0.1683 -0.1014 -0.5125
18325TIP3    H176466   4.873   4.381  17.484 -0.1321 -0.2242 -0.3934
18325TIP3    H276467   4.981   4.316  17.401  0.3433 -1.5312  1.1993
18326TIP3   OH276468   0.687   5.291   3.355  0.5035 -0.1951 -0.4462
18326TIP3    H176469   0.776   5.312   3.385  1.0348 -3.1679  0.4135
18326TIP3    H276470   0.661   5.368   3.304  1.6470  2.9406  3.1385
18327TIP3   OH276471   2.998   0.855  13.452 -0.3269  0.0185  0.0672
18327TIP3    H176472   2.973   0.882  13.364  1.5779 -1.2000 -0.9260
18327TIP3    H276473   3.052   0.928  13.484  0.0632 -0.1056 -0.3037
18328TIP3   OH276474   3.324   5.488   4.805 -0.2276  0.0073  0.1665
18328TIP3    H176475   3.368   5.409   4.773  0.5824  1.5037 -2.7968
18328TIP3    H276476   3.357   5.558   4.749  0.9298  2.9956  4.1584
18329TIP3   OH276477   4.869   2.152   2.407 -0.6024  0.1945 -0.4130
18329TIP3    H176478   4.917   2.132   2.487 -0.6975  0.2205 -0.3492
18329TIP3    H276479   4.786   2.189   2.437 -0.9122 -0.4088 -0.5123
18330TIP3   OH276480   0.075   2.236  17.150  0.4340  0.9864  0.0564
18330TIP3    H176481   0.167   2.263  17.144  1.2600 -1.3955  0.6472
18330TIP3    H276482   0.035   2.271  17.071  2.2475  0.7946 -1.0249
18331TIP3   OH276483   5.447   3.686   2.088  0.1469  0.9739 -0.2279
18331TIP3    H176484   5.500   3.756   2.050 -0.1032  1.4011  0.1864
18331TIP3    H276485   5.358   3.720   2.087  0.1890  1.1786  1.1065
18332TIP3   OH276486   0.331   4.789   4.772 -0.2074  0.7053  0.1527
18332TIP3    H176487   0.357   4.700   4.792  0.8567  0.4738 -1.9790
18332TIP3    H276488   0.235   4.787   4.770 -0.1848 -0.4239  0.0311
18333TIP3   OH276489   0.279   1.751   2.139 -0.4506  0.2211  0.3060
18333TIP3    H176490   0.249   1.794   2.219  1.2345 -1.2941  1.8522
18333TIP3    H276491   0.375   1.758   2.143 -0.1718 -2.5427  0.0419
18334TIP3   OH276492   1.143   3.014  11.640 -0.2162  0.3351 -0.0215
18334TIP3    H176493   1.089   3.072  11.695 -1.6366  0.8651 -1.8728
18334TIP3    H276494   1.173   2.946  11.700 -1.1969  1.2083  1.5375
18335TIP3   OH276495   0.697   4.313   1.624 -0.2770 -0.7283  0.3234
18335TIP3    H176496   0.658   4.383   1.676  0.1447 -1.8868  2.3263
18335TIP3    H276497   0.629   4.289   1.561  0.4267  3.0308 -2.1474
18336TIP3   OH276498   3.118   4.707  16.055 -0.4810 -0.2489  0.2594
18336TIP3    H176499   3.040   4.681  16.007  0.5285  1.3929 -2.5184
18336TIP3    H276500   3.189   4.654  16.018  0.0961 -0.0833  1.0856
18337TIP3   OH276501   2.136   5.932   2.659 -0.0472 -0.6338 -0.3480
18337TIP3    H176502   2.164   5.853   2.705  0.8393  0.7384  1.6327
18337TIP3    H276503   2.217   5.970   2.625  0.4382  2.0956  3.3200
18338TIP3   OH276504   3.217   5.349  11.100 -0.0470 -0.5472 -0.3426
18338TIP3    H176505   3.183   5.393  11.178  4.3530 -0.1000  1.6177
18338TIP3    H276506   3.160   5.380  11.029 -2.2794  1.6412  2.1418
18339TIP3   OH276507   6.055   1.102  15.808  0.0483  0.1431 -0.3999
18339TIP3    H176508   6.112   1.098  15.885  0.8021  2.1264 -0.7816
18339TIP3    H276509   6.043   1.011  15.782  3.0660 -0.4109 -0.2677
18340TIP3   OH276510   1.934   1.063  11.491  0.5767  0.1502 -0.2284
18340TIP3    H176511   1.849   1.088  11.527  0.5361 -0.3527  0.0439
18340TIP3    H276512   1.973   1.008  11.559  1.4083  0.9212 -0.0679
18341TIP3   OH276513   5.267   6.316   5.356 -0.4563  0.3121 -0.2947
18341TIP3    H176514   5.332   6.281   5.416  2.8902  1.0739 -3.1141
18341TIP3    H276515   5.267   6.410   5.374  0.7001  0.5712 -1.4473
18342TIP3   OH276516   3.579   0.220   3.906  0.6750  0.7045 -0.1593
18342TIP3    H176517   3.513   0.250   3.969  1.1908 -0.5027  1.0218
18342TIP3    H276518   3.661   0.221   3.955  1.5779  2.1951 -1.6112
18343TIP3   OH276519   6.432   1.031  16.373  0.0155  0.1866  0.0515
18343TIP3    H176520   6.389   1.101  16.421  1.3418 -0.5234  2.4238
18343TIP3    H276521   6.514   1.016  16.421  1.2457 -0.8934 -2.2100
18344TIP3   OH276522   3.412   4.143  16.042 -0.1182 -0.5137  0.5178
18344TIP3    H176523   3.339   4.169  16.098 -0.2680  0.1446  0.0308
18344TIP3    H276524   3.371   4.104  15.965  0.0580 -0.5363  0.4338
18345TIP3   OH276525   3.575   1.893  16.451 -0.0626 -0.1053  0.3364
18345TIP3    H176526   3.623   1.903  16.369 -0.9706 -0.0690 -0.2061
18345TIP3    H276527   3.601   1.968  16.504 -1.2676  1.2264 -0.8604
18346TIP3   OH276528   5.777   0.243   3.580  0.3397  0.4624  0.1076
18346TIP3    H176529   5.758   0.156   3.617 -1.4323  1.6278  2.1512
18346TIP3    H276530   5.722   0.247   3.501 -1.8200  0.6912  1.5201
18347TIP3   OH276531   5.425   4.424   0.603 -0.4845 -0.3111 -0.1352
18347TIP3    H176532   5.373   4.422   0.522 -0.0887  0.4848 -0.4147
18347TIP3    H276533   5.389   4.498   0.653 -1.8845 -1.8286  1.2175
18348TIP3   OH276534   3.361   5.327   3.072  0.5502  0.3955 -0.3582
18348TIP3    H176535   3.418   5.267   3.024  0.0685  0.1526 -0.6419
18348TIP3    H276536   3.280   5.330   3.019 -0.6372 -1.1768  1.2390
18349TIP3   OH276537   0.624   6.054  12.924 -0.0109 -0.3181  0.2026
18349TIP3    H176538   0.718   6.054  12.941 -0.4271  1.0974  3.3205
18349TIP3    H276539   0.587   6.002  12.996 -1.7816  2.3963  1.4198
18350TIP3   OH276540   5.536   1.851   3.524 -0.1033 -0.1223 -0.3095
18350TIP3    H176541   5.495   1.872   3.608 -0.2372 -0.9922 -0.1531
18350TIP3    H276542   5.581   1.932   3.499 -1.5600  0.7364 -0.2915
18351TIP3   OH276543   5.494   5.114  14.638 -0.3679 -0.5958  0.3660
18351TIP3    H176544   5.538   5.199  14.646  0.0541 -0.8123  0.3560
18351TIP3    H276545   5.447   5.120  14.555  0.1170 -0.5808  0.0897
18352TIP3   OH276546   0.332   1.053  14.111 -0.2112  0.4610  0.0562
18352TIP3    H176547   0.412   1.078  14.065 -0.3681 -0.9439 -1.0502
18352TIP3    H276548   0.279   1.008  14.045 -0.0003 -2.5970  1.7420
18353TIP3   OH276549   3.916   0.322  12.710  0.4930 -0.5845 -0.2503
18353TIP3    H176550   3.978   0.267  12.759  0.9397  0.3447  0.2697
18353TIP3    H276551   3.972   0.385  12.664  0.0298 -0.9903 -1.4035
18354TIP3   OH276552   4.184   3.273   5.690 -0.2422 -0.1787  0.3668
18354TIP3    H176553   4.093   3.289   5.666  0.3539  1.7792 -0.8221
18354TIP3    H276554   4.211   3.351   5.737  1.6511  0.7435 -2.0164
18355TIP3   OH276555   2.081   1.095   3.140  0.4665  0.3402 -0.2988
18355TIP3    H176556   1.994   1.054   3.142  0.5938  0.0533 -0.4889
18355TIP3    H276557   2.099   1.118   3.231 -0.2256  1.2993 -0.3865
18356TIP3   OH276558   0.638   2.140   1.798 -0.6290 -0.2212  0.2721
18356TIP3    H176559   0.585   2.117   1.874 -0.6129 -0.7159  0.1390
18356TIP3    H276560   0.578   2.188   1.740  0.0276  2.6488  1.7599
18357TIP3   OH276561   1.330   0.171  13.238  0.3427 -0.3324 -0.5268
18357TIP3    H176562   1.238   0.197  13.239  0.7269  1.3290 -2.4813
18357TIP3    H276563   1.375   0.239  13.289  0.7324  0.0190 -1.3321
18358TIP3   OH276564   0.427   3.323   4.485  0.1053 -0.1760 -0.7572
18358TIP3    H176565   0.352   3.334   4.427 -0.6193 -1.3865 -0.0882
18358TIP3    H276566   0.403   3.372   4.564  0.1889 -0.2487 -0.6867
18359TIP3   OH276567   5.195   0.695  16.811 -0.0387  0.3726  0.4274
18359TIP3    H176568   5.157   0.773  16.771  1.0101  1.0825  0.7668
18359TIP3    H276569   5.168   0.623  16.754 -1.5539  0.8737  0.4522
18360TIP3   OH276570   5.273   2.447  12.274 -0.5846  0.0400 -0.2578
18360TIP3    H176571   5.287   2.354  12.256 -0.2134  0.2925 -1.3708
18360TIP3    H276572   5.180   2.462  12.256 -0.4021  0.1052 -1.2191
18361TIP3   OH276573   1.102   5.265   2.004  0.0629  0.0311  0.5077
18361TIP3    H176574   1.139   5.189   1.959 -1.4095  0.0786 -0.9118
18361TIP3    H276575   1.176   5.323   2.019  0.9505 -0.9786  0.1303
18362TIP3   OH276576   4.814   4.608   5.211 -0.5205  0.4706  0.2370
18362TIP3    H176577   4.904   4.607   5.178 -0.8599  1.0505 -0.7449
18362TIP3    H276578   4.763   4.648   5.141 -1.4599  0.6819  1.0167
18363TIP3   OH276579   0.438   2.509  16.535  1.0258  0.0107  0.2874
18363TIP3    H176580   0.514   2.559  16.566  1.0268  1.5882 -1.9979
18363TIP3    H276581   0.414   2.551  16.452 -2.5044 -0.2717  1.0073
18364TIP3   OH276582   1.948   6.717  13.335 -0.3808 -0.6874  0.4465
18364TIP3    H176583   2.033   6.751  13.365 -0.3768  0.1619 -0.4780
18364TIP3    H276584   1.967   6.674  13.252 -0.5308 -2.3253  1.2068
18365TIP3   OH276585   0.988   1.506  14.625  0.0135  0.2583 -0.1867
18365TIP3    H176586   0.966   1.413  14.636  0.4014  0.2741  0.8706
18365TIP3    H276587   1.017   1.514  14.535 -1.6759 -0.3039 -0.8197
18366TIP3   OH276588   3.971   6.479  13.120 -0.0839  0.4554  0.0930
18366TIP3    H176589   4.024   6.517  13.190  0.2517  0.9881 -0.4380
18366TIP3    H276590   4.011   6.393  13.104  0.1671  0.5524  0.1924
18367TIP3   OH276591   5.443   4.905   2.723  0.5419  0.3360  0.0134
18367TIP3    H176592   5.498   4.826   2.718  0.2410  0.1758 -3.5964
18367TIP3    H276593   5.362   4.875   2.764  0.2215 -1.4863 -1.7621
18368TIP3   OH276594   4.377   1.709   6.726 -0.7798  0.1144 -0.3820
18368TIP3    H176595   4.374   1.640   6.660  0.5277 -1.5139  1.1488
18368TIP3    H276596   4.467   1.741   6.722 -1.1497  1.1507 -0.4904
18369TIP3   OH276597   6.360   4.791   1.217  0.0099 -0.3219 -0.4652
18369TIP3    H176598   6.438   4.738   1.202 -0.4453 -1.0379 -0.3792
18369TIP3    H276599   6.356   4.851   1.143  0.6499 -0.2604 -0.4563
18370TIP3   OH276600   6.195   2.013   1.682  0.0597  0.3669 -0.2753
18370TIP3    H176601   6.157   1.925   1.680  1.2018 -0.1425 -2.2360
18370TIP3    H276602   6.267   2.006   1.745 -1.3908  0.6419  1.4964
18371TIP3   OH276603   1.522   0.139   3.387  0.1154 -0.3751  0.0648
18371TIP3    H176604   1.598   0.085   3.365 -0.3582 -0.3445 -1.8519
18371TIP3    H276605   1.555   0.229   3.380  0.2955 -0.3788  0.8305
18372TIP3   OH276606   1.428   6.377   4.469 -0.1450  0.2220  0.5899
18372TIP3    H176607   1.407   6.370   4.376  0.6468  0.8365  0.3502
18372TIP3    H276608   1.383   6.456   4.498  2.5263  2.1868 -0.1862
18373TIP3   OH276609   2.997   2.429  12.359 -0.5943  0.0478  0.0636
18373TIP3    H176610   3.079   2.462  12.321  0.1408 -0.6930  0.9451
18373TIP3    H276611   2.976   2.352  12.307 -1.4679  0.9747 -1.0022
18374TIP3   OH276612   5.969   0.052  13.014 -0.5605  0.4261  0.3193
18374TIP3    H176613   5.951  -0.032  12.973  1.2377  0.9266 -1.6556
18374TIP3    H276614   5.976   0.031  13.108 -1.2963 -1.3917  0.0136
18375TIP3   OH276615   1.810   1.869   5.276 -0.0625 -0.2789  0.2443
18375TIP3    H176616   1.820   1.963   5.263  2.0802 -0.1211  2.3014
18375TIP3    H276617   1.827   1.857   5.370 -1.3189 -2.6058  0.2301
18376TIP3   OH276618   5.585   1.919   0.787  0.0330 -0.3359  0.2332
18376TIP3    H176619   5.590   1.944   0.695 -1.3184  1.0972  0.5161
18376TIP3    H276620   5.509   1.966   0.821  2.0567  1.4099  2.7628
18377TIP3   OH276621   0.501   0.656   2.368  0.6212  0.4619  0.1865
18377TIP3    H176622   0.464   0.570   2.348  0.1353  0.7236 -0.0738
18377TIP3    H276623   0.461   0.680   2.452  0.2574  0.7053 -0.0512
18378TIP3   OH276624   0.599   1.397   2.877 -0.6226  0.0687  0.2750
18378TIP3    H176625   0.551   1.450   2.940  1.4811  0.1206  1.9460
18378TIP3    H276626   0.570   1.307   2.894 -1.1554  0.2448  0.3001
18379TIP3   OH276627   3.637   4.489  13.427  0.2883  0.5149 -0.0166
18379TIP3    H176628   3.690   4.559  13.390  0.4058  1.1068  1.2126
18379TIP3    H276629   3.565   4.534  13.472 -0.0218 -0.1752  0.1914
18380TIP3   OH276630   3.351   2.933   2.512  0.1339  0.2506 -0.1473
18380TIP3    H176631   3.403   2.856   2.493  0.6738  0.0766  1.8122
18380TIP3    H276632   3.414   3.005   2.517 -0.0219  0.3569  0.4505
18381TIP3   OH276633   0.678   2.855   3.110  0.0801  0.3122 -0.0956
18381TIP3    H176634   0.758   2.902   3.086 -1.1685  1.6780 -1.8990
18381TIP3    H276635   0.619   2.923   3.142 -0.4542 -0.6439  1.0394
18382TIP3   OH276636   3.669   4.178  13.868  0.4840 -0.9176  0.7729
18382TIP3    H176637   3.655   4.192  13.962 -0.1889 -0.7486  0.6515
18382TIP3    H276638   3.585   4.146  13.836  0.5660 -0.5074  0.1379
18383TIP3   OH276639   1.694   3.107  11.875  0.1545  0.2003  0.0954
18383TIP3    H176640   1.686   3.167  11.801 -1.0052  1.8585  1.4706
18383TIP3    H276641   1.614   3.055  11.873  0.2668  0.0304  0.0066
18384TIP3   OH276642   4.183   3.579   6.092  0.2427  0.0164  0.2547
18384TIP3    H176643   4.146   3.659   6.130  0.3010 -0.3743  1.1502
18384TIP3    H276644   4.137   3.508   6.135 -2.4797 -0.5267 -3.1119
18385TIP3   OH276645   5.428   0.612  13.589 -0.0409 -0.4788  0.0904
18385TIP3    H176646   5.487   0.636  13.660  0.7916 -0.4968 -0.5809
18385TIP3    H276647   5.441   0.518  13.577  1.1084 -0.1846 -1.2061
18386TIP3   OH276648   6.558   4.703  16.167  0.2266 -0.5262 -0.1013
18386TIP3    H176649   6.522   4.790  16.147 -1.4218 -1.0167  0.5704
18386TIP3    H276650   6.588   4.670  16.083  0.5852  0.5719 -0.4207
18387TIP3   OH276651   5.417   0.871   0.233 -0.2950 -1.1000 -0.8095
18387TIP3    H176652   5.322   0.859   0.234 -0.5559  0.6839  0.0017
18387TIP3    H276653   5.448   0.820   0.308 -0.5884 -1.7567 -1.1229
18388TIP3   OH276654   6.404   1.039   0.294  0.2821 -0.4536  0.4736
18388TIP3    H176655   6.388   0.967   0.233  1.6473 -1.9744  1.8101
18388TIP3    H276656   6.343   1.107   0.267 -1.3749 -2.2503 -0.6153
18389TIP3   OH276657   5.511   4.189  14.665 -0.1626  0.2333  0.2699
18389TIP3    H176658   5.467   4.258  14.616  1.6755  0.3064 -1.3663
18389TIP3    H276659   5.555   4.235  14.737  1.0850  0.8240 -0.8356
18390TIP3   OH276660   5.421   3.731   4.262 -0.0333  0.9348  0.0243
18390TIP3    H176661   5.424   3.695   4.351  0.6119 -0.7797 -0.6501
18390TIP3    H276662   5.338   3.701   4.226  0.0513  0.9736 -0.2068
18391TIP3   OH276663   4.495   2.620   2.331 -0.6844 -0.7835 -0.1167
18391TIP3    H176664   4.590   2.625   2.321 -0.6309  2.2650  0.8572
18391TIP3    H276665   4.465   2.577   2.251  1.3816  0.2437 -1.5495
18392TIP3   OH276666   4.469   1.417   6.865 -0.3757  0.4807  0.3243
18392TIP3    H176667   4.386   1.435   6.822  0.1276  1.7558 -0.1700
18392TIP3    H276668   4.536   1.444   6.802  0.4061 -0.0605  0.8991
18393TIP3   OH276669   3.366   6.056   5.881  0.0320  0.0102 -0.0498
18393TIP3    H176670   3.289   6.019   5.924  0.1161  0.8059  0.8148
18393TIP3    H276671   3.432   6.058   5.949  0.5521  0.1709 -0.5540
18394TIP3   OH276672   6.619   3.983   0.030 -0.7405 -0.0747 -0.4825
18394TIP3    H176673   6.671   4.034   0.092 -0.6649 -0.2347 -0.4148
18394TIP3    H276674   6.660   3.897   0.029 -1.4416 -0.4362  0.1339
18395TIP3   OH276675   6.291   5.075  14.641  0.7304  0.0681  0.0852
18395TIP3    H176676   6.227   5.009  14.615  2.4066 -1.1356 -1.1709
18395TIP3    H276677   6.267   5.153  14.590  0.6324 -0.5593 -0.8546
18396TIP3   OH276678   0.074   3.705   4.959 -0.0420  0.4011 -0.5746
18396TIP3    H176679   0.056   3.797   4.979  0.3097  0.2391  0.5466
18396TIP3    H276680  -0.004   3.676   4.910 -0.7964  0.9169  0.2854
18397TIP3   OH276681   4.256   1.595  16.836 -0.0668 -0.2571 -0.2296
18397TIP3    H176682   4.218   1.511  16.810 -1.6836  0.3711 -0.0118
18397TIP3    H276683   4.287   1.633  16.754 -3.4599  0.8967 -1.1069
18398TIP3   OH276684   3.067   2.956   1.995  0.5910 -0.4694  0.5099
18398TIP3    H176685   3.121   3.004   2.057  1.5612 -1.6227  0.6072
18398TIP3    H276686   2.986   3.006   1.988  0.5099 -0.2488  2.5990
18399TIP3   OH276687   3.663   4.790   1.842  0.4904  0.0160 -0.0937
18399TIP3    H176688   3.675   4.882   1.817 -1.4343 -0.0737 -1.5511
18399TIP3    H276689   3.581   4.790   1.892 -0.3812 -1.1118 -1.4701
18400TIP3   OH276690   0.924   5.906   0.445  0.1877  0.1900  0.2657
18400TIP3    H176691   0.948   5.897   0.537  2.7018  0.3053 -0.3139
18400TIP3    H276692   0.835   5.870   0.440  0.1879 -0.2981  2.6215
18401TIP3   OH276693   4.036   6.095  13.806  0.5136 -0.0030  0.5599
18401TIP3    H176694   3.952   6.139  13.820  0.7927  1.0477 -0.7956
18401TIP3    H276695   4.013   6.018  13.754  0.4318  0.6151 -0.3475
18402TIP3   OH276696   6.684   1.553  12.726  0.1833 -0.3484 -0.0869
18402TIP3    H176697   6.762   1.608  12.721  1.0281 -1.5468 -0.8750
18402TIP3    H276698   6.716   1.469  12.758 -1.2141 -0.1886  1.8942
18403TIP3   OH276699   5.037   3.419   3.117 -0.2478  0.0820 -0.2842
18403TIP3    H176700   4.975   3.387   3.052  0.1388 -0.6516 -0.2924
18403TIP3    H276701   5.026   3.514   3.115 -0.5308  0.0409 -1.1296
18404TIP3   OH276702   0.336   3.534   2.860  0.1705  0.0484 -0.4426
18404TIP3    H176703   0.267   3.599   2.846  0.0036  0.3182  1.3091
18404TIP3    H276704   0.410   3.566   2.809 -0.3125  0.9440 -0.6006
18405TIP3   OH276705   5.693   0.089  16.263 -0.4974  0.0412 -0.0999
18405TIP3    H176706   5.692   0.134  16.347 -1.2064 -1.0522  0.5079
18405TIP3    H276707   5.765   0.027  16.269  1.1474  1.7204 -1.3236
18406TIP3   OH276708   0.365   0.363  16.245  0.2275 -0.0378 -0.1063
18406TIP3    H176709   0.438   0.325  16.196 -0.9747 -0.7137 -1.4454
18406TIP3    H276710   0.311   0.288  16.270  0.3204  0.3874  1.4782
18407TIP3   OH276711   0.383   2.831   1.876  0.0165 -0.0466  0.7963
18407TIP3    H176712   0.438   2.848   1.952 -0.6022  1.0938  1.0052
18407TIP3    H276713   0.294   2.846   1.906 -0.1914  1.1678 -0.3272
18408TIP3   OH276714   2.031   1.194   3.382  0.3759  0.1077  0.1288
18408TIP3    H176715   1.949   1.228   3.348  1.4425  1.7800 -0.9156
18408TIP3    H276716   2.010   1.163   3.470 -1.4840 -0.1475 -0.3574
18409TIP3   OH276717   5.487   6.615   1.830 -0.4737 -0.2549  0.0862
18409TIP3    H176718   5.548   6.611   1.904 -2.4373 -0.0666  1.8040
18409TIP3    H276719   5.414   6.560   1.857 -0.6540 -1.3224 -2.3612
18410TIP3   OH276720   0.606   5.387   0.235 -0.7775  0.0982  0.0081
18410TIP3    H176721   0.531   5.414   0.181 -0.1274 -0.4870 -1.2246
18410TIP3    H276722   0.571   5.381   0.324 -1.8794  1.0907 -0.3376
18411TIP3   OH276723   3.152   4.405   0.644  0.3555  0.4795 -0.4868
18411TIP3    H176724   3.208   4.385   0.719  1.1565  1.3068 -0.8327
18411TIP3    H276725   3.115   4.321   0.618 -0.1369  0.2177  0.9823
18412TIP3   OH276726   0.295   1.474   4.059  0.4314  0.2910  0.4428
18412TIP3    H176727   0.221   1.533   4.043  0.7364  0.5092 -0.2171
18412TIP3    H276728   0.355   1.524   4.114 -0.8004 -0.5997  2.7183
18413TIP3   OH276729   2.643   2.076  16.993 -0.1093 -0.0753 -0.2815
18413TIP3    H176730   2.594   2.005  16.951 -1.2974  0.3354  0.3824
18413TIP3    H276731   2.692   2.034  17.063 -1.2897 -0.1684  0.5033
18414TIP3   OH276732   1.966   4.875   1.636  0.4165  0.2679 -0.3520
18414TIP3    H176733   1.952   4.837   1.549  1.6883 -1.1622  0.0221
18414TIP3    H276734   2.021   4.811   1.681 -0.5443  0.7823  1.6578
18415TIP3   OH276735   3.317   5.116   5.500 -0.2581  0.2642  0.4438
18415TIP3    H176736   3.390   5.179   5.507 -1.3765  1.6286  0.3205
18415TIP3    H276737   3.245   5.157   5.548 -0.8332 -1.2610  0.9345
18416TIP3   OH276738   2.218   3.833   5.294 -0.1381 -0.1721  0.2633
18416TIP3    H176739   2.200   3.786   5.376  0.2229 -1.6639 -0.4774
18416TIP3    H276740   2.269   3.909   5.321 -0.0244 -0.6320  1.4226
18417TIP3   OH276741   1.772   3.119  17.295 -0.8943  0.0529  0.2860
18417TIP3    H176742   1.806   3.036  17.329 -0.3190  0.8211  1.6432
18417TIP3    H276743   1.680   3.120  17.320 -0.5879  0.3958  1.4303
18418TIP3   OH276744   1.118   0.470   5.057 -0.5657 -0.2677 -0.1159
18418TIP3    H176745   1.132   0.525   4.980  0.5406 -1.4587 -0.8100
18418TIP3    H276746   1.059   0.401   5.027 -1.4419  0.1680  0.5734
18419TIP3   OH276747   2.785   0.703  12.848  0.0222 -0.7987 -0.1442
18419TIP3    H176748   2.707   0.738  12.806  0.7114 -1.0738 -1.7168
18419TIP3    H276749   2.855   0.764  12.823  0.1081  0.2871  2.4532
18420TIP3   OH276750   6.666   0.113   5.012  0.0289 -0.0981  0.4298
18420TIP3    H176751   6.632   0.081   5.095  0.5170  0.2995  0.7932
18420TIP3    H276752   6.610   0.188   4.990  2.9565  3.2264  3.0938
18421TIP3   OH276753   4.763   6.563   0.585 -0.6449  0.1958  0.1993
18421TIP3    H176754   4.676   6.591   0.616 -0.3912  0.9500  0.2556
18421TIP3    H276755   4.823   6.592   0.654 -0.3111 -0.0030 -0.0078
18422TIP3   OH276756   1.840   1.710  14.741 -0.3683 -0.2423 -0.5519
18422TIP3    H176757   1.935   1.704  14.752 -0.5611 -0.7288  1.1048
18422TIP3    H276758   1.805   1.665  14.817 -1.9408 -1.7616 -2.0859
18423TIP3   OH276759   2.493   1.925  12.039 -0.3518 -0.2853 -0.0669
18423TIP3    H176760   2.486   1.906  12.132  1.7371 -2.1074 -0.1849
18423TIP3    H276761   2.404   1.916  12.006 -1.2964  1.2962  1.8405
18424TIP3   OH276762   6.662   4.125   2.645  0.0951  0.3644 -0.2588
18424TIP3    H176763   6.668   4.166   2.731  0.6575 -0.3533  0.0584
18424TIP3    H276764   6.711   4.182   2.587  0.0540  0.6458 -0.0168
18425TIP3   OH276765   5.655   6.096   5.875  0.8372  0.1546  0.1435
18425TIP3    H176766   5.565   6.099   5.907  0.8434 -1.0819  0.3160
18425TIP3    H276767   5.682   6.188   5.873  0.1284  0.4234  1.6610
18426TIP3   OH276768   5.959   4.796  16.296 -0.2645 -0.2269 -0.5576
18426TIP3    H176769   6.003   4.851  16.231 -0.3561  1.4365  0.7140
18426TIP3    H276770   5.869   4.831  16.299 -0.5317 -0.9331 -0.2358
18427TIP3   OH276771   2.885   0.922   1.479 -0.4690  0.1256 -0.3931
18427TIP3    H176772   2.974   0.947   1.505 -1.0869  0.3603  1.6004
18427TIP3    H276773   2.861   0.852   1.540 -2.2268  1.1447  0.1243
18428TIP3   OH276774   4.895   2.183  12.376  0.4596 -0.4111 -0.6362
18428TIP3    H176775   4.813   2.223  12.405 -0.0956  0.2398 -2.9025
18428TIP3    H276776   4.949   2.180  12.455 -1.0619  0.8283  0.5304
18429TIP3   OH276777   0.088   0.524   2.327  0.0839 -0.2852  0.1965
18429TIP3    H176778   0.049   0.458   2.269  0.0807 -0.5146  0.4633
18429TIP3    H276779   0.157   0.564   2.274  0.4940 -0.9185  0.2412
18430TIP3   OH276780   3.345   3.182   4.764  0.1988  0.2350  0.2991
18430TIP3    H176781   3.329   3.088   4.776  1.8317 -0.3329 -1.4851
18430TIP3    H276782   3.437   3.194   4.788  0.1507  1.2861  0.0141
18431TIP3   OH276783   6.713   4.638   0.830  0.2279 -0.4307  0.1092
18431TIP3    H176784   6.679   4.625   0.742 -0.0079 -1.1761  0.2997
18431TIP3    H276785   6.808   4.628   0.821  0.3407  0.8532 -0.2857
18432TIP3   OH276786   3.980   4.243   3.657 -0.1855  0.3776 -0.1454
18432TIP3    H176787   4.014   4.308   3.596 -1.9179  1.7189  0.2052
18432TIP3    H276788   3.906   4.288   3.700 -1.3327 -1.7675  0.2648
18433TIP3   OH276789   4.005   2.334   1.099  0.3356 -0.4165 -0.0818
18433TIP3    H176790   3.999   2.309   1.191  2.8406 -0.5664  0.1197
18433TIP3    H276791   4.081   2.392   1.095  0.5466 -0.7564 -2.1140
18434TIP3   OH276792   5.336   0.875  13.189  0.5088  0.0294  0.2880
18434TIP3    H176793   5.279   0.946  13.160 -0.0339 -0.3235  0.4782
18434TIP3    H276794   5.370   0.837  13.109 -0.5977 -0.6277  0.1026
18435TIP3   OH276795   6.080   5.694   1.530  0.2637  0.9767 -0.2706
18435TIP3    H176796   6.107   5.714   1.441  0.5835 -0.1179 -0.4234
18435TIP3    H276797   6.011   5.629   1.521  2.7624 -1.9753  0.3320
18436TIP3   OH276798   1.555   2.807   3.812 -0.2382 -0.0930  0.0193
18436TIP3    H176799   1.574   2.846   3.897 -1.4797 -2.4767  1.4890
18436TIP3    H276800   1.553   2.881   3.752 -0.8874  1.8730  2.3157
18437TIP3   OH276801   1.160   3.564  14.035  0.0371 -0.0555  0.8254
18437TIP3    H176802   1.077   3.593  13.997 -0.7136 -0.6699  1.9447
18437TIP3    H276803   1.198   3.644  14.072  0.9292  0.6218 -1.3867
18438TIP3   OH276804   4.930   0.969   0.084  0.5663  0.1708  0.4469
18438TIP3    H176805   5.006   1.020   0.058 -0.4958  1.4826 -0.2078
18438TIP3    H276806   4.855   1.022   0.056 -0.5881 -0.9666  1.2813
18439TIP3   OH276807   2.650   5.707  15.590  0.3631  0.2884  0.4589
18439TIP3    H176808   2.675   5.800  15.591  2.6968 -0.2515  3.1837
18439TIP3    H276809   2.592   5.698  15.665 -1.5034 -0.1558 -0.9690
18440TIP3   OH276810   3.860   4.207  16.400 -0.5822  0.9851  0.1652
18440TIP3    H176811   3.872   4.145  16.328  0.9490  0.0234  1.1975
18440TIP3    H276812   3.775   4.184  16.438 -0.4161  0.0772  0.0034
18441TIP3   OH276813   3.448   4.323  12.419  0.2598  0.0881 -0.3531
18441TIP3    H176814   3.359   4.352  12.437 -0.5718 -1.4994 -1.6429
18441TIP3    H276815   3.452   4.233  12.451  1.3590  0.0903 -0.4239
18442TIP3   OH276816   5.748   0.343  17.052  0.0631 -0.3025 -0.1827
18442TIP3    H176817   5.779   0.361  16.964 -1.5185  0.4694 -0.5986
18442TIP3    H276818   5.656   0.319  17.042 -0.0015 -0.7484  1.2007
18443TIP3   OH276819   4.008   6.141  15.368 -0.3273  0.4891 -0.3849
18443TIP3    H176820   4.060   6.193  15.429 -0.1732  0.3168 -0.3696
18443TIP3    H276821   3.946   6.204  15.330 -0.3837  0.6093 -0.0966
18444TIP3   OH276822   0.088   2.370  11.815  0.1231  0.6945 -0.4102
18444TIP3    H176823   0.100   2.422  11.736  2.3347  1.3102  0.2678
18444TIP3    H276824   0.135   2.289  11.797 -0.9329  0.0516 -0.3859
18445TIP3   OH276825   2.132   4.924   3.992  0.2569  0.2084  0.3500
18445TIP3    H176826   2.153   4.893   4.080  0.5711 -1.0695 -0.1485
18445TIP3    H276827   2.041   4.900   3.979 -0.5405  2.4892  1.1500
18446TIP3   OH276828   1.198   2.149   0.757 -0.1342  0.1641 -0.0790
18446TIP3    H176829   1.161   2.113   0.677  1.8315 -2.0456 -0.1249
18446TIP3    H276830   1.283   2.185   0.730 -0.2009  0.9717  0.7374
18447TIP3   OH276831   0.554   1.829  12.581 -0.2567 -0.2871 -0.0434
18447TIP3    H176832   0.639   1.871  12.566 -0.6843  1.6123  2.1794
18447TIP3    H276833   0.552   1.813  12.676 -2.7190  0.6233  0.1193
18448TIP3   OH276834   6.067   4.977  15.265 -0.7224  0.1781 -0.0967
18448TIP3    H176835   6.146   4.937  15.228 -2.1974 -0.8534 -2.3228
18448TIP3    H276836   6.046   4.923  15.341 -0.9675 -1.4688 -1.2924
18449TIP3   OH276837   2.773   1.978   6.240  0.1262  0.2126  0.2150
18449TIP3    H176838   2.752   1.956   6.150  0.4855 -1.0976  0.4207
18449TIP3    H276839   2.851   2.033   6.234 -0.2840  0.7453 -0.3006
18450TIP3   OH276840   0.759   5.879  13.194  0.6037 -0.2292 -0.1837
18450TIP3    H176841   0.827   5.944  13.211  0.1198 -0.2276  2.0264
18450TIP3    H276842   0.802   5.795  13.207  0.7630 -0.3073 -1.1759
18451TIP3   OH276843   2.236   0.123  13.144 -0.8043  0.6334 -0.3631
18451TIP3    H176844   2.233   0.218  13.132 -2.8402  0.3915 -2.2729
18451TIP3    H276845   2.258   0.089  13.057  2.6826 -0.6329  0.8345
18452TIP3   OH276846   0.651   2.104  14.956  0.3327 -0.6116 -0.2440
18452TIP3    H176847   0.658   2.010  14.939 -1.6778 -0.9562  0.4873
18452TIP3    H276848   0.670   2.113  15.049  1.3695 -0.1558 -0.4899
18453TIP3   OH276849   0.449   4.749  13.479 -0.2518  0.5113 -0.1796
18453TIP3    H176850   0.436   4.707  13.394 -1.7796  1.8786 -0.6722
18453TIP3    H276851   0.399   4.695  13.540 -2.0416  1.4372 -0.7723
18454TIP3   OH276852   0.259   1.836  17.484 -0.0965  0.4343 -0.0486
18454TIP3    H176853   0.188   1.837  17.419  1.9299  0.5846 -2.4111
18454TIP3    H276854   0.290   1.927  17.487 -0.0745  0.4024  1.0721
18455TIP3   OH276855   0.942   0.646   5.242 -0.8910 -0.5393 -0.0903
18455TIP3    H176856   0.998   0.682   5.310 -0.8029 -0.3599 -0.2565
18455TIP3    H276857   0.978   0.680   5.160 -2.1642  0.8594 -0.1267
18456TIP3   OH276858   4.390   6.067   2.849  0.5297 -0.9440 -0.1495
18456TIP3    H176859   4.435   6.142   2.809 -0.8067  0.4657  0.8372
18456TIP3    H276860   4.334   6.033   2.778  0.7979 -0.7045 -0.4782
18457TIP3   OH276861   2.027   1.839  15.795  0.3682  0.1626  0.1253
18457TIP3    H176862   1.999   1.883  15.875  1.5567 -1.3498  1.4256
18457TIP3    H276863   1.988   1.752  15.801  1.1248 -0.2341 -0.5464
18458TIP3   OH276864   4.388   1.885  16.963  0.3511  0.0049 -0.4161
18458TIP3    H176865   4.440   1.950  16.915  2.3589 -1.7896 -0.8549
18458TIP3    H276866   4.307   1.877  16.913 -0.3948  2.7843  0.1947
18459TIP3   OH276867   3.989   3.400   1.000  0.6567 -0.2796 -0.0865
18459TIP3    H176868   3.975   3.348   0.921  0.2976 -0.5699  0.1646
18459TIP3    H276869   3.918   3.374   1.059  0.6685  0.2523  0.1697
18460TIP3   OH276870   5.505   5.579   5.742 -0.0002  0.2257 -0.0680
18460TIP3    H176871   5.553   5.636   5.802  0.2239 -0.1555  0.1188
18460TIP3    H276872   5.574   5.535   5.691 -0.1491  3.2065 -3.1941
18461TIP3   OH276873   5.079   2.806   2.155  0.1749 -0.6904  0.3037
18461TIP3    H176874   5.134   2.729   2.144  1.4683  0.0971  0.9987
18461TIP3    H276875   5.056   2.806   2.248  2.1874  0.9958  0.8874
18462TIP3   OH276876   0.410   6.555   3.365  0.5398 -0.1046  0.1881
18462TIP3    H176877   0.414   6.639   3.411  0.1769  0.3273 -0.5621
18462TIP3    H276878   0.481   6.503   3.404 -1.3672 -0.7460  3.1582
18463TIP3   OH276879   0.920   0.152  16.968 -0.0186 -0.6805  0.0669
18463TIP3    H176880   0.954   0.152  17.057 -1.9000  0.8389  0.8663
18463TIP3    H276881   0.993   0.181  16.913  1.4053 -2.4244  0.9535
18464TIP3   OH276882   6.380   0.438   0.232 -0.1835  0.5555  0.2855
18464TIP3    H176883   6.364   0.451   0.138 -2.3981 -0.8414  0.3954
18464TIP3    H276884   6.410   0.348   0.239  2.7754  1.4799  0.7158
18465TIP3   OH276885   5.726   4.286  14.342  0.3370 -0.3419  0.4062
18465TIP3    H176886   5.791   4.353  14.322  1.8956 -1.5056  1.3426
18465TIP3    H276887   5.777   4.210  14.370 -1.4349 -1.3086  1.2260
18466TIP3   OH276888   6.689   2.135  13.919  0.1312 -0.3813 -0.0334
18466TIP3    H176889   6.593   2.134  13.920  0.0837  0.6207 -1.2934
18466TIP3    H276890   6.713   2.085  13.841  0.8059 -3.6507  2.0385
18467TIP3   OH276891   4.029   2.797  12.306  0.0467  0.5523 -0.6829
18467TIP3    H176892   3.956   2.762  12.255  1.9724 -0.6748 -2.8147
18467TIP3    H276893   3.994   2.807  12.395 -2.7530  0.3448 -1.6703
18468TIP3   OH276894   6.586   5.851  14.094  0.3556  0.1654 -0.5120
18468TIP3    H176895   6.595   5.894  14.180 -1.5861 -1.8794  0.8349
18468TIP3    H276896   6.673   5.815  14.076  0.3976 -0.9032  1.5177
18469TIP3   OH276897   6.335   6.415  14.559 -0.1441  0.3350  0.1038
18469TIP3    H176898   6.241   6.422  14.544 -0.3482 -1.6355  0.2425
18469TIP3    H276899   6.357   6.495  14.609 -1.5670  1.1979 -0.5829
18470TIP3   OH276900   4.534   3.966  15.477 -0.7773  0.7942 -0.5364
18470TIP3    H176901   4.525   4.049  15.522  0.3465  0.4209  0.4317
18470TIP3    H276902   4.597   3.983  15.407 -0.3560  0.7058 -0.1813
18471TIP3   OH276903   5.573   6.114  11.842  0.2952 -0.4466 -0.1469
18471TIP3    H176904   5.577   6.073  11.756 -1.2337  0.1305 -0.5161
18471TIP3    H276905   5.605   6.203  11.828 -0.7363 -0.0932 -0.3001
18472TIP3   OH276906   1.979   3.796  13.542 -0.0653  0.1095  0.1066
18472TIP3    H176907   2.000   3.763  13.455  0.7730 -1.2577  0.8040
18472TIP3    H276908   2.017   3.884  13.543  1.2357 -0.4240 -0.4106
18473TIP3   OH276909   1.643   1.220  14.699 -0.3570 -0.0919 -0.4282
18473TIP3    H176910   1.556   1.192  14.727  1.5794 -3.8810  2.9649
18473TIP3    H276911   1.669   1.286  14.763  0.4232 -1.5892  0.8957
18474TIP3   OH276912   1.467   4.785   4.671  0.0373 -0.3775 -0.1371
18474TIP3    H176913   1.408   4.722   4.712  0.6162 -0.9897 -0.2200
18474TIP3    H276914   1.553   4.764   4.707 -0.0145  1.6882  1.4146
18475TIP3   OH276915   5.398   2.492  14.280  0.6282  0.1679 -0.4338
18475TIP3    H176916   5.360   2.405  14.267  0.0673  0.6996 -2.7677
18475TIP3    H276917   5.366   2.543  14.206  3.6986  1.4290 -1.0361
18476TIP3   OH276918   3.149   3.659   3.932 -0.8173 -0.2306  0.3201
18476TIP3    H176919   3.136   3.700   3.846  5.0968  0.0520 -0.8521
18476TIP3    H276920   3.183   3.572   3.911  0.7164 -0.1702  2.2849
18477TIP3   OH276921   4.749   5.827  17.354  0.5578 -0.5336  0.6587
18477TIP3    H176922   4.691   5.848  17.428  0.8733  0.8617  0.5528
18477TIP3    H276923   4.837   5.839  17.388  0.7254  2.8091 -0.5334
18478TIP3   OH276924   4.243   6.418  14.819  0.8447  0.2465  0.1020
18478TIP3    H176925   4.308   6.487  14.827  0.4559  0.5554  0.6864
18478TIP3    H276926   4.186   6.430  14.895  0.3656 -0.2883 -0.1648
18479TIP3   OH276927   4.868   0.251  16.753  0.5165 -0.4520 -0.0224
18479TIP3    H176928   4.903   0.212  16.833 -0.2204 -0.2933  0.3919
18479TIP3    H276929   4.843   0.339  16.779  2.8877  0.6246 -1.1419
18480TIP3   OH276930   0.699   2.598  15.571 -0.0418  0.3677 -0.2681
18480TIP3    H176931   0.774   2.652  15.596 -0.3366  0.9189 -0.5543
18480TIP3    H276932   0.639   2.604  15.646 -0.0125  0.3231 -0.2412
18481TIP3   OH276933   4.226   5.709  11.698 -0.3035 -0.1334  0.3264
18481TIP3    H176934   4.178   5.670  11.625 -0.9129 -1.7877  1.5576
18481TIP3    H276935   4.238   5.638  11.760 -1.1903  1.5452  2.5540
18482TIP3   OH276936   1.652   1.871   4.143 -0.0948 -0.2531 -0.3064
18482TIP3    H176937   1.589   1.943   4.153  0.2640 -0.0755  0.7403
18482TIP3    H276938   1.613   1.815   4.076 -1.1907  0.0414  0.0644
18483TIP3   OH276939   5.289   3.142  14.678  0.2660 -0.5887 -0.2512
18483TIP3    H176940   5.268   3.171  14.767  2.0883 -0.3687  0.1626
18483TIP3    H276941   5.206   3.116  14.641 -0.2612 -3.5072  2.5292
18484TIP3   OH276942   5.309   5.351   0.550  0.1112  0.4004 -0.3926
18484TIP3    H176943   5.267   5.338   0.466  0.6466 -1.6722 -0.3906
18484TIP3    H276944   5.369   5.425   0.536 -1.4900  1.6237 -1.1201
18485TIP3   OH276945   6.020   4.758   5.414 -0.0020 -0.2438 -0.1295
18485TIP3    H176946   5.994   4.823   5.349  3.2924  0.6196 -0.7788
18485TIP3    H276947   6.049   4.810   5.489  1.3496 -0.9602 -0.1204
18486TIP3   OH276948   5.822   5.288  11.306  0.1513 -0.2112 -0.6461
18486TIP3    H176949   5.789   5.237  11.231  1.0588 -2.1049  0.1698
18486TIP3    H276950   5.859   5.366  11.267  1.1506 -1.4324 -2.2831
18487TIP3   OH276951   3.978   5.357  14.120 -0.2668  0.1472  0.0684
18487TIP3    H176952   4.024   5.408  14.053  1.6173 -1.0448  0.3915
18487TIP3    H276953   4.023   5.378  14.202 -1.9296  0.8445  0.8564
18488TIP3   OH276954   2.619   1.401   3.517  0.2249 -0.5598 -0.2618
18488TIP3    H176955   2.713   1.420   3.526  0.1346  0.0701 -0.6302
18488TIP3    H276956   2.601   1.416   3.425 -0.2670 -0.5611 -0.1646
18489TIP3   OH276957   4.464   2.518   1.956  0.5357 -0.2832  0.0217
18489TIP3    H176958   4.402   2.587   1.933 -0.2937 -0.0711  2.5255
18489TIP3    H276959   4.417   2.436   1.942  0.8126 -0.2733 -1.0288
18490TIP3   OH276960   6.571   4.082   2.971 -0.0945 -0.0612 -0.5887
18490TIP3    H176961   6.582   4.168   2.930  0.5834  0.3655  0.4424
18490TIP3    H276962   6.660   4.048   2.982  0.0421  1.0048  2.8354
18491TIP3   OH276963   5.598   5.651   3.241  0.2146  0.0657  0.8082
18491TIP3    H176964   5.693   5.641   3.235  0.2560 -0.7296  2.2126
18491TIP3    H276965   5.567   5.653   3.150  1.6373  1.1480  0.3213
18492TIP3   OH276966   6.669   2.041   1.929  0.5594  0.2152 -0.4228
18492TIP3    H176967   6.576   2.065   1.927  0.8293  1.2710 -1.0855
18492TIP3    H276968   6.695   2.039   1.837  1.2032 -0.0325 -0.2371
18493TIP3   OH276969   5.342   5.588  16.536 -0.4701  0.0011 -0.0353
18493TIP3    H176970   5.427   5.561  16.571  0.7760  0.6591 -2.3029
18493TIP3    H276971   5.338   5.682  16.554 -1.3745 -0.2581  1.2459
18494TIP3   OH276972   5.321   1.288   4.323  0.2854 -0.5543 -0.4446
18494TIP3    H176973   5.293   1.374   4.290  1.3781 -1.0016 -2.7023
18494TIP3    H276974   5.243   1.233   4.317  0.4136 -0.5994 -2.3626
18495TIP3   OH276975   2.528   5.766   2.849 -0.4785  0.1149  0.8850
18495TIP3    H176976   2.601   5.797   2.795  0.5794 -0.3009  2.0166
18495TIP3    H276977   2.457   5.750   2.786  0.1593  1.2151 -0.1588
18496TIP3   OH276978   1.113   5.414  11.759 -0.5064  0.1748  0.5350
18496TIP3    H176979   1.074   5.478  11.818  1.6099  0.6423  1.5119
18496TIP3    H276980   1.175   5.464  11.706 -1.5463 -0.4372 -1.3440
18497TIP3   OH276981   3.763   5.400  11.317 -0.1724  0.3103 -0.1125
18497TIP3    H176982   3.722   5.360  11.240 -0.4287  0.2005  0.0832
18497TIP3    H276983   3.713   5.480  11.332 -2.3176 -1.2795  1.9574
18498TIP3   OH276984   5.775   3.871   5.341 -0.3895 -0.3604  0.1116
18498TIP3    H176985   5.799   3.942   5.401  0.1866  0.5486 -1.1405
18498TIP3    H276986   5.723   3.914   5.274 -2.4573 -1.6531  0.7885
18499TIP3   OH276987   4.322   6.690   5.713  0.0100 -0.4452  0.2080
18499TIP3    H176988   4.253   6.626   5.692 -0.9207  1.3361 -2.8263
18499TIP3    H276989   4.295   6.727   5.797 -1.6454 -1.1925  0.0525
18500TIP3   OH276990   0.884   1.019   2.667  0.3006  0.1178 -0.0064
18500TIP3    H176991   0.812   0.962   2.695  0.3450  0.1089  0.0884
18500TIP3    H276992   0.860   1.106   2.700  0.7214 -0.0329  0.7136
18501TIP3   OH276993   3.364   1.618  11.456  0.1027 -0.4119  0.3890
18501TIP3    H176994   3.339   1.693  11.510 -0.1594  0.5432 -1.0063
18501TIP3    H276995   3.436   1.650  11.402  1.2892 -1.7591  1.1102
18502TIP3   OH276996   4.866   1.955   4.339 -0.6033  0.6880  0.0077
18502TIP3    H176997   4.957   1.928   4.347 -0.6342  0.9114  1.4279
18502TIP3    H276998   4.865   2.016   4.266  0.1297 -0.3196 -0.8653
18503TIP3   OH276999   0.465   6.439  15.804  0.1694  0.3474  0.0455
18503TIP3    H177000   0.545   6.458  15.754  1.5160  1.2565  2.3717
18503TIP3    H277001   0.491   6.368  15.863 -1.1376 -0.1671  0.0306
18504TIP3   OH277002   3.164   3.313  14.489  0.2237 -0.0300 -0.0062
18504TIP3    H177003   3.241   3.312  14.432 -0.7425 -0.6508 -1.3259
18504TIP3    H277004   3.193   3.267  14.568  1.3427  0.1523 -0.2902
18505TIP3   OH277005   1.468   3.695  15.016  0.2127  0.0715 -0.0008
18505TIP3    H177006   1.451   3.607  14.983 -0.3888  0.1155  0.1860
18505TIP3    H277007   1.542   3.684  15.076  0.8822 -0.1158 -0.8470
18506TIP3   OH277008   2.304   4.952  11.860  0.4740  0.5990  0.0943
18506TIP3    H177009   2.237   4.945  11.792 -0.4264 -1.1701  1.0828
18506TIP3    H277010   2.319   4.862  11.889  2.4698  1.0698  0.7122
18507TIP3   OH277011   0.249   3.175   1.091 -0.1546 -0.0641  0.3012
18507TIP3    H177012   0.211   3.157   1.177  2.0271 -0.8563  1.1703
18507TIP3    H277013   0.324   3.116   1.085 -0.1699  0.0597 -2.1282
18508TIP3   OH277014   2.759   5.231  13.051 -0.1393 -0.2429  0.4130
18508TIP3    H177015   2.819   5.271  13.115  1.0409 -0.5880 -0.4369
18508TIP3    H277016   2.797   5.254  12.966 -1.9493  0.6360 -0.2087
18509TIP3   OH277017   2.424   1.307  13.777 -0.1259 -1.2237 -0.3623
18509TIP3    H177018   2.506   1.355  13.762  0.1552 -1.4246  0.4561
18509TIP3    H277019   2.423   1.292  13.871 -1.3183 -0.8647 -0.3086
18510TIP3   OH277020   4.104   2.553  15.640  0.0617  0.6195 -0.6564
18510TIP3    H177021   4.046   2.481  15.615 -0.8184  1.7267 -1.9902
18510TIP3    H277022   4.184   2.537  15.591  0.4288 -0.2134  0.1828
18511TIP3   OH277023   5.761   0.297  14.871 -0.3331  0.2537 -0.0481
18511TIP3    H177024   5.705   0.283  14.795 -1.5754  1.9885  0.4612
18511TIP3    H277025   5.755   0.216  14.922 -2.5301  0.3958  0.0358
18512TIP3   OH277026   4.743   4.527  11.525 -0.3854  0.3060 -0.2323
18512TIP3    H177027   4.794   4.541  11.605 -1.2000 -0.2983  0.4098
18512TIP3    H277028   4.705   4.613  11.506 -3.7107 -0.3279  2.5441
18513TIP3   OH277029   6.407   1.001  15.114  0.1899  0.0182  0.4395
18513TIP3    H177030   6.465   1.023  15.187  2.1068  0.6826 -1.1960
18513TIP3    H277031   6.455   0.935  15.064 -1.4396 -1.0145  0.1555
18514TIP3   OH277032   3.804   2.610  16.578 -0.2243 -0.3549  0.3118
18514TIP3    H177033   3.869   2.657  16.631 -1.6064  0.8442  0.9972
18514TIP3    H277034   3.749   2.678  16.540 -1.4872 -1.3572  0.2633
18515TIP3   OH277035   3.612   4.364  16.815 -0.1474  0.2723 -0.5559
18515TIP3    H177036   3.635   4.438  16.871 -1.2149  1.0902 -1.1567
18515TIP3    H277037   3.529   4.332  16.849 -0.3543  0.2008 -1.1109
18516TIP3   OH277038   2.749   4.578   5.544  0.2448  0.3528 -0.1568
18516TIP3    H177039   2.746   4.627   5.626 -0.4696  1.1921 -0.6672
18516TIP3    H277040   2.840   4.582   5.517  0.8017 -1.2015  1.3276
18517TIP3   OH277041   4.983   2.044   5.674  0.0862 -0.3795 -0.5194
18517TIP3    H177042   4.954   2.135   5.666  1.0996  0.0705  0.5223
18517TIP3    H277043   5.058   2.049   5.734  0.1828 -1.9002 -0.4881
18518TIP3   OH277044   5.680   0.300  10.892 -0.0005  0.0671  0.1981
18518TIP3    H177045   5.745   0.232  10.911 -0.9438 -0.5315  1.4086
18518TIP3    H277046   5.599   0.252  10.875 -0.5980  0.8668  0.7264
18519TIP3   OH277047   0.870   4.365   3.703  0.3207 -0.0461  0.2055
18519TIP3    H177048   0.838   4.301   3.766 -0.4773 -0.3221 -0.4639
18519TIP3    H277049   0.963   4.344   3.691  0.4208 -0.1397  1.0895
18520TIP3   OH277050   4.323   1.753  13.549  0.0616 -0.2508 -0.0548
18520TIP3    H177051   4.398   1.717  13.503 -1.2457 -2.2826 -0.7231
18520TIP3    H277052   4.305   1.691  13.620 -1.5892 -0.4124 -0.5621
18521TIP3   OH277053   1.531   4.796  17.618  0.0751  0.8589  0.4299
18521TIP3    H177054   1.587   4.846  17.559  0.1846  0.5270  0.2486
18521TIP3    H277055   1.556   4.824  17.706  0.7472  0.4795  0.3623
18522TIP3   OH277056   4.868   3.180  17.527 -0.5028  0.4080 -0.4274
18522TIP3    H177057   4.780   3.218  17.533 -1.7899 -2.2956 -0.1324
18522TIP3    H277058   4.857   3.091  17.562  2.1815 -0.2877 -1.1474
18523TIP3   OH277059   1.060   5.734   1.690  0.3824 -0.0006  0.4488
18523TIP3    H177060   1.019   5.648   1.674 -1.4564  1.1652 -1.6690
18523TIP3    H277061   1.119   5.746   1.615 -0.2161  1.0257  0.1318
18524TIP3   OH277062   3.915   4.993  15.727  0.4510  0.2262 -0.5099
18524TIP3    H177063   3.900   4.977  15.821 -1.3400 -1.5917 -1.0387
18524TIP3    H277064   3.874   5.078  15.710  0.6850  0.5146  0.3235
18525TIP3   OH277065   4.736   0.565  13.321  0.1397  0.1194  0.0547
18525TIP3    H177066   4.737   0.476  13.288 -0.5447 -0.0673  0.5227
18525TIP3    H277067   4.795   0.563  13.397  2.1736  0.6808 -1.4156
18526TIP3   OH277068   1.843   0.920   1.341  0.1531  0.3807  0.0878
18526TIP3    H177069   1.818   0.936   1.432  1.6734  2.1568  0.2633
18526TIP3    H277070   1.861   0.826   1.337  0.7867  0.3964  1.8294
18527TIP3   OH277071   2.773   2.487   2.532  0.5201 -0.4548 -0.7621
18527TIP3    H177072   2.866   2.482   2.512  0.8013  1.7078 -0.3002
18527TIP3    H277073   2.735   2.529   2.454  0.4168  1.1510  0.1068
18528TIP3   OH277074   3.262   3.642   3.263  0.4184 -0.0658  0.8186
18528TIP3    H177075   3.312   3.613   3.187 -0.5595 -0.4625  0.3065
18528TIP3    H277076   3.271   3.570   3.326 -0.6232 -0.7729  0.1931
18529TIP3   OH277077   0.926   1.162   5.757  1.0091  0.9066 -0.1702
18529TIP3    H177078   0.893   1.073   5.758  0.2290  1.1799 -0.4493
18529TIP3    H277079   0.963   1.176   5.844 -0.2038  0.7864  0.3937
18530TIP3   OH277080   0.997   1.079  14.476 -0.3477 -0.2073 -0.3553
18530TIP3    H177081   0.974   1.163  14.514 -3.3054 -0.1741 -1.9214
18530TIP3    H277082   1.088   1.088  14.450  0.9674  0.7327  3.8280
18531TIP3   OH277083   1.556   6.699  15.029  0.1618  0.2173  0.8640
18531TIP3    H177084   1.605   6.780  15.040 -2.8780  2.3887 -0.0548
18531TIP3    H277085   1.497   6.697  15.105  0.1051 -1.0965  0.8061
18532TIP3   OH277086   6.216   0.116  12.010 -0.0065  0.2105  0.1745
18532TIP3    H177087   6.157   0.048  12.043  1.4861 -0.9591  0.5145
18532TIP3    H277088   6.222   0.100  11.916 -0.6279  0.6803  0.0426
18533TIP3   OH277089   0.219   6.428   3.611 -0.7418  0.3512 -0.2030
18533TIP3    H177090   0.260   6.513   3.625 -1.2777  0.5980 -0.1038
18533TIP3    H277091   0.248   6.374   3.684 -2.2818  1.1594  1.0647
18534TIP3   OH277092   0.041   3.568  17.170  0.3556 -0.0837  0.2408
18534TIP3    H177093   0.082   3.483  17.184  2.8587  0.9132 -0.5402
18534TIP3    H277094   0.045   3.612  17.255  2.4548  0.5717 -0.1300
18535TIP3   OH277095   6.658   3.789  15.390  0.3356  0.0178  0.2383
18535TIP3    H177096   6.735   3.805  15.444  1.8459 -1.1908 -1.4227
18535TIP3    H277097   6.630   3.876  15.362  1.1713  0.4748  0.7966
18536TIP3   OH277098   2.287   2.490  17.230 -0.1120  0.3672 -0.2461
18536TIP3    H177099   2.270   2.448  17.145 -1.2422  1.1929 -0.4656
18536TIP3    H277100   2.381   2.502  17.232  0.2367 -1.8249 -0.3252
18537TIP3   OH277101   3.793   4.948  17.439  0.4230  0.2599  0.8952
18537TIP3    H177102   3.870   4.892  17.426  0.1316  0.0136  0.1507
18537TIP3    H277103   3.828   5.037  17.437  0.6298  0.1717 -0.0083
18538TIP3   OH277104   4.427   2.590   0.845  0.2634 -0.3975  0.1636
18538TIP3    H177105   4.447   2.567   0.754  0.2273  0.9983 -0.2221
18538TIP3    H277106   4.337   2.622   0.842  0.1116 -0.7609  0.7743
18539TIP3   OH277107   3.068   1.982  14.142  0.2858  0.3215 -0.2631
18539TIP3    H177108   3.139   1.987  14.078  0.5073 -0.2333 -0.0663
18539TIP3    H277109   3.027   2.069  14.140  1.0688  0.7006 -0.2627
18540TIP3   OH277110   2.911   3.172   5.493 -0.0882  0.3613 -0.5761
18540TIP3    H177111   2.920   3.266   5.477 -0.0337  0.5323  0.3953
18540TIP3    H277112   2.822   3.151   5.464 -0.8410  1.1351  1.0526
18541TIP3   OH277113   5.047   3.106  15.340  0.0224 -0.3129 -0.1236
18541TIP3    H177114   4.989   3.178  15.319  0.8479  0.4911  0.2753
18541TIP3    H277115   5.040   3.046  15.266 -1.6378 -0.4657  0.1312
18542TIP3   OH277116   6.737   0.889   4.837  0.3724 -0.2258  0.5769
18542TIP3    H177117   6.736   0.793   4.834 -0.1586 -0.2154 -1.8769
18542TIP3    H277118   6.813   0.914   4.786  2.0818  0.7347  3.3923
18543TIP3   OH277119   3.882   3.602   2.543 -0.2519  0.2957  0.0939
18543TIP3    H177120   3.873   3.513   2.509 -0.7040  0.1812  0.4983
18543TIP3    H277121   3.903   3.655   2.466  1.0563 -0.3188  0.0099
18544TIP3   OH277122   1.484   5.683   3.000 -0.4438  0.7797  0.1171
18544TIP3    H177123   1.545   5.749   2.967 -0.0946  0.2265 -0.3674
18544TIP3    H277124   1.495   5.685   3.095  1.0899 -0.0245 -0.0190
18545TIP3   OH277125   5.357   1.848   4.024 -0.1088  0.3639 -0.4950
18545TIP3    H177126   5.319   1.887   4.103  0.2298 -0.5785  0.1494
18545TIP3    H277127   5.367   1.921   3.964 -2.8268  0.7105 -0.6745
18546TIP3   OH277128   5.886   5.956   5.875 -0.1150  0.2288  0.6431
18546TIP3    H177129   5.906   5.879   5.820  0.2942 -1.8283  3.4331
18546TIP3    H277130   5.795   5.977   5.855 -0.2209 -0.9558 -0.2619
18547TIP3   OH277131   4.055   4.708   5.324 -0.1162  0.2137 -0.5377
18547TIP3    H177132   4.117   4.735   5.257  0.6189 -1.9796 -0.8105
18547TIP3    H277133   4.110   4.685   5.400 -0.4817 -1.9824 -0.8606
18548TIP3   OH277134   3.382   6.515   3.687 -0.7103 -0.1982  0.1138
18548TIP3    H177135   3.360   6.422   3.689 -0.2052 -0.3385 -0.4765
18548TIP3    H277136   3.361   6.542   3.597 -1.7938  0.4987  0.5547
18549TIP3   OH277137   2.836   5.171   5.021  0.2030  0.4096  0.1462
18549TIP3    H177138   2.743   5.165   5.042  0.2417  1.0796  0.5360
18549TIP3    H277139   2.880   5.133   5.096  0.2009 -2.1951 -1.0686
18550TIP3   OH277140   6.688   1.291  17.337 -0.3153 -0.1215 -0.2173
18550TIP3    H177141   6.600   1.257  17.323  0.0813 -1.4960  0.4340
18550TIP3    H277142   6.745   1.235  17.285  0.1365  1.1562 -1.1542
18551TIP3   OH277143   1.113   5.602   0.783 -0.0712 -0.2835  0.1975
18551TIP3    H177144   1.202   5.623   0.809 -0.5688 -0.1374  2.0010
18551TIP3    H277145   1.113   5.508   0.771  0.1292 -0.4318  1.2155
18552TIP3   OH277146   6.381   4.044  11.767  0.1101  0.2701  0.5031
18552TIP3    H177147   6.361   4.118  11.709 -0.3797  1.7421  2.4448
18552TIP3    H277148   6.381   3.968  11.709  0.0712  1.6961 -1.4889
18553TIP3   OH277149   3.137   6.302   3.898 -0.3165 -0.0179 -0.1740
18553TIP3    H177150   3.078   6.255   3.956 -0.8816  0.0084 -0.7180
18553TIP3    H277151   3.224   6.269   3.920 -0.6881 -1.2934 -0.5017
18554TIP3   OH277152   1.247   0.737   2.434  0.4275  0.4022  0.1973
18554TIP3    H177153   1.196   0.762   2.511 -0.5398 -1.0970  0.0733
18554TIP3    H277154   1.297   0.661   2.462 -0.1180 -0.3052 -0.7089
18555TIP3   OH277155   5.466   4.861  10.250 -0.0171  0.5741 -0.1697
18555TIP3    H177156   5.439   4.947  10.217  1.1235  1.0175 -0.0115
18555TIP3    H277157   5.443   4.863  10.343 -2.4183 -0.3359 -0.6784
18556TIP3   OH277158   1.158   4.939   5.363  0.2153 -0.7079 -0.0178
18556TIP3    H177159   1.151   4.861   5.418 -2.3410  0.1256  1.0122
18556TIP3    H277160   1.117   5.009   5.414  1.1582  1.0153 -1.4667
18557TIP3   OH277161   0.255   0.123  13.774  0.1718  0.0639 -0.3211
18557TIP3    H177162   0.251   0.199  13.832 -1.6954 -1.6283  1.9032
18557TIP3    H277163   0.200   0.148  13.699 -1.1834  0.5941  0.8121
18558TIP3   OH277164   1.609   0.991   0.983  0.3213 -0.0744 -0.3529
18558TIP3    H177165   1.554   0.915   1.001 -0.7856  0.3168 -1.9203
18558TIP3    H277166   1.598   1.048   1.060 -0.8900 -0.3259 -0.3294
18559TIP3   OH277167   2.076   1.274  16.831  0.2797 -0.5409 -0.6856
18559TIP3    H177168   2.024   1.254  16.909  2.9281  1.9075  1.9943
18559TIP3    H277169   2.086   1.369  16.832  3.0103 -0.7040 -2.1788
18560TIP3   OH277170   2.616   1.031   3.254 -0.4271 -0.3709  0.5368
18560TIP3    H177171   2.579   1.117   3.276  1.2744  0.2242  1.2299
18560TIP3    H277172   2.655   1.044   3.167  2.2658  0.4405  1.7655
18561TIP3   OH277173   5.574   6.003  15.018  0.2379  0.2393 -0.3258
18561TIP3    H177174   5.653   5.954  14.995  1.4938  1.6695  0.7020
18561TIP3    H277175   5.603   6.064  15.087 -1.9264  0.3430  0.5726
18562TIP3   OH277176   5.218   1.132   5.325 -0.0716 -0.4720 -0.2748
18562TIP3    H177177   5.289   1.110   5.385 -0.4911 -0.8713  0.0831
18562TIP3    H277178   5.222   1.227   5.316 -0.4914 -0.3218  1.0029
18563TIP3   OH277179   3.268   4.735   3.181 -0.3069  0.0718 -0.0077
18563TIP3    H177180   3.298   4.793   3.111 -0.3802 -0.2871 -0.3410
18563TIP3    H277181   3.289   4.647   3.150 -1.4701 -0.1771 -0.1333
18564TIP3   OH277182   6.600   3.570   2.335 -0.5441  0.2706 -0.1602
18564TIP3    H177183   6.671   3.635   2.328  1.0916 -1.3560  0.3985
18564TIP3    H277184   6.552   3.595   2.413  0.4570  0.4730  0.4051
18565TIP3   OH277185   0.288   0.804  11.915  0.0567 -0.2243  0.4508
18565TIP3    H177186   0.244   0.737  11.862 -0.5411 -0.1059  0.7952
18565TIP3    H277187   0.374   0.814  11.874 -0.3370 -0.2518 -0.4087
18566TIP3   OH277188   3.498   5.969   2.886  0.2612  0.5810 -0.3290
18566TIP3    H177189   3.593   5.961   2.891  0.3161 -3.3303 -2.6972
18566TIP3    H277190   3.466   5.924   2.964  0.4984 -1.1744 -1.1809
18567TIP3   OH277191   2.285   4.062   0.946  0.8664 -0.7900  0.1501
18567TIP3    H177192   2.291   4.119   0.869  2.1768 -2.5260 -1.1013
18567TIP3    H277193   2.374   4.056   0.979  0.8473 -2.4199 -0.0044
18568TIP3   OH277194   1.817   5.294   5.469 -0.0469 -0.3263 -0.9164
18568TIP3    H177195   1.806   5.381   5.509 -1.5072  0.2378 -2.4177
18568TIP3    H277196   1.872   5.246   5.530  2.2266  2.1975 -0.8203
18569TIP3   OH277197   4.510   3.459   5.299 -0.2140 -0.4645 -0.2725
18569TIP3    H177198   4.451   3.530   5.323  0.4542 -0.1539  0.5069
18569TIP3    H277199   4.562   3.494   5.226  0.3363 -0.0233  0.3231
18570TIP3   OH277200   2.349   2.114   0.020 -0.1978 -0.1524 -0.4687
18570TIP3    H177201   2.343   2.209   0.020 -0.8517 -0.0723  2.6268
18570TIP3    H277202   2.440   2.095  -0.001 -0.2069  1.0780 -1.7398
18571TIP3   OH277203   6.244   4.606   3.261  0.7839 -0.4061 -0.4840
18571TIP3    H177204   6.261   4.664   3.335  0.5715  0.4815 -1.1098
18571TIP3    H277205   6.181   4.654   3.207 -0.1150 -1.6131 -0.5609
18572TIP3   OH277206   3.634   4.532   6.349  0.2827 -0.2423  0.2418
18572TIP3    H177207   3.717   4.574   6.326  0.4260 -1.3781 -1.5254
18572TIP3    H277208   3.570   4.603   6.350  1.0266  0.4432  0.2339
18573TIP3   OH277209   1.164   5.544   1.268 -0.0707  0.1787 -0.0997
18573TIP3    H177210   1.255   5.560   1.243 -0.2780  0.4997 -0.6593
18573TIP3    H277211   1.161   5.451   1.291  0.8990  0.6290  2.1202
18574TIP3   OH277212   2.877   3.963  13.116  0.0877  0.1909  0.2918
18574TIP3    H177213   2.834   3.936  13.034  2.2577 -2.0220 -0.2607
18574TIP3    H277214   2.854   3.893  13.178 -0.9290  1.4725  1.4165
18575TIP3   OH277215   0.599   5.742   4.604  0.2522  0.1258 -0.0617
18575TIP3    H177216   0.693   5.731   4.590  0.1875  0.6636 -1.0321
18575TIP3    H277217   0.586   5.837   4.610 -0.1801  0.0417  0.4898
18576TIP3   OH277218   6.350   2.413   2.457  0.0477 -0.2076  0.2110
18576TIP3    H177219   6.291   2.402   2.382 -0.2568  2.2121  0.0206
18576TIP3    H277220   6.418   2.348   2.444 -0.0686  0.0733 -2.1127
18577TIP3   OH277221   3.005   0.393   1.775 -0.1770 -0.3753  0.2401
18577TIP3    H177222   3.022   0.363   1.686 -1.5701  2.0248 -0.9424
18577TIP3    H277223   3.079   0.450   1.795 -0.7743  0.5966 -0.1989
18578TIP3   OH277224   0.761   2.201  16.574  0.1209 -1.3426 -0.0878
18578TIP3    H177225   0.755   2.181  16.480 -0.0933  0.6585 -0.5339
18578TIP3    H277226   0.724   2.124  16.617 -2.7535 -1.0242 -1.7609
18579TIP3   OH277227   3.139   4.346  16.393 -0.1514  0.3268  0.1755
18579TIP3    H177228   3.076   4.302  16.335 -1.3769 -0.9725  2.3619
18579TIP3    H277229   3.137   4.438  16.366  0.5446 -0.4205 -2.8355
18580TIP3   OH277230   5.428   5.062  15.936  0.4980  0.7058  0.0968
18580TIP3    H177231   5.487   5.130  15.905 -1.2368  1.5329 -1.5923
18580TIP3    H277232   5.356   5.061  15.872 -0.3088 -1.6521  0.9180
18581TIP3   OH277233   5.916   2.221  14.026 -0.3407 -0.4311 -0.5096
18581TIP3    H177234   5.938   2.129  14.011  2.8913  0.2898 -0.9380
18581TIP3    H277235   5.869   2.248  13.947 -1.8715 -1.7974 -0.1246
18582TIP3   OH277236   0.880   3.186  10.891 -0.1142 -0.3336  0.0308
18582TIP3    H177237   0.785   3.172  10.883 -0.5106  2.6701 -2.3050
18582TIP3    H277238   0.919   3.106  10.856 -1.8594 -0.7475 -1.1093
18583TIP3   OH277239   0.949   1.517  12.085  0.1679  0.0238  0.0680
18583TIP3    H177240   1.034   1.556  12.062 -0.1781  0.6031 -0.2676
18583TIP3    H277241   0.965   1.470  12.166  0.6265  0.8250  0.4528
18584TIP3   OH277242   0.462   3.338  15.418  0.0487 -0.3422  0.4635
18584TIP3    H177243   0.452   3.246  15.392  0.7927 -0.6224  1.1236
18584TIP3    H277244   0.438   3.388  15.339  0.4104 -1.1226 -0.1543
18585TIP3   OH277245   3.048   1.658   5.904  0.7249 -0.2896  0.7968
18585TIP3    H177246   3.118   1.615   5.854  0.5921  0.8497 -0.4259
18585TIP3    H277247   3.089   1.737   5.938  0.3714 -0.2578  1.1468
18586TIP3   OH277248   1.275   3.123  15.006  0.2054 -0.2283  0.0485
18586TIP3    H177249   1.342   3.113  15.073 -0.6701  1.3468  1.2229
18586TIP3    H277250   1.193   3.130  15.054 -0.5504  0.0740 -1.2260
18587TIP3   OH277251   5.846   0.546  13.071 -0.5023 -0.2364  0.0421
18587TIP3    H177252   5.928   0.497  13.083  0.2991  1.4026  2.0343
18587TIP3    H277253   5.864   0.606  12.998  1.3092  2.1812  2.2517
18588TIP3   OH277254   2.588   2.068  17.559 -0.2778 -0.0426  0.2877
18588TIP3    H177255   2.563   2.001  17.495  0.7309 -0.2052  0.0440
18588TIP3    H277256   2.646   2.023  17.620  1.6380  0.9067 -0.7323
18589TIP3   OH277257   0.679   5.563   2.962 -0.3788  0.2849 -0.1897
18589TIP3    H177258   0.659   5.522   3.047 -1.1882 -1.0489 -0.9888
18589TIP3    H277259   0.772   5.582   2.966 -0.2551 -0.4328  0.7225
18590TIP3   OH277260   0.725   6.154   3.264  0.0513 -0.9543  0.2683
18590TIP3    H177261   0.644   6.205   3.264  0.4185 -0.3516  0.7051
18590TIP3    H277262   0.751   6.151   3.172  1.1776  1.5749  0.4200
18591TIP3   OH277263   0.294   1.214  12.949  0.2474 -0.5549 -0.4056
18591TIP3    H177264   0.199   1.227  12.960  0.2016 -1.1196 -0.1239
18591TIP3    H277265   0.331   1.238  13.034  0.2486 -1.3678 -0.1690
18592TIP3   OH277266   4.399   3.796  11.161 -0.3411  0.6061 -0.6335
18592TIP3    H177267   4.459   3.725  11.137 -0.2224  1.4299 -3.0459
18592TIP3    H277268   4.450   3.876  11.148 -1.6455  1.2824 -1.8221
18593TIP3   OH277269   1.458   0.867   4.056  0.0211 -0.3936 -0.0175
18593TIP3    H177270   1.484   0.899   4.143 -0.6276  1.0190 -0.3204
18593TIP3    H277271   1.420   0.781   4.073  2.2664 -1.3017  0.7731
18594TIP3   OH277272   1.251   2.525   3.304 -0.2796 -0.4163 -0.1622
18594TIP3    H177273   1.160   2.555   3.304 -0.2420 -0.2955  0.1701
18594TIP3    H277274   1.245   2.430   3.304 -0.4041 -0.4081 -0.4882
18595TIP3   OH277275   1.163   6.215  12.970  0.4838  0.0702 -0.5005
18595TIP3    H177276   1.200   6.161  13.040 -0.3765  1.1549  0.8580
18595TIP3    H277277   1.238   6.254  12.927  1.0086  1.0894  1.2491
18596TIP3   OH277278   2.245   2.660  15.200  0.0045  0.5254  0.0533
18596TIP3    H177279   2.160   2.695  15.228  0.4720  1.2855  0.5897
18596TIP3    H277280   2.281   2.727  15.142  0.0320 -0.0156 -0.5656
18597TIP3   OH277281   0.966   0.119  11.998  0.2389 -0.1488  0.4947
18597TIP3    H177282   0.986   0.105  11.906  0.8419  0.9461  0.4408
18597TIP3    H277283   0.953   0.214  12.006  1.1495 -0.1036  1.7134
18598TIP3   OH277284   6.022   0.256  13.518  0.2894 -0.2373  0.2286
18598TIP3    H177285   5.978   0.328  13.474  0.1263  0.4724  1.5199
18598TIP3    H277286   5.961   0.228  13.586  1.3676  0.0329  1.3319
18599TIP3   OH277287   1.614   4.772   3.303  0.0617  0.1456  0.2550
18599TIP3    H177288   1.657   4.689   3.281 -1.4126 -0.4991 -0.3417
18599TIP3    H277289   1.641   4.790   3.393  2.9366  0.6950 -0.6180
18600TIP3   OH277290   0.191   5.574   6.976  0.4158  0.5372 -1.1208
18600TIP3    H177291   0.279   5.611   6.983  0.2056  1.0613 -1.2489
18600TIP3    H277292   0.134   5.649   6.963 -0.5109  0.6390  2.3702
18601TIP3   OH277293   4.047   1.255  12.755 -0.3090  0.4843 -0.5246
18601TIP3    H177294   4.118   1.196  12.731  0.4683  1.6283 -1.1042
18601TIP3    H277295   4.015   1.222  12.839 -0.7434 -1.5118 -1.4042
18602TIP3   OH277296   0.510   3.573   0.539 -0.3922 -0.0573  0.0085
18602TIP3    H177297   0.446   3.643   0.522 -1.1327  0.1657  3.0564
18602TIP3    H277298   0.595   3.616   0.536 -0.5769  0.2293 -1.4414
18603TIP3   OH277299   2.634   4.161   2.945 -0.4661  0.2283  0.5779
18603TIP3    H177300   2.658   4.072   2.920 -0.4281  0.5422 -0.5970
18603TIP3    H277301   2.575   4.190   2.875 -3.9094 -0.3148  3.0368
18604TIP3   OH277302   4.476   6.083  16.869  0.1884 -0.2643  0.0486
18604TIP3    H177303   4.397   6.086  16.922  0.1733  0.6083 -0.0022
18604TIP3    H277304   4.480   5.993  16.836 -0.9058 -0.2520 -0.1398
18605TIP3   OH277305   3.882   1.230  15.688  0.2015  0.4653 -0.0740
18605TIP3    H177306   3.961   1.189  15.723  0.6524  0.0485 -1.5036
18605TIP3    H277307   3.839   1.269  15.764  1.9579  1.0149  0.6912
18606TIP3   OH277308   2.145   4.877  16.909  0.1183 -0.0300 -0.1059
18606TIP3    H177309   2.157   4.971  16.916  0.3625 -0.1210  0.8991
18606TIP3    H277310   2.074   4.857  16.971  0.0766 -0.5057 -0.3009
18607TIP3   OH277311   4.094   0.511  14.999 -0.3011  0.6957 -0.8575
18607TIP3    H177312   4.077   0.583  15.060 -0.6619  1.1609 -1.4947
18607TIP3    H277313   4.035   0.527  14.925 -0.1504 -0.0754 -1.1544
18608TIP3   OH277314   4.707   0.133  15.888  0.8692  0.3266  0.0389
18608TIP3    H177315   4.619   0.169  15.876  0.7128 -0.5021 -1.5294
18608TIP3    H277316   4.737   0.170  15.971 -1.0550  0.4235  0.7336
18609TIP3   OH277317   6.445   5.961   3.204  0.3991  0.4676 -0.1097
18609TIP3    H177318   6.376   5.947   3.269  0.3956  0.1048 -0.1890
18609TIP3    H277319   6.493   5.878   3.202  0.7908  0.6917 -0.1126
18610TIP3   OH277320   4.736   4.606   2.101 -0.6378 -0.3310 -0.0138
18610TIP3    H177321   4.794   4.676   2.129 -2.0477 -0.1463  2.7840
18610TIP3    H277322   4.786   4.526   2.115 -0.3497 -0.0692  0.4742
18611TIP3   OH277323   5.163   5.891  13.768 -0.6449 -0.4805  0.6547
18611TIP3    H177324   5.113   5.862  13.845 -0.9036  0.5881  0.9127
18611TIP3    H277325   5.109   5.959  13.729  0.0678 -0.1314  0.2587
18612TIP3   OH277326   2.845   3.382   2.311  0.4935  0.0094  0.2521
18612TIP3    H177327   2.800   3.300   2.330  1.7628 -0.6096  0.7265
18612TIP3    H277328   2.776   3.448   2.307 -0.3254 -0.6397  2.4136
18613TIP3   OH277329   0.534   1.232   4.476  0.5648  0.5717  0.0401
18613TIP3    H177330   0.521   1.251   4.383 -0.6581 -1.0225 -0.1638
18613TIP3    H277331   0.574   1.145   4.477 -2.6566 -1.0494  0.9907
18614TIP3   OH277332   6.045   1.698   3.407 -0.3801 -0.2834 -0.2321
18614TIP3    H177333   5.959   1.711   3.446  0.1397 -0.6374  1.0723
18614TIP3    H277334   6.078   1.617   3.446  0.3712 -0.3944 -1.0435
18615TIP3   OH277335   4.777   3.914  16.011  0.6902  0.9319 -0.2935
18615TIP3    H177336   4.737   3.983  16.064  1.8728  0.6684  1.0344
18615TIP3    H277337   4.723   3.909  15.933 -1.7895  0.6739  1.3107
18616TIP3   OH277338   1.993   4.168  17.412  0.1714 -0.1093  0.3157
18616TIP3    H177339   1.958   4.155  17.501  1.1751 -0.4661  0.6757
18616TIP3    H277340   2.073   4.218  17.425  0.6784 -0.7297 -0.3250
18617TIP3   OH277341   5.822   4.066   3.250  0.6474  0.0025  0.1969
18617TIP3    H177342   5.879   3.996   3.282  0.6395 -0.0982 -0.0069
18617TIP3    H277343   5.783   4.030   3.170  1.6735  0.7573 -0.6516
18618TIP3   OH277344   1.351   1.212   6.631 -0.4698 -0.1906 -0.3266
18618TIP3    H177345   1.263   1.244   6.610  0.0576  0.0898 -2.3585
18618TIP3    H277346   1.339   1.121   6.656 -1.2930 -0.3681 -1.3034
18619TIP3   OH277347   6.693   0.594  14.578 -0.0225  0.3453 -0.2363
18619TIP3    H177348   6.664   0.651  14.649  1.5885 -1.6601  2.1620
18619TIP3    H277349   6.612   0.560  14.540 -0.9536 -0.8211  2.6014
18620TIP3   OH277350   5.014   5.371   6.208 -0.2664 -0.3195  0.0379
18620TIP3    H177351   5.097   5.416   6.194 -0.1800 -0.8084 -1.1089
18620TIP3    H277352   4.949   5.441   6.213 -0.0319 -0.0153 -0.9696
18621TIP3   OH277353   1.863   6.720   1.514  0.3035 -0.4139 -0.1764
18621TIP3    H177354   1.884   6.662   1.441 -0.1834 -1.8280  0.7717
18621TIP3    H277355   1.907   6.803   1.492  0.8416 -1.0593 -1.6584
18622TIP3   OH277356   5.419   0.280   3.679 -0.3505  0.1894 -0.0556
18622TIP3    H177357   5.443   0.210   3.739  0.0822  1.1990  0.9784
18622TIP3    H277358   5.338   0.251   3.639  0.5526 -1.5409 -0.7146
18623TIP3   OH277359   1.033   2.165   2.914  0.1318 -0.4313  0.4119
18623TIP3    H177360   0.985   2.082   2.918 -0.3189 -0.1906  0.1712
18623TIP3    H277361   1.001   2.214   2.990 -0.2076 -0.1651  0.1000
18624TIP3   OH277362   2.722   1.318   6.374  0.3983  0.0549  0.1520
18624TIP3    H177363   2.654   1.375   6.338  1.8907  1.3372 -0.7654
18624TIP3    H277364   2.734   1.349   6.464 -0.5538 -0.5271  0.4984
18625TIP3   OH277365   5.284   4.761   4.092  0.4221 -0.1114  0.0708
18625TIP3    H177366   5.358   4.702   4.102  0.0013 -0.8809 -1.0326
18625TIP3    H277367   5.254   4.779   4.181  0.5568 -1.5851  0.4347
18626TIP3   OH277368   0.325   6.701  13.463 -0.4089 -0.2214  0.4847
18626TIP3    H177369   0.257   6.642  13.496 -1.4835  0.7019  0.0308
18626TIP3    H277370   0.278   6.783  13.444  0.1434 -0.5269 -2.9177
18627TIP3   OH277371   0.151   0.354  14.848 -0.1604  0.1778  0.3604
18627TIP3    H177372   0.183   0.279  14.798  1.6854  0.5280  0.9234
18627TIP3    H277373   0.196   0.429  14.810  0.0938  0.6423  1.5316
18628TIP3   OH277374   3.060   5.025  14.234  0.3232 -0.2626  0.7776
18628TIP3    H177375   3.152   5.024  14.260  0.4199  0.4653  0.4699
18628TIP3    H277376   3.032   5.115  14.248  0.0995 -0.0865 -0.6707
18629TIP3   OH277377   1.017   3.786  12.458 -0.0373 -0.1263 -0.3788
18629TIP3    H177378   0.950   3.800  12.392  0.3349 -0.1866 -0.7770
18629TIP3    H277379   0.998   3.850  12.527  0.1269  0.5762 -0.9794
18630TIP3   OH277380   1.933   0.078   5.199 -0.2149 -0.0395  0.2194
18630TIP3    H177381   1.951   0.130   5.121  1.1667 -0.0612  0.5076
18630TIP3    H277382   1.928  -0.012   5.167  1.1112 -0.1415  0.2333
18631TIP3   OH277383   0.952   3.442  15.365 -0.0046 -0.6226 -0.4205
18631TIP3    H177384   0.872   3.408  15.326  0.0515 -1.8151  0.4482
18631TIP3    H277385   0.997   3.365  15.399  0.1426  0.3032  1.6304
18632TIP3   OH277386   4.162   6.583  13.296 -0.5602  0.4171  0.5728
18632TIP3    H177387   4.224   6.633  13.350  0.0743 -0.8941  1.0894
18632TIP3    H277388   4.139   6.507  13.349 -0.7018 -0.3885 -0.6030
18633TIP3   OH277389   3.982   1.950   4.203  0.2030 -0.5876  0.2275
18633TIP3    H177390   4.047   2.020   4.188 -2.0731  1.5114 -0.4906
18633TIP3    H277391   3.912   1.993   4.252 -1.3756 -2.3291 -0.4021
18634TIP3   OH277392   3.265   4.651   2.579  0.5973 -0.4821 -0.1520
18634TIP3    H177393   3.290   4.696   2.660  3.0679 -1.0779 -0.4927
18634TIP3    H277394   3.239   4.720   2.519  0.7177  0.1453  0.5088
18635TIP3   OH277395   1.748   2.823  11.863  0.3863  0.2079 -0.3625
18635TIP3    H177396   1.719   2.760  11.797  0.3918 -0.7972  0.5557
18635TIP3    H277397   1.668   2.844  11.911  0.0964  2.0711 -1.5787
18636TIP3   OH277398   1.615   1.457   3.135 -0.0537 -0.6898  0.2591
18636TIP3    H177399   1.523   1.452   3.108 -0.4355  2.8448  0.4260
18636TIP3    H277400   1.664   1.452   3.053 -0.7047  1.2287 -0.3112
18637TIP3   OH277401   5.019   4.160  17.318 -0.3759 -0.4778  0.2137
18637TIP3    H177402   5.110   4.191  17.316 -0.5035  0.0209  1.5077
18637TIP3    H277403   5.026   4.064  17.325  0.0353 -0.4717 -0.0785
18638TIP3   OH277404   0.901   0.390  12.042 -0.1987  0.2346 -0.0184
18638TIP3    H177405   0.955   0.460  12.004 -1.0872  0.3363 -1.1354
18638TIP3    H277406   0.940   0.375  12.129  0.6998  1.3293 -0.2011
18639TIP3   OH277407   6.146   4.364  10.990  0.1149  0.6081  0.3897
18639TIP3    H177408   6.225   4.315  10.967  0.3980  2.2584 -2.5574
18639TIP3    H277409   6.077   4.297  10.993  1.0656 -0.4332 -0.1728
18640TIP3   OH277410   1.150   4.342   3.655 -1.0449 -0.1445  0.6874
18640TIP3    H177411   1.170   4.404   3.725 -2.3621 -1.4926  2.3639
18640TIP3    H277412   1.201   4.265   3.676  0.4477  0.2476 -1.2844
18641TIP3   OH277413   2.278   1.075  15.984  0.2846  0.4487  0.7907
18641TIP3    H177414   2.219   1.139  15.944  0.5532 -0.0554 -0.4522
18641TIP3    H277415   2.230   0.992  15.980  0.2068  0.4303  1.7952
18642TIP3   OH277416   2.394   4.513   5.980 -0.3405  0.3021 -0.0412
18642TIP3    H177417   2.307   4.547   5.960 -0.9579 -0.4975  1.1658
18642TIP3    H277418   2.425   4.476   5.898 -1.8506 -0.9145 -0.1058
18643TIP3   OH277419   4.624   4.115  12.601  0.4100  0.0914 -0.4303
18643TIP3    H177420   4.596   4.098  12.511  0.3221 -0.2596 -0.3379
18643TIP3    H277421   4.620   4.030  12.644 -0.2725  0.3861  0.1092
18644TIP3   OH277422   0.180   4.439   5.119  0.5935  0.1106  0.7185
18644TIP3    H177423   0.224   4.464   5.037 -1.2639 -0.3388 -0.4903
18644TIP3    H277424   0.113   4.507   5.132 -1.4069 -1.5977 -0.0731
18645TIP3   OH277425   4.640   3.424  12.447 -0.0163 -0.3913  0.1387
18645TIP3    H177426   4.576   3.356  12.427 -1.7187  1.1868 -0.0641
18645TIP3    H277427   4.658   3.466  12.363  1.6401 -1.0554  0.1248
18646TIP3   OH277428   2.813   0.978   6.434  0.1377 -0.3934 -0.4515
18646TIP3    H177429   2.901   0.950   6.458  1.0421  0.3574 -2.6427
18646TIP3    H277430   2.756   0.909   6.467  1.6551 -1.4902 -0.0146
18647TIP3   OH277431   1.638   0.380  12.367  0.5412  0.2299  0.3789
18647TIP3    H177432   1.637   0.319  12.293 -0.7349  0.4569  0.1997
18647TIP3    H277433   1.731   0.389  12.388  0.8045 -1.2995  0.0196
18648TIP3   OH277434   2.728   6.018  16.075 -0.0725  0.2052  0.3825
18648TIP3    H177435   2.764   5.932  16.052  1.6088  0.5233  1.6116
18648TIP3    H277436   2.718   6.014  16.170 -0.5640  1.1642  0.3788
18649TIP3   OH277437   2.732   0.112   4.305 -0.2132 -0.5716 -0.6283
18649TIP3    H177438   2.794   0.085   4.237 -0.3784 -2.2215 -0.1756
18649TIP3    H277439   2.649   0.073   4.279 -0.6181 -0.0155 -0.2109
18650TIP3   OH277440   1.520   1.850  16.761 -0.0299 -0.0202  0.4481
18650TIP3    H177441   1.573   1.834  16.682  0.5429  0.9482  0.6130
18650TIP3    H277442   1.454   1.913  16.733 -1.5967 -1.7701  0.0611
18651TIP3   OH277443   4.611   0.486   3.493 -0.2533  0.1873  0.6363
18651TIP3    H177444   4.594   0.420   3.426 -1.9540  0.1516  1.0666
18651TIP3    H277445   4.536   0.546   3.488  0.4727  1.1892  1.3212
18652TIP3   OH277446   2.098   6.544   4.851  0.3481 -0.6491 -0.3252
18652TIP3    H177447   2.138   6.481   4.792 -1.8650  0.0411 -2.7157
18652TIP3    H277448   2.017   6.501   4.881 -0.1758  0.2552 -0.4047
18653TIP3   OH277449   0.977   0.845  17.285  0.3115 -0.0900  0.1660
18653TIP3    H177450   0.935   0.808  17.363  0.2484  0.9479  0.6396
18653TIP3    H277451   0.904   0.869  17.228  0.3781 -2.4284 -1.0106
18654TIP3   OH277452   3.351   0.661   1.462  0.0900 -0.3396  0.0069
18654TIP3    H177453   3.418   0.694   1.521  0.1660 -1.0200  0.3103
18654TIP3    H277454   3.398   0.605   1.400  0.0539  0.5908 -0.8907
18655TIP3   OH277455   1.054   4.789   0.836  0.0662 -0.1626 -0.1954
18655TIP3    H177456   1.051   4.857   0.770 -0.2483  1.9334  1.8468
18655TIP3    H277457   1.132   4.738   0.816  0.5748  1.1014 -1.5101
18656TIP3   OH277458   5.956   2.308   1.003  0.5968  0.1159  0.2769
18656TIP3    H177459   6.036   2.257   0.998  0.5686  0.0882  0.1002
18656TIP3    H277460   5.945   2.327   1.096  0.9440  0.3339  0.2738
18657TIP3   OH277461   6.688   4.097  17.455  0.2812 -0.3729 -0.1494
18657TIP3    H177462   6.599   4.110  17.422  0.4545  1.0337 -0.0875
18657TIP3    H277463   6.676   4.075  17.547  0.0499  2.1810  0.5032
18658TIP3   OH277464   4.785   5.998  11.615  0.4969 -0.2258 -0.1122
18658TIP3    H177465   4.710   5.940  11.602  0.9852 -0.7696 -0.5923
18658TIP3    H277466   4.818   5.977  11.702 -1.0261  1.3581  0.9262
18659TIP3   OH277467   0.099   5.683   3.688  0.5224  0.3204 -0.0787
18659TIP3    H177468   0.086   5.721   3.601  1.9236  1.1466  0.0343
18659TIP3    H277469   0.187   5.712   3.713  0.6960 -1.0884  1.0174
18660TIP3   OH277470   0.934   5.537   5.810 -0.6888  0.3015 -0.1575
18660TIP3    H177471   0.902   5.470   5.749  0.5711 -0.3071 -0.2029
18660TIP3    H277472   0.865   5.544   5.876 -0.5823 -1.5703  0.2271
18661TIP3   OH277473   5.785   5.293   1.685  0.1679 -0.2550  0.4141
18661TIP3    H177474   5.747   5.261   1.604  0.7320  0.0081  0.0398
18661TIP3    H277475   5.838   5.220   1.718 -1.3732 -0.9776  1.4408
18662TIP3   OH277476   5.890   1.434   5.243 -0.5588  0.0085  0.4919
18662TIP3    H177477   5.833   1.501   5.281 -0.6820  0.4936 -0.5238
18662TIP3    H277478   5.851   1.414   5.158 -0.7144 -1.6269  0.9155
18663TIP3   OH277479   4.972   5.316   1.015 -0.0844 -0.9615 -0.0509
18663TIP3    H177480   5.030   5.304   1.089 -2.6205  1.3224  2.5643
18663TIP3    H277481   5.020   5.372   0.955  0.5658  0.7309  1.9490
18664TIP3   OH277482   5.239   5.397  15.898  0.7292  0.3712  0.0747
18664TIP3    H177483   5.196   5.481  15.885  0.0239  0.0949  0.5673
18664TIP3    H277484   5.220   5.374  15.989  1.3582 -0.0742  0.0958
18665TIP3   OH277485   5.042   1.882  14.539 -0.3178  0.5972  0.0690
18665TIP3    H177486   5.046   1.956  14.600 -3.4232  1.2893 -0.3805
18665TIP3    H277487   5.036   1.924  14.453 -1.2418 -0.1831 -0.2592
18666TIP3   OH277488   6.729   6.529  15.038 -0.2825 -0.1858 -0.2960
18666TIP3    H177489   6.721   6.435  15.056 -1.0873 -0.0839 -0.0892
18666TIP3    H277490   6.807   6.556  15.087 -2.3768  0.0830  3.2153
18667TIP3   OH277491   6.693   3.839   2.646 -0.5271  0.1458 -0.1575
18667TIP3    H177492   6.732   3.922   2.674  0.2936 -0.1684 -0.3296
18667TIP3    H277493   6.606   3.838   2.687 -0.4598  0.9854  0.0259
18668TIP3   OH277494   0.592   0.166   2.382 -0.6275 -0.1008 -0.1257
18668TIP3    H177495   0.625   0.088   2.337 -0.8556 -0.4233  0.2531
18668TIP3    H277496   0.646   0.238   2.349 -1.8011 -0.0458 -2.1334
18669TIP3   OH277497   3.713   4.888   0.159  0.3281 -0.1133 -0.3971
18669TIP3    H177498   3.752   4.970   0.129  2.1393 -0.4560  0.8666
18669TIP3    H277499   3.754   4.820   0.106  1.5792 -0.4808  0.9617
18670TIP3   OH277500   5.456   2.730   2.705 -0.5746  0.8516  0.0932
18670TIP3    H177501   5.520   2.695   2.768 -0.5330  2.6497  1.1490
18670TIP3    H277502   5.494   2.712   2.619  0.1556 -0.2681  0.6304
18671TIP3   OH277503   2.895   5.348  16.275 -0.6573 -0.2721 -0.2396
18671TIP3    H177504   2.974   5.393  16.245 -2.7749  1.1640 -4.5311
18671TIP3    H277505   2.859   5.406  16.342 -0.2759  1.4170 -1.4223
18672TIP3   OH277506   0.824   3.493  13.203  0.2527  0.1910 -0.0143
18672TIP3    H177507   0.824   3.452  13.289 -0.5022 -0.0220 -0.1097
18672TIP3    H277508   0.742   3.464  13.163  0.4327  0.5732 -0.6670
18673TIP3   OH277509   0.796   2.874   1.137 -0.0418 -0.1304  0.1222
18673TIP3    H177510   0.720   2.878   1.079 -0.7063  0.4336  1.0061
18673TIP3    H277511   0.831   2.786   1.124 -1.9855 -1.1288  1.0783
18674TIP3   OH277512   1.214   0.188  12.577 -0.2191  0.3047  0.5859
18674TIP3    H177513   1.297   0.196  12.531 -0.0723 -3.2123 -0.0317
18674TIP3    H277514   1.238   0.161  12.666 -0.6829  2.0733  1.2969
18675TIP3   OH277515   4.221   1.632   3.355  0.1159 -0.8798 -0.0413
18675TIP3    H177516   4.159   1.644   3.428  0.8615 -1.6741  0.7504
18675TIP3    H277517   4.281   1.706   3.363 -0.4437 -0.3576 -0.5358
18676TIP3   OH277518   3.028   0.078   5.100 -0.3787  0.5802 -0.0383
18676TIP3    H177519   3.019  -0.000   5.154  2.4647  0.1529 -0.0338
18676TIP3    H277520   2.974   0.059   5.023 -1.4259 -0.4376  0.8958
18677TIP3   OH277521   5.863   2.507  17.437 -0.4607  0.3719 -0.2497
18677TIP3    H177522   5.795   2.538  17.496 -0.3793  1.1104 -0.5339
18677TIP3    H277523   5.942   2.503  17.492 -1.0229 -1.9487  0.4647
18678TIP3   OH277524   0.365   5.195  17.436  0.1019  0.3004  0.2627
18678TIP3    H177525   0.432   5.127  17.435  0.9473  1.1076 -1.2977
18678TIP3    H277526   0.316   5.181  17.355 -0.0185  1.2532  0.1676
18679TIP3   OH277527   2.096   1.557   4.255  0.4277  0.2533  0.1702
18679TIP3    H177528   2.093   1.611   4.334  2.8455  1.1028 -0.2189
18679TIP3    H277529   2.010   1.568   4.215 -0.9915 -0.4496  2.7681
18680TIP3   OH277530   4.126   0.267   6.170  0.1758 -0.5005  0.3054
18680TIP3    H177531   4.061   0.236   6.107  0.8961 -0.8397 -0.2879
18680TIP3    H277532   4.093   0.352   6.198  1.3329  1.1781 -2.8932
18681TIP3   OH277533   4.527   3.394   4.008  0.2310  0.6323  0.1925
18681TIP3    H177534   4.574   3.429   3.933  1.1275 -1.6392 -0.4108
18681TIP3    H277535   4.457   3.456   4.025  0.7826  1.8357 -1.7288
18682TIP3   OH277536   4.283   4.333  11.448 -0.3918  0.6952 -1.0949
18682TIP3    H177537   4.193   4.340  11.415 -0.5594  0.8553 -0.6170
18682TIP3    H277538   4.333   4.299  11.374 -0.7813  0.9348 -1.4747
18683TIP3   OH277539   4.019   3.082   1.144 -0.0152 -0.0012 -0.1961
18683TIP3    H177540   3.925   3.075   1.158 -0.0960  1.3329  0.1045
18683TIP3    H277541   4.049   3.139   1.215  1.1591 -1.0391  0.1813
18684TIP3   OH277542   4.820   1.291   0.906  0.4758  0.1057  0.0232
18684TIP3    H177543   4.866   1.281   0.989 -1.3100 -0.4973  0.9954
18684TIP3    H277544   4.811   1.386   0.895  0.6095  0.1891  0.5863
18685TIP3   OH277545   0.543   5.223  13.836 -0.5050 -0.1202 -0.1657
18685TIP3    H177546   0.468   5.182  13.792 -1.2951  0.1541  0.8801
18685TIP3    H277547   0.617   5.206  13.778 -1.5479  0.4496 -1.7483
18686TIP3   OH277548   1.663   1.131   5.122 -0.4161  0.1759 -0.5586
18686TIP3    H177549   1.589   1.095   5.170 -0.4974  0.0002 -0.8143
18686TIP3    H277550   1.693   1.060   5.066  0.2122  0.1167 -0.1520
18687TIP3   OH277551   5.132   4.813   4.323 -0.6437 -0.2656  0.2206
18687TIP3    H177552   5.149   4.845   4.412 -2.5639 -1.3081  1.0170
18687TIP3    H277553   5.043   4.777   4.327 -0.2400 -1.6421 -1.7590
18688TIP3   OH277554   1.830   5.499   3.978  0.3185 -0.9836 -0.2739
18688TIP3    H177555   1.746   5.534   3.946  1.8069  2.3295 -0.9843
18688TIP3    H277556   1.854   5.433   3.913 -0.6188 -0.2395 -1.4311
18689TIP3   OH277557   2.411   1.378  17.658 -0.8500 -0.5107 -0.2077
18689TIP3    H177558   2.352   1.387  17.583 -0.5877 -2.3836 -0.7011
18689TIP3    H277559   2.382   1.445  17.720 -1.5709  0.5632 -1.6469
18690TIP3   OH277560   5.176   6.465  12.478 -0.2317 -0.3718  0.0345
18690TIP3    H177561   5.246   6.474  12.542 -1.2069  0.5405  1.0123
18690TIP3    H277562   5.157   6.555  12.451  1.6164 -0.7995 -3.2229
18691TIP3   OH277563   2.052   4.872   4.896 -0.0248 -0.4821 -0.1210
18691TIP3    H177564   1.999   4.812   4.949  2.2581 -2.6035 -0.0425
18691TIP3    H277565   2.107   4.918   4.959  0.9009 -1.1392 -0.4263
18692TIP3   OH277566   4.302   5.516  15.461 -0.2390 -0.3458  0.2003
18692TIP3    H177567   4.297   5.450  15.531 -0.5924  0.8432  1.3263
18692TIP3    H277568   4.395   5.518  15.437 -0.5734 -3.5029 -2.1499
18693TIP3   OH277569   2.787   5.632  13.417 -0.4836  0.1487 -0.1963
18693TIP3    H177570   2.766   5.609  13.507  0.1204 -0.0857 -0.1080
18693TIP3    H277571   2.703   5.652  13.376 -0.8168 -0.3060  0.2608
18694TIP3   OH277572   0.694   2.291  13.351  0.0465  0.5452  0.1179
18694TIP3    H177573   0.641   2.331  13.282 -1.6254  0.2314  1.1685
18694TIP3    H277574   0.749   2.362  13.384 -0.1843  1.0398 -0.5519
18695TIP3   OH277575   1.099   1.081  15.730 -0.3331 -0.0254 -0.0178
18695TIP3    H177576   1.086   1.045  15.817 -1.0354  0.4111  0.0723
18695TIP3    H277577   1.192   1.073  15.713 -0.1916 -0.0954  0.7845
18696TIP3   OH277578   5.271   4.927  16.293  0.4747 -0.2733 -0.4932
18696TIP3    H177579   5.291   5.020  16.286  1.8406 -0.6868 -3.1441
18696TIP3    H277580   5.324   4.897  16.367  2.0872  0.5866 -1.2481
18697TIP3   OH277581   3.472   6.607  12.388 -0.4314  0.3518 -0.5140
18697TIP3    H177582   3.395   6.653  12.421  0.3560  2.0227 -0.9214
18697TIP3    H277583   3.520   6.582  12.467 -1.9310 -1.8240 -0.1829
18698TIP3   OH277584   1.029   1.796  11.905 -0.0762 -0.5437 -0.2190
18698TIP3    H177585   1.093   1.771  11.972 -0.3549  0.0839  0.2878
18698TIP3    H277586   1.073   1.778  11.822  1.4273  1.4969  0.0833
18699TIP3   OH277587   4.126   2.712  11.695  0.0229  0.4649  0.4838
18699TIP3    H177588   4.184   2.773  11.649 -2.0248  1.8521 -0.4424
18699TIP3    H277589   4.085   2.661  11.625 -0.6957  0.3099  1.0088
18700TIP3   OH277590   2.240   3.417   1.076  0.0482  0.4547 -0.2199
18700TIP3    H177591   2.335   3.417   1.071  0.1555 -0.6565  1.3571
18700TIP3    H277592   2.213   3.483   1.012  1.8328  0.2924 -1.1923
18701TIP3   OH277593   1.076   2.174   0.083  0.1968 -0.3207 -0.3711
18701TIP3    H177594   1.035   2.259   0.069  0.9816 -0.0437 -1.0338
18701TIP3    H277595   1.089   2.138  -0.005  3.5076  0.6379 -0.3969
18702TIP3   OH277596   5.392   5.303   4.127 -0.6399  0.4371  0.1607
18702TIP3    H177597   5.311   5.354   4.129 -1.0994 -0.1973 -0.9476
18702TIP3    H277598   5.393   5.265   4.039 -0.4055 -1.5777  0.9718
18703TIP3   OH277599   5.337   2.166   2.652 -0.5799 -0.1641 -0.1558
18703TIP3    H177600   5.405   2.129   2.708 -0.4704 -1.7680 -1.2533
18703TIP3    H277601   5.381   2.236   2.604  0.3902 -1.2667 -0.9530
18704TIP3   OH277602   5.460   2.542   4.744 -0.0537 -0.6525  0.2171
18704TIP3    H177603   5.435   2.449   4.735  2.5530 -1.4081  0.0542
18704TIP3    H277604   5.453   2.560   4.838 -2.5628 -0.3319  0.0409
18705TIP3   OH277605   1.379   4.339   4.594  0.3981 -0.2610  0.1291
18705TIP3    H177606   1.414   4.346   4.683 -0.4510 -0.6266  0.5026
18705TIP3    H277607   1.448   4.374   4.538  0.4976  1.0655  1.0205
18706TIP3   OH277608   6.490   2.078  12.492  0.0493  0.4489  0.0919
18706TIP3    H177609   6.570   2.131  12.483  0.1253  0.1094 -1.7835
18706TIP3    H277610   6.519   1.997  12.533  0.2186  1.2389  1.5751
18707TIP3   OH277611   5.865   5.343  12.262  0.0400  0.0138 -0.3939
18707TIP3    H177612   5.858   5.403  12.188 -0.5469  0.3310 -0.0869
18707TIP3    H277613   5.788   5.363  12.316  0.1186 -0.6618 -0.0313
18708TIP3   OH277614   5.115   3.137   4.351  0.5874 -0.4656  0.2988
18708TIP3    H177615   5.097   3.044   4.337  1.1117 -0.3988 -0.9397
18708TIP3    H277616   5.052   3.183   4.296 -0.9378  0.0124  2.3242
18709TIP3   OH277617   4.249   4.452   0.392  0.5566  0.2041 -0.1500
18709TIP3    H177618   4.155   4.470   0.394  0.5719  0.3806 -0.8008
18709TIP3    H277619   4.256   4.357   0.405  0.3231  0.2542  0.3797
18710TIP3   OH277620   1.294   2.622   0.998  0.6404 -0.0661 -0.2816
18710TIP3    H177621   1.220   2.583   1.045  1.3349 -1.6136 -0.4157
18710TIP3    H277622   1.300   2.712   1.031 -0.7776 -0.1799  0.3222
18711TIP3   OH277623   2.199   1.952   4.235 -0.6028  0.2905  0.0949
18711TIP3    H177624   2.112   1.920   4.212 -0.2088 -1.1785  0.5337
18711TIP3    H277625   2.183   2.037   4.275 -2.0262 -0.6603  1.6792
18712TIP3   OH277626   5.933   4.995  11.800  0.5031 -0.2603  0.6390
18712TIP3    H177627   5.908   4.937  11.872  0.4381  2.3068  2.8564
18712TIP3    H277628   6.027   4.981  11.789  0.5470 -0.5408  1.3607
18713TIP3   OH277629   4.125   4.544   0.037 -0.2604  0.4333  0.2283
18713TIP3    H177630   4.123   4.610  -0.033  1.9371  2.8077  2.2140
18713TIP3    H277631   4.211   4.504   0.030 -0.7957 -0.7850  0.3629
18714TIP3   OH277632   2.163   5.175  11.078  0.0741 -0.1546  0.2185
18714TIP3    H177633   2.189   5.083  11.076 -0.7477 -0.3775 -0.7243
18714TIP3    H277634   2.068   5.173  11.069 -0.0694  0.7504  1.2991
18715TIP3   OH277635   6.555   4.203   2.376  0.2601  0.0570  0.1972
18715TIP3    H177636   6.559   4.237   2.466  0.0514  1.1741 -0.2035
18715TIP3    H277637   6.514   4.273   2.326  0.1645 -0.6540 -0.7341
18716TIP3   OH277638   2.489   3.750  13.226 -0.2775 -0.4784 -0.0434
18716TIP3    H177639   2.555   3.688  13.259  0.5522  1.2321  1.7522
18716TIP3    H277640   2.425   3.756  13.297  0.6952  2.1215  0.7283
18717TIP3   OH277641   2.159   3.197  15.400 -0.3246  0.0293 -0.6020
18717TIP3    H177642   2.167   3.288  15.427 -0.6959 -0.4968  1.4762
18717TIP3    H277643   2.246   3.160  15.412 -0.6487 -0.3784  0.6425
18718TIP3   OH277644   3.157   1.601   4.919  0.4722 -0.0265  0.0150
18718TIP3    H177645   3.231   1.633   4.869  0.2297 -0.8609 -0.9118
18718TIP3    H277646   3.152   1.658   4.996 -0.1531  2.3582 -1.7003
18719TIP3   OH277647   1.492   3.451  14.199 -0.8555 -0.0492 -0.1890
18719TIP3    H177648   1.572   3.403  14.220 -1.7869 -0.9852  1.4187
18719TIP3    H277649   1.515   3.543  14.213 -0.4484 -0.4123  1.8159
18720TIP3   OH277650   6.310   6.343  11.434  0.6978 -0.2343  0.6300
18720TIP3    H177651   6.321   6.414  11.370  1.8376 -0.6992  0.2917
18720TIP3    H277652   6.365   6.368  11.507  1.5632 -1.0392  0.2673
18721TIP3   OH277653   5.429   0.057  17.600  0.4812 -0.3052  0.2140
18721TIP3    H177654   5.423   0.061  17.696  1.9017 -0.3890  0.3366
18721TIP3    H277655   5.506   0.002  17.584 -0.3424 -1.1476 -0.9999
18722TIP3   OH277656   2.613   0.957  14.809 -0.1069 -0.2295  0.1239
18722TIP3    H177657   2.652   0.877  14.774  0.4437 -0.6638  1.6537
18722TIP3    H277658   2.687   1.015  14.825 -0.4866  0.5518 -0.8104
18723TIP3   OH277659   2.956   0.867  13.191  0.0663  0.4668 -0.0469
18723TIP3    H177660   2.952   0.772  13.200 -1.0975  0.1823 -2.6535
18723TIP3    H277661   2.866   0.893  13.171  0.2582  2.2131  1.1989
18724TIP3   OH277662   1.945   0.637  11.998 -0.1750  0.3928  0.0327
18724TIP3    H177663   1.975   0.634  12.089  0.9195 -0.2257 -0.3228
18724TIP3    H277664   2.020   0.670  11.949 -0.7678  0.7586 -0.6442
18725TIP3   OH277665   5.805   4.120  13.625  0.2696  0.2461  0.2764
18725TIP3    H177666   5.730   4.175  13.603  0.2364 -0.1497 -0.6055
18725TIP3    H277667   5.767   4.037  13.653  0.3750  0.1206  0.0447
18726TIP3   OH277668   6.069   1.938  12.636  0.7746 -0.1590 -0.5779
18726TIP3    H177669   6.128   1.996  12.588  0.0127  0.1761 -1.1353
18726TIP3    H277670   6.065   1.859  12.582  1.2125 -0.4385 -0.2090
18727TIP3   OH277671   6.165   5.132  16.528  0.1225 -0.5765 -0.3366
18727TIP3    H177672   6.084   5.113  16.577  0.4996  0.9799  0.9881
18727TIP3    H277673   6.135   5.153  16.440 -0.9557  0.1328  0.1780
18728TIP3   OH277674   5.307   3.769  12.411 -0.4490 -0.1273  0.4091
18728TIP3    H177675   5.253   3.841  12.377  0.7330  1.0420  0.9120
18728TIP3    H277676   5.256   3.732  12.483 -1.1561  0.0658  0.0176
18729TIP3   OH277677   5.510   4.094  12.850  0.5090  0.3379 -0.0168
18729TIP3    H177678   5.554   4.010  12.835 -0.6980 -0.1275 -1.2128
18729TIP3    H277679   5.570   4.159  12.814  1.1189 -0.0856  0.2208
18730TIP3   OH277680   2.018   1.885   1.496 -0.2603  0.3870 -0.3430
18730TIP3    H177681   1.980   1.938   1.566 -1.9197 -0.5941 -0.4480
18730TIP3    H277682   2.074   1.822   1.542 -0.4812  0.4458  0.0163
18731TIP3   OH277683   6.225   3.697   3.718  0.3228  0.1715  0.3394
18731TIP3    H177684   6.153   3.658   3.668  1.0416 -0.4019 -0.2675
18731TIP3    H277685   6.260   3.624   3.769 -0.4198  0.7505  1.7407
18732TIP3   OH277686   4.313   4.327   4.863 -0.0691  0.2118  0.2068
18732TIP3    H177687   4.242   4.279   4.906 -1.1094  2.3307  1.0017
18732TIP3    H277688   4.317   4.291   4.775 -0.0142 -2.0681  1.0870
18733TIP3   OH277689   5.135   1.299   4.874 -0.4398  0.0455 -0.4058
18733TIP3    H177690   5.059   1.261   4.830 -0.5712  0.6822 -0.7334
18733TIP3    H277691   5.210   1.263   4.827 -0.5132 -0.9113  0.1805
18734TIP3   OH277692   6.135   6.211  14.957 -0.2736  0.0735  0.2472
18734TIP3    H177693   6.212   6.155  14.949 -1.4962 -1.5888 -0.4547
18734TIP3    H277694   6.096   6.187  15.041 -0.1207  0.7960  0.5271
18735TIP3   OH277695   4.512   6.190   6.189 -0.1508 -0.0492  0.8572
18735TIP3    H177696   4.591   6.184   6.136  0.0434  1.3002  0.9608
18735TIP3    H277697   4.540   6.237   6.267 -0.9504 -0.0241  1.1340
18736TIP3   OH277698   2.833   6.411  13.976  0.2629  0.1216 -0.4980
18736TIP3    H177699   2.791   6.349  14.035  1.2768  0.4483  0.6160
18736TIP3    H277700   2.760   6.452  13.929 -0.4994 -0.9394 -0.2939
18737TIP3   OH277701   0.818   1.762  16.260  0.2416 -0.0131  0.5623
18737TIP3    H177702   0.765   1.788  16.184  1.0424 -0.0239 -0.0233
18737TIP3    H277703   0.758   1.714  16.316 -0.2113 -0.6143 -0.4050
18738TIP3   OH277704   3.392   3.308   2.975  0.6053  0.2101  0.5224
18738TIP3    H177705   3.465   3.246   2.960 -1.0353 -1.6578 -0.2021
18738TIP3    H277706   3.387   3.358   2.894 -0.1562 -1.0715 -0.2622
18739TIP3   OH277707   2.527   6.237   2.766  0.6287  0.5071 -0.1603
18739TIP3    H177708   2.546   6.146   2.741  0.0029  0.5236 -0.7500
18739TIP3    H277709   2.431   6.242   2.765  0.5157  0.3795  2.8100
18740TIP3   OH277710   0.417   1.103   5.919 -0.0020  0.3923 -0.5528
18740TIP3    H177711   0.505   1.139   5.910  0.1241  0.3994  0.5719
18740TIP3    H277712   0.393   1.121   6.010 -1.8510  1.9058 -1.2785
18741TIP3   OH277713   2.419   5.472   0.540  0.0436  0.3230 -0.2058
18741TIP3    H177714   2.355   5.513   0.598 -0.3316 -0.5241 -0.0148
18741TIP3    H277715   2.504   5.505   0.571 -0.0941 -0.5877  1.2211
18742TIP3   OH277716   4.575   1.969   3.153 -0.6011  0.2991  0.3223
18742TIP3    H177717   4.591   1.950   3.061 -1.6818  1.8704 -0.2271
18742TIP3    H277718   4.653   2.018   3.180  0.2120 -1.0795  0.5739
18743TIP3   OH277719   2.421   3.394  12.619 -0.4014  0.0318 -0.0152
18743TIP3    H177720   2.500   3.398  12.673  0.8231  0.2431 -1.7402
18743TIP3    H277721   2.363   3.460  12.657  2.4598  4.1042 -1.9139
18744TIP3   OH277722   5.164   3.391  17.094 -0.5569 -0.3153  0.1217
18744TIP3    H177723   5.203   3.426  17.174 -2.9625  0.4164  1.0818
18744TIP3    H277724   5.099   3.328  17.126  0.0138 -1.7128 -1.3887
18745TIP3   OH277725   3.862   0.146   6.746 -0.4836  0.1045 -0.0241
18745TIP3    H177726   3.807   0.176   6.819 -1.1012  0.0625 -0.4658
18745TIP3    H277727   3.801   0.102   6.687  0.5776 -3.3717  1.2539
18746TIP3   OH277728   2.930   5.196   1.482  0.4187  0.1627  1.1310
18746TIP3    H177729   2.899   5.216   1.570 -0.3786  0.6889  0.7473
18746TIP3    H277730   2.999   5.132   1.494 -0.4463 -0.6215  2.0666
18747TIP3   OH277731   5.432   1.378   3.966 -0.5724  0.3405  0.4901
18747TIP3    H177732   5.522   1.371   3.996 -0.1164 -0.2123 -0.9431
18747TIP3    H277733   5.411   1.290   3.934 -1.6760  0.4208  0.9433
18748TIP3   OH277734   1.895   5.698   4.887 -0.0020  0.1616 -0.7793
18748TIP3    H177735   1.963   5.672   4.825  0.5946 -0.7338  0.2087
18748TIP3    H277736   1.901   5.633   4.958 -0.5735  1.2253  0.2814
18749TIP3   OH277737   2.407   4.011   5.395 -0.1346 -0.0066  0.0683
18749TIP3    H177738   2.478   3.984   5.454 -0.3961 -1.6791 -0.3329
18749TIP3    H277739   2.450   4.063   5.328  0.5588 -0.1310  0.4046
18750TIP3   OH277740   5.920   1.655   3.734 -0.1527  0.0994  0.4937
18750TIP3    H177741   5.934   1.735   3.784  0.2637  0.4557 -0.1665
18750TIP3    H277742   5.861   1.680   3.663  1.1723  0.2273 -0.6189
18751TIP3   OH277743   5.583   0.118  14.265  0.6482 -0.2845  0.4855
18751TIP3    H177744   5.630   0.062  14.203  1.0598 -0.2472  0.7539
18751TIP3    H277745   5.648   0.136  14.333  0.1482 -0.4717  1.0170
18752TIP3   OH277746   1.558   2.320   2.987 -0.5723  0.0067  0.8529
18752TIP3    H177747   1.468   2.337   2.959 -1.0782 -1.1274  1.7210
18752TIP3    H277748   1.552   2.311   3.082  0.9180  2.6148  1.2881
18753TIP3   OH277749   5.145   0.968   5.102  0.6975  0.3250 -0.3544
18753TIP3    H177750   5.070   1.021   5.074  0.9825  1.3516  0.7389
18753TIP3    H277751   5.177   1.012   5.181  1.2814 -1.1949  0.2859
18754TIP3   OH277752   4.343   3.245   0.128  0.2303 -0.1241  0.2879
18754TIP3    H177753   4.320   3.158   0.162 -0.1485 -0.4600 -0.8026
18754TIP3    H277754   4.381   3.291   0.204 -1.1740 -0.6197  1.3310
18755TIP3   OH277755   4.576   2.325  11.086  0.6126  0.1490 -0.8292
18755TIP3    H177756   4.589   2.239  11.044 -0.4204  0.5126 -1.9756
18755TIP3    H277757   4.518   2.372  11.025 -2.2075  0.1872  1.6508
18756TIP3   OH277758   2.068   3.801   6.324  0.6193 -0.1738  0.0268
18756TIP3    H177759   2.102   3.880   6.366  1.0565 -0.4014  0.1088
18756TIP3    H277760   1.997   3.832   6.268 -0.1942  0.0909  1.1797
18757TIP3   OH277761   5.745   1.881  16.142  0.2349 -0.7682  0.3076
18757TIP3    H177762   5.823   1.932  16.118 -0.2394 -1.8995 -4.6825
18757TIP3    H277763   5.771   1.790  16.130 -1.5026 -1.2188 -0.3721
18758TIP3   OH277764   2.956   0.482  14.468  0.3254 -0.2346  0.1435
18758TIP3    H177765   2.887   0.441  14.520  0.8621 -0.3937  0.7448
18758TIP3    H277766   3.009   0.530  14.532  1.2879 -0.8335 -0.1874
18759TIP3   OH277767   5.752   6.412  15.651 -0.2280 -0.2179  0.0976
18759TIP3    H177768   5.836   6.446  15.680 -1.8417  1.7601  3.0630
18759TIP3    H277769   5.716   6.481  15.595 -0.2344 -0.7064 -0.5126
18760TIP3   OH277770   2.350   0.129  15.875 -0.1406 -0.2769 -0.3917
18760TIP3    H177771   2.345   0.070  15.800  1.4693  0.6674 -1.2932
18760TIP3    H277772   2.302   0.207  15.847  0.8838  0.2729 -0.6590
18761TIP3   OH277773   6.476   2.419  13.008 -0.3543  0.4088 -0.0312
18761TIP3    H177774   6.442   2.345  13.058 -0.6359 -0.2562 -1.1792
18761TIP3    H277775   6.528   2.379  12.938  4.8368  1.3113  2.7783
18762TIP3   OH277776   3.776   4.561   2.389 -0.5576 -0.4122  0.1496
18762TIP3    H177777   3.868   4.551   2.366 -0.8024  0.5930 -1.4169
18762TIP3    H277778   3.776   4.574   2.484  0.7950 -1.5552  0.3403
18763TIP3   OH277779   6.037   4.986   0.478  0.1688 -0.4743 -0.0135
18763TIP3    H177780   6.058   4.938   0.398 -0.1815 -1.0911  0.2533
18763TIP3    H277781   6.048   4.922   0.548  2.2802  0.5509  0.6512
18764TIP3   OH277782   4.540   2.837   0.533  0.7613  0.1087 -0.5898
18764TIP3    H177783   4.599   2.849   0.607 -0.3688  2.3838  0.0280
18764TIP3    H277784   4.536   2.923   0.492 -1.3531 -0.2332 -1.1934
18765TIP3   OH277785   5.326   1.254   2.488 -0.0059  0.3397  0.0385
18765TIP3    H177786   5.307   1.161   2.478  1.2985  0.1377 -0.8736
18765TIP3    H277787   5.255   1.288   2.542 -0.5047 -1.1817  0.3810
18766TIP3   OH277788   1.125   4.269   5.034  0.1040  0.0838  0.0847
18766TIP3    H177789   1.041   4.239   5.001 -0.2719  1.9410 -0.7636
18766TIP3    H277790   1.175   4.189   5.049 -1.4248 -1.0055 -0.4060
18767TIP3   OH277791   0.834   3.707   6.235 -0.0856 -0.2219  0.2202
18767TIP3    H177792   0.775   3.633   6.230  2.6371 -2.5020 -1.2906
18767TIP3    H277793   0.872   3.703   6.322  0.0574 -0.6346  0.1403
18768TIP3   OH277794   1.784   1.179  16.942 -0.0880 -0.3854 -0.3300
18768TIP3    H177795   1.830   1.248  16.894 -1.6695  0.3077 -0.8991
18768TIP3    H277796   1.814   1.189  17.033  0.5447  0.3137 -0.6023
18769TIP3   OH277797   1.595   2.059  17.029 -0.0021 -0.3392  0.2592
18769TIP3    H177798   1.563   2.030  17.115  0.1277 -1.2974 -0.0025
18769TIP3    H277799   1.665   2.121  17.049 -1.6587  1.4660  0.8474
18770TIP3   OH277800   4.149   5.435  15.177  0.4893 -0.2286  0.6295
18770TIP3    H177801   4.059   5.467  15.181 -0.8130 -3.4396 -0.1285
18770TIP3    H277802   4.183   5.447  15.265  0.4445  3.6974  0.2741
18771TIP3   OH277803   3.417   4.821   0.866 -0.5866  0.4578 -0.5953
18771TIP3    H177804   3.435   4.757   0.798  1.2722 -1.5890  1.6396
18771TIP3    H277805   3.340   4.788   0.912 -0.6063  0.7007 -0.4479
18772TIP3   OH277806   2.327   1.924  14.153  0.1272  0.3897 -0.0351
18772TIP3    H177807   2.382   2.001  14.140 -0.3404  1.2910  2.5657
18772TIP3    H277808   2.367   1.878  14.227 -1.2290 -0.2417  0.3513
18773TIP3   OH277809   3.732   4.231  15.572 -0.2999  0.0856  0.2237
18773TIP3    H177810   3.738   4.314  15.621 -2.4712  1.7199 -1.9991
18773TIP3    H277811   3.796   4.240  15.502  1.4684 -1.4358  1.5518
18774TIP3   OH277812   2.808   1.012   3.435  0.2947 -0.0199  0.0990
18774TIP3    H177813   2.728   1.002   3.383 -0.6422 -2.5275  1.8201
18774TIP3    H277814   2.848   0.925   3.434  0.8427  0.1359  2.5401
18775TIP3   OH277815   6.592   3.694   3.181  0.4533  0.3066 -0.1743
18775TIP3    H177816   6.603   3.603   3.208 -3.1159 -0.0168  0.7382
18775TIP3    H277817   6.511   3.694   3.130 -0.3482  3.1203  0.9342
18776TIP3   OH277818   6.002   5.866  10.966  0.3207 -0.4034  0.5058
18776TIP3    H177819   6.020   5.787  10.915 -0.0947  0.6955 -1.4454
18776TIP3    H277820   5.908   5.881  10.955  0.6977  1.3737 -0.7844
18777TIP3   OH277821   0.143   5.201   5.793  0.2643 -0.3926 -0.0875
18777TIP3    H177822   0.171   5.293   5.795  0.4722 -0.3408 -2.5530
18777TIP3    H277823   0.061   5.201   5.841 -1.4491  1.8153 -2.6558
18778TIP3   OH277824   1.943   2.176  16.025 -0.3654  0.4486  0.5643
18778TIP3    H177825   1.867   2.197  15.971 -0.4544 -0.1180  0.4656
18778TIP3    H277826   1.938   2.082  16.039 -0.7086  0.6782  2.1170
18779TIP3   OH277827   1.539   2.099   3.880 -0.4503  0.3462  0.0756
18779TIP3    H177828   1.630   2.084   3.905 -0.4162  1.1094  0.4417
18779TIP3    H277829   1.488   2.070   3.955 -0.3655  2.3107  0.9395
18780TIP3   OH277830   3.340   1.069  11.327 -0.0538 -0.1038  0.0385
18780TIP3    H177831   3.297   1.079  11.411 -1.7603  0.3950 -0.8430
18780TIP3    H277832   3.389   1.151  11.315  2.7080 -1.3538  1.8095
18781TIP3   OH277833   4.869   6.406   5.349  0.1635 -0.2426  0.0902
18781TIP3    H177834   4.794   6.456   5.318  1.3498 -0.0762 -2.8445
18781TIP3    H277835   4.939   6.470   5.356  1.6303 -1.1809 -3.4436
18782TIP3   OH277836   5.115   3.053   2.039 -0.1296  0.0649 -0.0205
18782TIP3    H177837   5.076   2.994   1.975  2.4846 -1.3493 -0.4848
18782TIP3    H277838   5.080   3.023   2.123 -1.4959  0.1649 -0.5284
18783TIP3   OH277839   0.423   4.064  12.986 -0.0145 -0.1543 -0.0471
18783TIP3    H177840   0.436   4.158  12.995  0.3990 -0.1961 -0.2013
18783TIP3    H277841   0.335   4.055  12.948  0.1278  0.1816 -0.4557
18784TIP3   OH277842   1.490   1.527  12.424 -0.2861 -0.0800  0.2048
18784TIP3    H177843   1.563   1.547  12.365 -0.8329  0.5684 -0.2785
18784TIP3    H277844   1.499   1.434  12.443  0.5040 -0.0678 -0.0735
18785TIP3   OH277845   5.005   1.669  15.807 -0.6010  0.1679 -0.0568
18785TIP3    H177846   5.093   1.706  15.795 -0.1977 -0.0535  1.8943
18785TIP3    H277847   4.951   1.717  15.744  0.6394  1.3444 -0.2922
18786TIP3   OH277848   4.447   2.865   1.544 -0.2296  0.2862 -0.1969
18786TIP3    H177849   4.535   2.902   1.551 -0.3022  0.3458  0.4425
18786TIP3    H277850   4.421   2.847   1.634 -0.8188  0.1361 -0.3917
18787TIP3   OH277851   4.953   2.007  17.405  0.5306  0.0352 -0.3597
18787TIP3    H177852   5.018   2.077  17.412  0.2351  0.3636 -0.9038
18787TIP3    H277853   5.003   1.931  17.375  1.2994 -0.6459  2.3272
18788TIP3   OH277854   3.321   1.548   4.535 -0.1739 -0.0850 -0.0533
18788TIP3    H177855   3.271   1.628   4.550  1.3428  1.1686 -1.3036
18788TIP3    H277856   3.356   1.558   4.446  0.2721 -2.0196 -0.1321
18789TIP3   OH277857   4.050   4.694   5.759 -0.1057 -0.4743 -0.1971
18789TIP3    H177858   3.994   4.621   5.784  0.8113 -1.0368  0.2720
18789TIP3    H277859   4.088   4.668   5.675  1.1675 -1.1136  0.5453
18790TIP3   OH277860   5.703   5.934   1.976  0.2361  0.1794 -0.5299
18790TIP3    H177861   5.688   5.991   2.051  0.8970  0.1224 -0.3401
18790TIP3    H277862   5.632   5.871   1.978  0.3095  0.1154  0.1156
18791TIP3   OH277863   0.370   5.447   3.733  0.6887 -0.0003  0.1140
18791TIP3    H177864   0.374   5.351   3.738  1.8432  0.1008  2.4494
18791TIP3    H277865   0.276   5.466   3.734  0.4020 -1.0816 -1.3007
18792TIP3   OH277866   2.728   2.326  11.671  0.0949 -0.0015  0.2725
18792TIP3    H177867   2.751   2.414  11.698  0.4394 -0.5373  1.8304
18792TIP3    H277868   2.810   2.288  11.639  0.0171  0.1365 -0.0903
18793TIP3   OH277869   6.642   1.103   4.975 -0.5850 -0.5788 -0.0116
18793TIP3    H177870   6.719   1.157   4.993 -0.9810  0.6887 -1.8112
18793TIP3    H277871   6.676   1.026   4.930 -0.2529 -0.6484  0.3560
18794TIP3   OH277872   5.964   4.093   3.664 -0.0538  0.8425 -0.0493
18794TIP3    H177873   5.937   4.004   3.684 -0.1435  0.3613 -2.0615
18794TIP3    H277874   6.019   4.119   3.738 -1.3002 -0.2826  1.3184
18795TIP3   OH277875   5.229   5.504  17.471  0.2085  0.6182  0.2386
18795TIP3    H177876   5.135   5.524  17.464 -0.4974 -1.9791  1.0739
18795TIP3    H277877   5.259   5.557  17.545 -0.6629  1.2616  0.1559
18796TIP3   OH277878   5.304   1.654   0.974  0.1436  0.1408  0.0953
18796TIP3    H177879   5.386   1.703   0.982  0.2747 -0.1882  0.9109
18796TIP3    H277880   5.246   1.695   1.039  1.1187 -2.4134  2.8274
18797TIP3   OH277881   4.691   1.213  16.879  0.1509 -0.3142 -0.1138
18797TIP3    H177882   4.786   1.217  16.870 -0.0106  2.6373 -1.9276
18797TIP3    H277883   4.658   1.216  16.789 -1.6811 -1.6199  0.4566
18798TIP3   OH277884   1.710   4.533  15.376 -0.6688  0.1478  0.1754
18798TIP3    H177885   1.717   4.623  15.408 -0.8462 -0.1317  1.0165
18798TIP3    H277886   1.724   4.478  15.454  0.2327 -0.5678 -0.4631
18799TIP3   OH277887   3.187   4.293  16.833 -0.4272  0.2288 -0.2575
18799TIP3    H177888   3.237   4.279  16.753  0.2022 -0.0987  0.1886
18799TIP3    H277889   3.238   4.250  16.902 -0.2186  1.7323  0.5682
18800TIP3   OH277890   4.076   3.811   5.934  0.2435  0.7220 -0.1781
18800TIP3    H177891   4.082   3.853   5.848 -0.5142  3.2376  0.9236
18800TIP3    H277892   4.138   3.738   5.929  0.1385  0.7035 -2.8620
18801TIP3   OH277893   4.355   1.337   0.443 -0.2309 -0.4662 -0.0451
18801TIP3    H177894   4.330   1.265   0.384  2.6454 -1.7511  0.1622
18801TIP3    H277895   4.340   1.416   0.391 -1.6844 -1.2826 -0.9617
18802TIP3   OH277896   1.258   4.686   1.483  0.2595 -0.4170 -0.4344
18802TIP3    H177897   1.195   4.653   1.419  1.4973  0.0252 -1.9721
18802TIP3    H277898   1.322   4.615   1.492  0.1671 -0.4214  0.2314
18803TIP3   OH277899   5.853   4.575  12.969 -0.4545  0.1770  0.3092
18803TIP3    H177900   5.786   4.507  12.967 -0.5588  0.2165 -2.7040
18803TIP3    H277901   5.827   4.635  12.899  1.8110  1.1133  0.1927
18804TIP3   OH277902   1.333   1.401   2.401  0.2404 -0.4343  0.0854
18804TIP3    H177903   1.333   1.351   2.320 -2.7735  0.6926 -0.7368
18804TIP3    H277904   1.388   1.477   2.381  1.3455 -1.2446 -0.0843
18805TIP3   OH277905   0.908   4.565   0.022  0.9807  0.1402  0.5731
18805TIP3    H177906   0.974   4.506  -0.014 -0.0866 -0.0921 -1.1297
18805TIP3    H277907   0.846   4.508   0.066 -0.2095 -0.1414 -1.3243
18806TIP3   OH277908   6.372   1.922   5.041  0.4921  0.4040 -0.3662
18806TIP3    H177909   6.307   1.883   5.099 -0.3579  1.8667 -0.3009
18806TIP3    H277910   6.454   1.878   5.063 -0.3631 -1.0946 -0.0880
18807TIP3   OH277911   5.539   6.532   5.252  0.6069 -0.2005 -0.2527
18807TIP3    H177912   5.568   6.490   5.171  0.2532 -0.3006 -0.3334
18807TIP3    H277913   5.604   6.508   5.317  0.1093 -1.3580 -0.1629
18808TIP3   OH277914   0.632   1.840  14.887  0.2501 -0.1598 -0.1347
18808TIP3    H177915   0.600   1.750  14.884  0.3926 -0.1916 -0.8405
18808TIP3    H277916   0.723   1.835  14.858  0.0042  0.3162 -1.0522
18809TIP3   OH277917   5.650   0.775  16.148  0.1716  0.0403  0.1772
18809TIP3    H177918   5.581   0.778  16.082 -0.6135 -0.6367  0.9259
18809TIP3    H277919   5.648   0.685  16.181  0.9857  0.1828  0.6591
18810TIP3   OH277920   0.311   3.916   1.624  0.0288 -0.8262  0.1930
18810TIP3    H177921   0.223   3.880   1.615  0.5537 -2.0337 -0.3537
18810TIP3    H277922   0.324   3.967   1.544 -1.1037  1.5575  1.4321
18811TIP3   OH277923   5.847   1.082  11.811 -0.2799  0.2323  0.3591
18811TIP3    H177924   5.879   1.171  11.830  0.9570 -0.3085  0.9800
18811TIP3    H277925   5.925   1.035  11.780 -0.1568 -1.4254  2.8666
18812TIP3   OH277926   1.884   5.240  14.104 -0.2493  0.0535  0.0114
18812TIP3    H177927   1.814   5.273  14.160  0.5640  0.8607  0.5743
18812TIP3    H277928   1.845   5.237  14.017 -1.0608  0.2299  0.3534
18813TIP3   OH277929   6.338   6.706   1.662  0.6478 -0.9859 -0.3366
18813TIP3    H177930   6.264   6.646   1.673  0.2291 -0.2027  1.5411
18813TIP3    H277931   6.300   6.783   1.620  0.5475 -0.9031 -0.0996
18814TIP3   OH277932   3.158   4.058   6.075 -0.2009  0.2170  0.4949
18814TIP3    H177933   3.117   3.989   6.126 -0.3672 -1.4042 -1.7051
18814TIP3    H277934   3.193   4.119   6.140 -0.4388 -1.7000  2.5004
18815TIP3   OH277935   0.445   3.804   0.395 -0.9393  0.2804  0.0731
18815TIP3    H177936   0.523   3.859   0.393 -0.5490 -0.2759 -1.4385
18815TIP3    H277937   0.376   3.862   0.425  0.0414  0.7722  1.4993
18816TIP3   OH277938   0.569   4.722  12.577  0.2479 -0.3282 -0.0512
18816TIP3    H177939   0.480   4.723  12.612  1.1522  0.1782  2.4175
18816TIP3    H277940   0.572   4.644  12.522 -1.3600 -1.0570  0.8089
18817TIP3   OH277941   0.500   3.641  15.896 -0.1500 -0.4158 -0.1185
18817TIP3    H177942   0.563   3.682  15.954 -1.0425  1.8479 -0.6618
18817TIP3    H277943   0.465   3.712  15.843 -1.5644 -1.9326 -1.3637
18818TIP3   OH277944   1.610   0.074  16.224 -0.4736  0.8945  0.2164
18818TIP3    H177945   1.556   0.143  16.263 -1.1524 -0.0097  0.9200
18818TIP3    H277946   1.600   0.087  16.130 -1.3522  1.1956  0.3362
18819TIP3   OH277947   0.847   0.876  11.795  0.2215  0.1398  0.5419
18819TIP3    H177948   0.906   0.927  11.740  0.9531 -0.2707  0.9221
18819TIP3    H277949   0.845   0.789  11.753  0.6133 -0.1105  1.0247
18820TIP3   OH277950   5.437   5.154  11.863 -0.7663  0.0065 -0.2849
18820TIP3    H177951   5.379   5.161  11.938 -0.5404 -0.6585 -0.0394
18820TIP3    H277952   5.524   5.136  11.901 -0.9118 -1.8851 -0.7204
18821TIP3   OH277953   2.210   5.206   1.899 -0.2531 -0.0042  0.2275
18821TIP3    H177954   2.225   5.151   1.822 -0.7667 -0.6511  0.5752
18821TIP3    H277955   2.200   5.294   1.864 -0.1045 -0.2340 -0.4099
18822TIP3   OH277956   5.311   1.547   4.629 -0.1242 -0.4178  0.2589
18822TIP3    H177957   5.381   1.568   4.568  0.1602  0.5303  0.9028
18822TIP3    H277958   5.249   1.496   4.577  0.6756 -0.6244 -0.5073
18823TIP3   OH277959   6.184   1.442   4.854 -0.2882  0.3413 -0.2116
18823TIP3    H177960   6.205   1.461   4.763  0.6287 -1.3600 -0.3876
18823TIP3    H277961   6.138   1.358   4.852  1.8106 -0.9470  1.0217
18824TIP3   OH277962   5.780   4.660   5.272  0.4670 -0.2051 -0.4888
18824TIP3    H177963   5.862   4.681   5.315 -0.2783  1.2626  0.2991
18824TIP3    H277964   5.796   4.576   5.228  2.1141 -0.3376  0.3048
18825TIP3   OH277965   2.089   6.673   3.724  0.5561  0.0533  0.2094
18825TIP3    H177966   2.065   6.630   3.641 -1.3478  1.5896 -0.1124
18825TIP3    H277967   2.005   6.700   3.762  1.5742  3.2098  0.4880
18826TIP3   OH277968   6.526   5.987  15.571 -0.3886  0.1447 -0.0016
18826TIP3    H177969   6.591   5.934  15.617 -1.6777  0.8962  2.8961
18826TIP3    H277970   6.455   5.926  15.552 -0.4674  0.1386  0.3156
18827TIP3   OH277971   5.118   6.312  12.180 -0.1145 -0.4732  0.0834
18827TIP3    H177972   5.078   6.360  12.253  1.4860 -3.0530  2.8871
18827TIP3    H277973   5.199   6.360  12.162 -0.6498  0.3357 -0.2407
18828TIP3   OH277974   0.797   0.656  14.356 -0.0706 -0.4598  0.1367
18828TIP3    H177975   0.772   0.716  14.427  1.2831  2.2654 -1.5194
18828TIP3    H277976   0.874   0.610  14.391 -0.2613 -0.2048  0.9303
18829TIP3   OH277977   6.164   4.468  12.387 -0.3925 -0.1859 -0.1481
18829TIP3    H177978   6.160   4.416  12.306 -0.0290 -0.0903 -0.2316
18829TIP3    H277979   6.213   4.546  12.362 -1.5213  0.5312 -0.1994
18830TIP3   OH277980   4.566   0.444  13.764  0.5223  0.0610 -0.4339
18830TIP3    H177981   4.657   0.459  13.736  0.5513  0.5116 -0.1146
18830TIP3    H277982   4.513   0.474  13.690  0.6388 -0.6293 -0.8051
18831TIP3   OH277983   5.846   3.970   6.749  0.1339  0.4610  0.0296
18831TIP3    H177984   5.931   3.964   6.792  0.4208  0.9929 -0.4554
18831TIP3    H277985   5.831   3.882   6.714  0.8899  0.5970 -0.6461
18832TIP3   OH277986   0.019   5.167   2.070 -0.1139 -0.4164 -0.0629
18832TIP3    H177987   0.066   5.102   2.122 -0.4228 -1.3812 -0.9581
18832TIP3    H277988  -0.007   5.121   1.990 -0.7780  0.6674 -0.5071
18833TIP3   OH277989   4.954   0.817  12.795  0.0207  0.4040 -0.7286
18833TIP3    H177990   5.005   0.748  12.753 -0.5309 -0.9017  0.6409
18833TIP3    H277991   4.976   0.896  12.746  1.0646 -0.6383 -2.0370
18834TIP3   OH277992   1.198   2.296  14.807  0.1731 -0.3368  0.2082
18834TIP3    H177993   1.195   2.390  14.828 -0.7863 -0.9915  3.6595
18834TIP3    H277994   1.287   2.280  14.777  0.5012  1.5711  0.0560
18835TIP3   OH277995   4.926   0.606  14.969  0.2352  0.7987 -0.4146
18835TIP3    H177996   5.006   0.656  14.952  0.3439  0.1351 -2.1440
18835TIP3    H277997   4.953   0.515  14.961 -0.9352  0.5704 -2.6394
18836TIP3   OH277998   1.652   2.433   5.404  0.3437 -0.3394  0.4892
18836TIP3    H177999   1.705   2.481   5.340 -0.7986  1.7085  0.9657
18836TIP3    H278000   1.582   2.394   5.352  0.3849 -0.1308  0.2719
18837TIP3   OH278001   4.498   2.176  15.448  0.3382  0.0857  0.2730
18837TIP3    H178002   4.469   2.157  15.537  1.3087  0.6826  0.7360
18837TIP3    H278003   4.419   2.165  15.395 -0.6995  1.4024  1.4455
18838TIP3   OH278004   5.965   1.662   0.089  0.5186  0.3866  0.1359
18838TIP3    H178005   6.013   1.628   0.165 -0.4875 -0.4416  0.4380
18838TIP3    H278006   5.917   1.586   0.056  0.5352  0.8628 -1.0253
18839TIP3   OH278007   2.327   4.896  12.769 -0.2395 -0.2279  0.0720
18839TIP3    H178008   2.256   4.844  12.806 -0.1089  0.0617  0.7500
18839TIP3    H278009   2.313   4.984  12.803  0.8249 -0.3115  0.7898
18840TIP3   OH278010   0.453   3.511  12.874  0.1787  0.2203  0.0094
18840TIP3    H178011   0.543   3.484  12.854  0.6578 -0.4386  2.5709
18840TIP3    H278012   0.400   3.433  12.856  0.4003  0.0328  0.1609
18841TIP3   OH278013   3.367   2.305  14.233 -0.6217  0.6604 -0.0457
18841TIP3    H178014   3.378   2.349  14.149 -0.7165 -1.4097 -1.2201
18841TIP3    H278015   3.415   2.359  14.295  0.7802  1.4387 -1.7254
18842TIP3   OH278016   3.118   0.436   3.207 -0.5817  0.0911  0.3523
18842TIP3    H178017   3.057   0.427   3.280 -0.1326  1.1537  0.8737
18842TIP3    H278018   3.067   0.413   3.129 -1.7724  1.3418  0.7354
18843TIP3   OH278019   5.055   1.596   4.771  0.2442  0.1686 -0.3787
18843TIP3    H178020   5.129   1.556   4.725  0.5075  0.1223  0.0847
18843TIP3    H278021   5.084   1.685   4.791 -0.2023  0.4835 -1.0771
18844TIP3   OH278022   3.912   6.512   3.426  0.6069  0.1243  0.1310
18844TIP3    H178023   3.840   6.502   3.363  1.5455 -0.4065 -0.8788
18844TIP3    H278024   3.874   6.483   3.509 -1.0704  2.1029  0.1558
18845TIP3   OH278025   2.534   3.888   2.063 -0.1144  0.8513 -0.4744
18845TIP3    H178026   2.489   3.837   1.996 -0.4197  0.3112  0.1383
18845TIP3    H278027   2.530   3.834   2.141  1.8749  0.6351 -0.4708
18846TIP3   OH278028   0.218   6.080   5.996  0.1528 -0.5024  0.9990
18846TIP3    H178029   0.224   5.987   5.976 -0.7796 -0.3503 -0.1479
18846TIP3    H278030   0.206   6.084   6.091  2.5869 -1.4012  1.3988
18847TIP3   OH278031   0.978   4.461  14.363 -0.2112  0.3391  0.2180
18847TIP3    H178032   0.988   4.554  14.381  0.0628  0.1661  1.0081
18847TIP3    H278033   0.888   4.452  14.332  0.1970  1.0590 -1.2692
18848TIP3   OH278034   0.333   4.097   5.462  0.7592  0.3695  0.1190
18848TIP3    H178035   0.343   4.175   5.407 -0.6906  1.0082  0.7167
18848TIP3    H278036   0.302   4.130   5.546 -1.7423 -0.9578 -0.1899
18849TIP3   OH278037   2.713   5.561  15.983  0.1912  0.1323 -0.4692
18849TIP3    H178038   2.739   5.470  15.996 -1.4579 -0.2738  0.2493
18849TIP3    H278039   2.733   5.603  16.067 -0.2190  0.1360 -0.3738
18850TIP3   OH278040   0.493   1.013   5.374 -0.1955  0.2672  0.1882
18850TIP3    H178041   0.573   0.961   5.373 -0.1611  0.2465  1.8624
18850TIP3    H278042   0.518   1.096   5.415 -1.3065 -0.2564  2.0206
18851TIP3   OH278043   6.612   4.342  14.322  0.2821 -0.3250 -0.1656
18851TIP3    H178044   6.633   4.435  14.308 -0.1152 -0.1672  0.2547
18851TIP3    H278045   6.652   4.297  14.247 -0.9091  0.3695 -1.2651
18852TIP3   OH278046   3.855   3.907   0.602  0.4780 -0.0906 -0.3824
18852TIP3    H178047   3.820   3.996   0.606  0.6403 -0.0301 -0.3053
18852TIP3    H278048   3.830   3.876   0.515  0.4542  0.0433 -0.4235
18853TIP3   OH278049   5.062   4.515  15.075 -0.1473  0.3818 -0.5364
18853TIP3    H178050   4.994   4.582  15.087 -0.7260 -0.0717 -1.2323
18853TIP3    H278051   5.042   4.448  15.140  1.4064  1.5967  1.3342
18854TIP3   OH278052   4.918   0.452  11.934 -0.4851  0.1230 -0.2878
18854TIP3    H178053   4.981   0.521  11.955 -0.9573  0.2368  0.8445
18854TIP3    H278054   4.832   0.490  11.953 -0.7528 -0.7609  0.3976
18855TIP3   OH278055   6.147   1.853   2.790  0.0866 -0.3347 -0.1780
18855TIP3    H178056   6.134   1.865   2.884  0.4574  0.5422 -0.2316
18855TIP3    H278057   6.059   1.837   2.756 -0.0312 -0.8105  0.3325
18856TIP3   OH278058   2.076   2.248   0.488 -0.2512  0.1298 -0.2558
18856TIP3    H178059   2.072   2.237   0.583 -0.1590 -0.4379 -0.3135
18856TIP3    H278060   2.116   2.334   0.475 -1.0372  0.5838  0.2222
18857TIP3   OH278061   1.086   3.747   0.175 -0.2100 -0.5857  0.2965
18857TIP3    H178062   1.066   3.832   0.216  1.7481  0.1810 -0.1886
18857TIP3    H278063   1.002   3.714   0.145 -0.9384  1.6844 -0.3861
18858TIP3   OH278064   4.510   6.730  11.268 -0.4735 -0.8560 -0.3986
18858TIP3    H178065   4.521   6.824  11.278 -1.5773 -0.4879 -2.1873
18858TIP3    H278066   4.483   6.699  11.355 -1.8162  0.7564 -0.2049
18859TIP3   OH278067   2.207   2.162  13.256  0.4667 -0.6170  0.0947
18859TIP3    H178068   2.236   2.223  13.323 -0.4784 -0.2266  0.1560
18859TIP3    H278069   2.113   2.176  13.249  0.5061 -0.8583 -1.1145
18860TIP3   OH278070   2.181   3.048   2.672  0.4116 -0.0732 -0.1644
18860TIP3    H178071   2.194   2.968   2.723  1.6135 -0.1136 -0.5230
18860TIP3    H278072   2.115   3.097   2.722  0.5721 -0.7232  0.7107
18861TIP3   OH278073   1.685   1.991  11.816 -0.3235  0.1181 -0.8844
18861TIP3    H178074   1.737   1.922  11.774  1.6046  2.1460 -2.0244
18861TIP3    H278075   1.728   2.072  11.791 -2.2230  1.7543  0.8078
18862TIP3   OH278076   3.250   1.256  15.608  0.3872  0.2498  0.4540
18862TIP3    H178077   3.247   1.166  15.639  5.7807  0.4254  2.4221
18862TIP3    H278078   3.257   1.309  15.688 -0.0876  2.2386 -0.7499
18863TIP3   OH278079   1.567   4.046   6.744  0.5062 -0.0826 -0.3893
18863TIP3    H178080   1.624   3.970   6.754  0.2809 -0.0186  2.2538
18863TIP3    H278081   1.481   4.010   6.723  1.2023 -0.2275 -3.4658
18864TIP3   OH278082   2.695   2.371   6.944 -0.3984 -0.3569 -0.0093
18864TIP3    H178083   2.641   2.301   6.981  0.0705 -0.0396  1.3304
18864TIP3    H278084   2.657   2.452   6.979 -0.5420  0.0293 -1.0329
18865TIP3   OH278085   5.860   2.355   0.126  0.4469 -0.2563  0.1321
18865TIP3    H178086   5.926   2.398   0.180 -0.1526  1.2102 -0.2449
18865TIP3    H278087   5.875   2.388   0.038 -0.8009  0.1485  0.0486
18866TIP3   OH278088   6.109   1.039  14.180 -0.0951 -0.5709 -0.0946
18866TIP3    H178089   6.085   0.953  14.144 -0.1257 -0.4394 -0.3950
18866TIP3    H278090   6.135   1.090  14.103 -2.7069  0.5770 -0.3012
18867TIP3   OH278091   4.322   4.848   2.225 -0.0689 -0.6596 -0.6146
18867TIP3    H178092   4.383   4.811   2.162 -0.5654 -0.4507 -1.2332
18867TIP3    H278093   4.347   4.809   2.309  1.7365  0.3947 -0.6106
18868TIP3   OH278094   4.500   2.933   2.449 -0.1316 -0.0204 -0.2629
18868TIP3    H178095   4.575   2.964   2.398  0.7255  1.9370  1.9777
18868TIP3    H278096   4.536   2.912   2.535 -1.8976 -0.7344  0.3619
18869TIP3   OH278097   1.341   5.058   2.956  0.1994  0.0038 -0.1462
18869TIP3    H178098   1.282   5.122   2.917 -1.4250 -1.3478 -0.0175
18869TIP3    H278099   1.364   4.998   2.884  2.3789  1.1197 -0.4743
18870TIP3   OH278100   4.216   3.288  15.022  0.0756 -0.1269 -0.3818
18870TIP3    H178101   4.209   3.224  15.093 -0.5127 -1.9345 -1.9882
18870TIP3    H278102   4.150   3.354  15.043 -1.7097 -1.8226 -0.3730
18871TIP3   OH278103   6.119   2.888  15.097  0.0277 -0.5488  0.1229
18871TIP3    H178104   6.087   2.916  15.183  1.8706  0.1171  0.6362
18871TIP3    H278105   6.060   2.817  15.071 -0.6888 -0.6207  1.8471
18872TIP3   OH278106   6.179   5.357  13.315  0.7319  0.6636  0.0417
18872TIP3    H178107   6.087   5.338  13.330  0.9512 -2.1490 -1.4388
18872TIP3    H278108   6.224   5.318  13.390  0.8829 -0.8252 -0.7912
18873TIP3   OH278109   1.016   0.141  14.683  0.1374 -0.1171 -0.3834
18873TIP3    H178110   1.000   0.227  14.644 -0.8272 -0.2991 -0.4148
18873TIP3    H278111   0.929   0.111  14.710  0.7739  0.1854  2.3071
18874TIP3   OH278112   1.387   1.557  13.414 -0.0447 -0.1545 -0.7710
18874TIP3    H178113   1.300   1.552  13.375 -0.5625 -2.3686  0.4900
18874TIP3    H278114   1.443   1.506  13.356 -0.2582 -1.2259 -0.0697
18875TIP3   OH278115   2.656   6.574   1.126 -0.0452  0.1507  0.5316
18875TIP3    H178116   2.597   6.511   1.085 -0.5596 -0.4454  2.1137
18875TIP3    H278117   2.603   6.619   1.190  1.3191 -0.9299  2.5443
18876TIP3   OH278118   4.970   5.997   0.708 -0.4744  0.0363 -0.2058
18876TIP3    H178119   4.945   5.963   0.622  0.0642  0.1253 -0.4011
18876TIP3    H278120   4.971   6.092   0.697  1.2216 -0.0010 -0.5735
18877TIP3   OH278121   5.913   5.275  11.827 -0.2977  0.0105 -0.0591
18877TIP3    H178122   5.970   5.293  11.752 -0.0634  0.4827  0.2231
18877TIP3    H278123   5.908   5.180  11.832  3.3126 -0.2586  1.9793
18878TIP3   OH278124   0.520   3.186  17.508 -0.3207  0.3156  0.2736
18878TIP3    H178125   0.447   3.167  17.449  0.1427 -2.1301  0.3576
18878TIP3    H278126   0.582   3.235  17.454 -1.4015  1.2160 -0.1923
18879TIP3   OH278127   1.630   3.788  13.323  0.4140 -0.4689  0.0550
18879TIP3    H178128   1.611   3.843  13.247  0.2940 -0.9077 -0.2324
18879TIP3    H278129   1.632   3.699  13.289  0.7413 -0.6350  0.4963
18880TIP3   OH278130   4.066   1.310  15.264 -0.2128 -0.1090 -0.2965
18880TIP3    H178131   3.999   1.374  15.242 -2.1876 -2.5556 -1.9341
18880TIP3    H278132   4.028   1.257  15.334  1.3471  0.3763  0.9884
18881TIP3   OH278133   0.222   2.775  13.201 -0.6566  0.1436  0.3123
18881TIP3    H178134   0.196   2.736  13.118  2.3884 -1.6902  0.0527
18881TIP3    H278135   0.312   2.805  13.186 -0.3581  0.6189  2.6770
18882TIP3   OH278136   0.356   1.440  12.713 -0.0909  0.1306  0.5542
18882TIP3    H178137   0.352   1.433  12.808 -0.6835  0.3726  0.5520
18882TIP3    H278138   0.450   1.442  12.693  0.0425  0.9770  1.2063
18883TIP3   OH278139   3.351   0.457   4.621 -0.9812  0.4751  0.0492
18883TIP3    H178140   3.387   0.489   4.704  2.1180 -2.5180  0.0880
18883TIP3    H278141   3.270   0.412   4.647 -0.3584  0.0726  1.4308
18884TIP3   OH278142   6.322   4.811  15.243 -0.0478  0.4642 -0.1550
18884TIP3    H178143   6.297   4.729  15.200  1.0292 -0.3439  0.6925
18884TIP3    H278144   6.279   4.807  15.328  0.2838  0.6176  0.0205
18885TIP3   OH278145   6.191   2.075   4.163  0.1559  0.1551  0.7212
18885TIP3    H178146   6.158   2.014   4.096  0.8017  1.8181 -1.2052
18885TIP3    H278147   6.135   2.152   4.156  1.5606  1.2083  0.5445
18886TIP3   OH278148   4.413   4.965   1.863  0.0732 -0.6237 -0.2058
18886TIP3    H178149   4.354   4.921   1.802 -0.1638  1.1033 -1.2901
18886TIP3    H278150   4.356   5.023   1.913  0.8688  1.7478 -1.8816
18887TIP3   OH278151   5.997   5.985  13.736  0.4887 -0.2218  0.9302
18887TIP3    H178152   6.083   5.973  13.777  1.5960  0.7654 -0.9590
18887TIP3    H278153   6.016   5.987  13.642 -1.0704  3.7138  0.5347
18888TIP3   OH278154   2.632   6.102  11.815 -0.4947  0.3044  0.1118
18888TIP3    H178155   2.573   6.160  11.767 -0.0170  0.0841 -0.7547
18888TIP3    H278156   2.590   6.016  11.813 -1.4782  0.6879  1.8738
18889TIP3   OH278157   4.971   5.971  11.339 -0.3924 -0.3637 -0.8519
18889TIP3    H178158   5.026   6.008  11.271 -0.0446  0.3576 -0.1959
18889TIP3    H278159   5.006   5.883  11.354 -0.5424 -0.5703 -1.6662
18890TIP3   OH278160   2.197   0.442  15.180  0.1382 -0.0713 -0.2731
18890TIP3    H178161   2.137   0.515  15.162  0.7841  0.4393 -0.4042
18890TIP3    H278162   2.267   0.481  15.233 -0.1467 -0.8738  0.7347
18891TIP3   OH278163   4.587   1.011   3.558  0.6155 -0.7134  1.0200
18891TIP3    H178164   4.586   1.107   3.560 -0.3700 -0.6875  0.1261
18891TIP3    H278165   4.623   0.985   3.643 -0.8767  0.4268  2.0338
18892TIP3   OH278166   6.087   4.263   1.411 -0.6236 -0.1426  0.0235
18892TIP3    H178167   6.092   4.199   1.481 -0.3580  0.3283  0.4439
18892TIP3    H278168   6.106   4.347   1.454  0.6310  0.0196 -0.8132
18893TIP3   OH278169   5.466   2.307   0.856  0.3784 -0.3187 -0.0773
18893TIP3    H178170   5.470   2.317   0.951 -0.8056 -1.2159  0.0870
18893TIP3    H278171   5.557   2.316   0.828  0.6132  1.1930  0.9826
18894TIP3   OH278172   6.404   3.138  15.931  0.0513  0.0656  0.3279
18894TIP3    H178173   6.364   3.079  15.867 -1.3812  2.1518 -0.8147
18894TIP3    H278174   6.447   3.205  15.878  1.9764 -0.0877  1.5936
18895TIP3   OH278175   6.360   1.893  14.332  0.3147  0.2772  0.3929
18895TIP3    H178176   6.403   1.917  14.414  0.9351 -2.2162  0.8723
18895TIP3    H278177   6.292   1.831  14.358 -0.5365  0.6547 -0.8403
18896TIP3   OH278178   1.373   4.549  14.539  0.1005 -0.4209 -0.3157
18896TIP3    H178179   1.426   4.493  14.596  0.6125 -0.3384 -0.7040
18896TIP3    H278180   1.348   4.623  14.595 -1.5286 -1.5640  0.5318
18897TIP3   OH278181   5.954   1.106   4.166  0.3881 -0.1343  0.0559
18897TIP3    H178182   6.045   1.090   4.188  0.3310 -2.2343 -0.9723
18897TIP3    H278183   5.948   1.086   4.072 -0.7850  1.6519 -0.2991
18898TIP3   OH278184   3.722   3.311   6.241  0.5391 -0.5191  0.3305
18898TIP3    H178185   3.634   3.274   6.246  0.1768 -0.0959 -1.9622
18898TIP3    H278186   3.774   3.255   6.299 -0.4491 -3.2749 -1.2460
18899TIP3   OH278187   6.068   0.591   4.022 -0.3574  0.1767 -0.3633
18899TIP3    H178188   6.034   0.578   4.110  0.4722  0.3863  0.0021
18899TIP3    H278189   5.991   0.592   3.966 -0.9246  0.4293  0.4071
18900TIP3   OH278190   0.612   5.957  11.726  0.6224 -1.0601  0.4493
18900TIP3    H178191   0.643   5.923  11.642 -0.3011 -2.1037  0.5064
18900TIP3    H278192   0.552   5.890  11.757 -1.8921  0.9586  0.2225
18901TIP3   OH278193   4.242   3.632  14.735 -0.0582 -0.3425  0.2583
18901TIP3    H178194   4.257   3.649  14.642  3.1112 -0.4118  0.6605
18901TIP3    H278195   4.213   3.716  14.770 -0.6502 -0.1503 -0.6567
18902TIP3   OH278196   4.856   6.334  14.117  0.0154 -0.2615 -0.1115
18902TIP3    H178197   4.881   6.396  14.186 -0.4284  0.5265 -0.6443
18902TIP3    H278198   4.905   6.363  14.041 -1.5049  0.5201 -0.8314
18903TIP3   OH278199   2.016   4.679   0.320 -1.3256  0.0560  0.4415
18903TIP3    H178200   2.000   4.587   0.297  1.3715 -0.5362  0.6549
18903TIP3    H278201   2.016   4.679   0.416 -1.3606  0.2926  0.4403
18904TIP3   OH278202   6.541   4.947  11.537 -0.0529  0.1337 -0.6554
18904TIP3    H178203   6.465   4.940  11.594  0.0198  2.8632 -0.1013
18904TIP3    H278204   6.515   4.902  11.457 -1.4266 -0.7966  0.2593
18905TIP3   OH278205   5.755   1.480  12.383  0.6442  0.2815  0.1985
18905TIP3    H178206   5.758   1.413  12.452 -1.2603  1.1136  1.1881
18905TIP3    H278207   5.827   1.458  12.324  2.5316 -0.3575  2.5570
18906TIP3   OH278208   0.227   1.052   0.016 -0.1649  0.6517 -0.1099
18906TIP3    H178209   0.178   1.073   0.095  0.1393 -0.4069  0.3779
18906TIP3    H278210   0.163   1.063  -0.055 -0.2304  2.3351  0.1842
18907TIP3   OH278211   0.804   5.440  14.886  0.3843 -0.3631  0.1985
18907TIP3    H178212   0.888   5.397  14.900  0.3243 -0.1797  1.2170
18907TIP3    H278213   0.763   5.389  14.816  1.0728 -0.8535  0.1400
18908TIP3   OH278214   2.749   0.650   4.455  0.3712 -0.2212 -0.2473
18908TIP3    H178215   2.700   0.613   4.529  0.6264  1.6320  0.9100
18908TIP3    H278216   2.731   0.744   4.459  2.8327  0.3375 -0.6624
18909TIP3   OH278217   4.512   1.237  17.317  0.1751  0.0830  0.0730
18909TIP3    H178218   4.492   1.179  17.244 -2.3784 -1.0427  1.5051
18909TIP3    H278219   4.585   1.195  17.362  0.1063 -0.5957 -0.4350
18910TIP3   OH278220   5.950   0.868  17.091  0.8742 -0.0477  0.4084
18910TIP3    H178221   5.945   0.857  16.996  1.9998 -0.3301  0.3665
18910TIP3    H278222   5.889   0.803  17.125 -0.5384  0.9441 -0.1371
18911TIP3   OH278223   2.915   4.485   0.451  0.3285 -0.1285  0.0929
18911TIP3    H178224   2.893   4.536   0.373 -0.4878 -0.6465 -0.0240
18911TIP3    H278225   2.970   4.414   0.419  0.6708  0.1246  0.1145
18912TIP3   OH278226   5.380   4.551   0.967 -0.3726  0.1924  0.2886
18912TIP3    H178227   5.391   4.556   1.062  0.8612  0.9234  0.1343
18912TIP3    H278228   5.372   4.458   0.948  0.2590 -0.0226  1.0282
18913TIP3   OH278229   0.401   0.843  15.870 -0.5306 -0.2344  0.0634
18913TIP3    H178230   0.415   0.752  15.843 -0.4371  0.1979 -1.4205
18913TIP3    H278231   0.476   0.863  15.926 -1.4076 -1.5580  1.7992
18914TIP3   OH278232   6.613   3.512  13.862 -0.2562  0.0394 -0.7038
18914TIP3    H178233   6.693   3.475  13.826 -0.5799  0.9252 -2.4225
18914TIP3    H278234   6.550   3.440  13.857  0.1648 -0.3666 -0.2597
18915TIP3   OH278235   0.134   2.334   4.870  0.0412  0.3008  0.0990
18915TIP3    H178236   0.210   2.282   4.844 -0.6193 -0.3844 -0.5258
18915TIP3    H278237   0.164   2.425   4.866  1.3335 -0.0339  1.5991
18916TIP3   OH278238   2.435   2.577   0.402  0.2378 -0.4158 -0.0394
18916TIP3    H178239   2.477   2.659   0.376  0.5932 -0.9356 -1.1691
18916TIP3    H278240   2.425   2.528   0.320 -2.1751 -0.5075  0.2177
18917TIP3   OH278241   2.204   6.409  13.589 -0.3532 -0.1947 -0.2389
18917TIP3    H178242   2.254   6.440  13.665 -1.0331 -0.1518  0.1996
18917TIP3    H278243   2.243   6.454  13.514  0.6029 -0.5607  0.0313
18918TIP3   OH278244   2.833   4.919   2.431  0.1406 -0.3519 -0.6383
18918TIP3    H178245   2.775   4.939   2.357  0.7278  0.7058 -0.8334
18918TIP3    H278246   2.921   4.939   2.398  0.3246  1.3161  0.6887
18919TIP3   OH278247   3.631   5.102   4.092  0.5691  0.0170 -0.2884
18919TIP3    H178248   3.715   5.104   4.046  0.3464  0.2769 -0.6873
18919TIP3    H278249   3.565   5.116   4.024  0.2449  0.5667  0.1303
18920TIP3   OH278250   0.558   3.993   5.824  0.2580 -0.0881  0.4087
18920TIP3    H178251   0.486   3.963   5.768  0.9663 -1.7443  0.2950
18920TIP3    H278252   0.538   4.084   5.844 -0.9693  0.0009 -1.0351
18921TIP3   OH278253   1.460   2.151  16.814 -0.0414  0.9885 -0.3377
18921TIP3    H178254   1.477   2.111  16.899  1.0076 -0.1175 -1.0353
18921TIP3    H278255   1.375   2.117  16.788  0.6470 -0.5113 -0.7290
18922TIP3   OH278256   5.423   0.568  16.662  0.1606 -0.2805 -0.0176
18922TIP3    H178257   5.436   0.506  16.591 -2.0607 -1.2553  0.3549
18922TIP3    H278258   5.381   0.517  16.731 -1.6578  1.5872  0.3402
18923TIP3   OH278259   2.296   0.642   2.563  0.5432 -0.3881  0.0489
18923TIP3    H178260   2.382   0.678   2.543  0.4152 -0.6477 -1.0341
18923TIP3    H278261   2.261   0.613   2.478 -0.1729 -1.2464  0.6086
18924TIP3   OH278262   4.276   1.200  17.044 -0.7715  0.0605 -0.0417
18924TIP3    H178263   4.208   1.132  17.044 -2.0718  1.2943  0.7263
18924TIP3    H278264   4.358   1.152  17.049 -1.6793 -1.4494  1.5393
18925TIP3   OH278265   5.665   2.016  17.654  0.2527  1.2396  0.2471
18925TIP3    H178266   5.603   2.085  17.678  0.6270  2.4759 -2.0586
18925TIP3    H278267   5.723   2.008  17.730  0.3143  3.6225  0.5344
18926TIP3   OH278268   4.428   6.201   5.199 -0.1385  0.0138  0.0438
18926TIP3    H178269   4.358   6.145   5.166 -0.5640  0.7413 -0.3156
18926TIP3    H278270   4.469   6.237   5.121  0.9651 -0.7852  0.2403
18927TIP3   OH278271   6.537   2.616   3.364  0.3913  0.0360  0.0209
18927TIP3    H178272   6.624   2.580   3.350  0.2592  0.0122 -0.7690
18927TIP3    H278273   6.511   2.650   3.279 -0.3993 -0.0139  0.2348
18928TIP3   OH278274   4.799   5.540   5.267 -0.0318  0.5292 -1.0277
18928TIP3    H178275   4.736   5.507   5.203 -1.3435 -1.7434  1.2630
18928TIP3    H278276   4.877   5.486   5.254 -0.6150 -0.5490 -0.1794
18929TIP3   OH278277   1.419   4.701   0.243  0.5102  0.3702  0.0540
18929TIP3    H178278   1.344   4.674   0.190  0.3780  0.8545 -0.0100
18929TIP3    H278279   1.493   4.652   0.206  0.8249  2.2055 -1.9642
18930TIP3   OH278280   1.188   5.898   4.359 -0.0787  0.0203  0.3017
18930TIP3    H178281   1.215   5.951   4.434 -1.1167  0.4515  0.3787
18930TIP3    H278282   1.146   5.960   4.299 -0.1001 -0.4852 -0.2182
18931TIP3   OH278283   3.929   3.636  16.661 -0.0502  0.5590 -0.4559
18931TIP3    H178284   4.018   3.635  16.627  0.6624  2.0938  1.1809
18931TIP3    H278285   3.940   3.649  16.755 -1.9680 -1.5858  0.1643
18932TIP3   OH278286   2.018   0.443   5.100  0.4017 -0.1791  0.3833
18932TIP3    H178287   2.088   0.494   5.060  1.9332 -1.6224  1.0982
18932TIP3    H278288   2.060   0.397   5.173 -1.4693 -0.5060  1.3133
18933TIP3   OH278289   5.235   5.403   3.339 -0.4320 -0.4723  0.1140
18933TIP3    H178290   5.286   5.471   3.383  2.0085 -1.8704 -0.3533
18933TIP3    H278291   5.214   5.439   3.254  0.3085 -0.0534  0.1012
18934TIP3   OH278292   3.234   6.009  15.752 -0.1365 -0.1561 -0.6829
18934TIP3    H178293   3.204   6.095  15.782 -1.2774 -0.5671 -0.6121
18934TIP3    H278294   3.270   5.967  15.830 -0.5624 -0.1549 -0.4832
18935TIP3   OH278295   1.858   1.798  14.035 -0.6358  0.1843  0.5869
18935TIP3    H178296   1.947   1.788  14.066 -0.9797  0.2864  1.6254
18935TIP3    H278297   1.853   1.741  13.958  1.1582  2.3368 -1.2982
18936TIP3   OH278298   0.945   2.011   0.596  0.1969  0.6041  0.0043
18936TIP3    H178299   0.992   2.028   0.515 -0.2388 -1.1395 -0.6688
18936TIP3    H278300   0.946   1.916   0.605 -0.4427  0.7132  1.6445
18937TIP3   OH278301   6.162   2.865   6.530 -0.0038 -0.5182 -0.2259
18937TIP3    H178302   6.166   2.803   6.457 -2.0627 -2.2898  1.0568
18937TIP3    H278303   6.080   2.912   6.517 -0.0814 -0.4125  0.5918
18938TIP3   OH278304   4.774   4.605  16.889 -0.3043 -0.1497 -0.4980
18938TIP3    H178305   4.690   4.608  16.934 -0.9060 -2.1380 -1.3821
18938TIP3    H278306   4.760   4.543  16.817  1.4878  0.6257 -1.5794
18939TIP3   OH278307   1.379   5.369  15.183 -0.0652  0.7098 -0.4547
18939TIP3    H178308   1.441   5.437  15.211  1.9321 -1.1451 -0.1215
18939TIP3    H278309   1.352   5.327  15.265 -0.3701  0.3493 -0.7415
18940TIP3   OH278310   4.495   3.122  12.711 -0.2055  0.0772  0.5097
18940TIP3    H178311   4.559   3.180  12.669  1.9618 -1.4691  1.5426
18940TIP3    H278312   4.524   3.115  12.801 -2.1921 -0.2825  1.1769
18941TIP3   OH278313   0.612   5.653   6.196 -0.3577 -0.1422 -0.3870
18941TIP3    H178314   0.659   5.637   6.278  0.0906 -0.1176 -0.6369
18941TIP3    H278315   0.528   5.608   6.207  0.2057 -1.2321 -0.4193
18942TIP3   OH278316   2.650   5.795   4.679 -0.1428 -0.1585  0.4565
18942TIP3    H178317   2.669   5.759   4.593 -0.0329  0.2012  0.3298
18942TIP3    H278318   2.556   5.812   4.677 -0.3709 -1.2865  0.8396
18943TIP3   OH278319   1.121   0.744  10.861 -0.1031  0.4237  0.3065
18943TIP3    H178320   1.179   0.765  10.935  1.0586 -0.2425 -0.3807
18943TIP3    H278321   1.095   0.829  10.826  0.5171  0.7458  0.6015
18944TIP3   OH278322   2.954   3.535  12.433 -0.1156  0.3944 -0.8180
18944TIP3    H178323   3.004   3.616  12.432 -2.7872  2.1721 -1.8466
18944TIP3    H278324   2.945   3.514  12.526 -1.3327  2.6704 -0.3373
18945TIP3   OH278325   5.936   5.714   2.934  0.3863 -0.0255  0.2536
18945TIP3    H178326   5.926   5.808   2.916  0.4646 -0.0819 -0.0875
18945TIP3    H278327   5.854   5.675   2.902  0.3932 -0.0857  0.3103
18946TIP3   OH278328   3.558   6.044   3.919  0.0699 -0.9027 -0.0211
18946TIP3    H178329   3.591   5.984   3.853 -0.4829  0.2307 -1.3875
18946TIP3    H278330   3.472   6.009   3.944 -0.7171 -0.1862 -1.5761
18947TIP3   OH278331   5.206   3.630  14.425  0.4689 -0.5584  0.5809
18947TIP3    H178332   5.298   3.606  14.411  0.3118 -0.4767 -0.6935
18947TIP3    H278333   5.210   3.713  14.471  1.0965  0.5850 -1.3889
18948TIP3   OH278334   0.844   4.259   4.362 -0.0345 -0.0223  0.0409
18948TIP3    H178335   0.868   4.181   4.412  0.1792  0.5779  0.8963
18948TIP3    H278336   0.818   4.225   4.276  2.1650 -0.8693 -0.3577
18949TIP3   OH278337   0.948   5.560  14.101  0.1518 -0.3342  0.1857
18949TIP3    H178338   1.015   5.539  14.036  0.7108 -0.6340  0.8422
18949TIP3    H278339   0.929   5.653  14.086  1.1411 -0.0898  0.3586
18950TIP3   OH278340   0.370   5.233   5.048  0.2016 -0.3541  0.5805
18950TIP3    H178341   0.298   5.197   4.996 -0.2437  1.3068 -0.0322
18950TIP3    H278342   0.407   5.158   5.093 -0.7686 -1.5293 -0.4964
18951TIP3   OH278343   0.671   3.680  11.705 -0.5196 -0.5065  0.5189
18951TIP3    H178344   0.668   3.676  11.610 -2.6617  0.6579  0.4855
18951TIP3    H278345   0.610   3.613  11.734  2.2750 -2.9719  1.2600
18952TIP3   OH278346   3.727   6.389   3.590  0.1219 -0.5338  0.0860
18952TIP3    H178347   3.699   6.479   3.600  0.5033 -0.1971 -1.5552
18952TIP3    H278348   3.681   6.341   3.658 -1.1275  0.6774  0.1267
18953TIP3   OH278349   4.335   4.159   4.409 -0.6273  0.8180 -0.2148
18953TIP3    H178350   4.258   4.145   4.354  0.1600 -2.5841 -0.7217
18953TIP3    H278351   4.392   4.215   4.356 -1.0199 -0.1487 -1.7555
18954TIP3   OH278352   2.567   0.169  11.779  0.2110  0.3509  0.2296
18954TIP3    H178353   2.503   0.110  11.739  1.1934 -0.2277 -0.5657
18954TIP3    H278354   2.629   0.186  11.708  0.0604  2.1977  0.5058
18955TIP3   OH278355   1.018   0.144  11.736  0.9696 -0.5665  0.5739
18955TIP3    H178356   0.944   0.083  11.740  0.8209 -0.3528  1.2837
18955TIP3    H278357   0.985   0.220  11.688  0.7073 -0.4492  0.9356
18956TIP3   OH278358   3.967   5.964   3.358 -0.2659  0.5150 -0.3305
18956TIP3    H178359   3.983   5.972   3.264  0.1739  0.5013 -0.2564
18956TIP3    H278360   4.038   5.909   3.390 -0.3559  0.6080  0.0297
18957TIP3   OH278361   3.426   0.061   1.161 -0.2147  0.1986  0.0465
18957TIP3    H178362   3.385   0.132   1.111 -1.0159 -0.9616 -0.9872
18957TIP3    H278363   3.424  -0.014   1.102 -0.3455 -0.9720  1.4907
18958TIP3   OH278364   6.113   4.126   2.755 -0.2071 -0.3085 -0.1454
18958TIP3    H178365   6.050   4.157   2.690 -0.6859 -0.7929  0.0800
18958TIP3    H278366   6.145   4.043   2.720  0.6358  0.1422 -0.4658
18959TIP3   OH278367   2.021   2.578   0.009 -0.1501  0.0768 -0.0512
18959TIP3    H178368   2.113   2.550   0.010 -0.2946 -0.3896  0.3790
18959TIP3    H278369   1.990   2.564   0.098 -1.5011 -2.7321 -0.8396
18960TIP3   OH278370   0.404   3.959   1.353 -0.1107 -0.1063  0.8539
18960TIP3    H178371   0.473   3.895   1.338 -0.0004  0.2568 -0.3101
18960TIP3    H278372   0.366   3.973   1.266 -0.8222  0.6201  1.2735
18961TIP3   OH278373   1.017   2.414   0.868 -0.2370  0.3470 -0.6529
18961TIP3    H178374   0.956   2.342   0.878  0.3082 -0.0531 -0.1518
18961TIP3    H278375   1.095   2.387   0.916 -0.4719  1.8018  0.6537
18962TIP3   OH278376   0.630   1.771  14.469 -0.0375 -0.0254 -0.3416
18962TIP3    H178377   0.643   1.676  14.477  1.1828  0.1683  0.2309
18962TIP3    H278378   0.537   1.784  14.486  0.3226 -0.8462  2.8768
18963TIP3   OH278379   4.376   0.615   3.566 -0.0328 -0.0519 -0.3762
18963TIP3    H178380   4.386   0.654   3.653 -0.4197 -0.3197 -0.2074
18963TIP3    H278381   4.293   0.566   3.571  0.0836 -0.3010 -0.8062
18964TIP3   OH278382   3.151   1.412   4.189 -0.4472  0.4229 -0.8387
18964TIP3    H178383   3.147   1.319   4.167 -2.0480  0.1501  0.4270
18964TIP3    H278384   3.132   1.415   4.283 -1.1465  2.0744 -0.9981
18965TIP3   OH278385   1.913   0.148   3.375 -0.4682  0.3004 -0.3149
18965TIP3    H178386   1.997   0.137   3.418 -0.2264  1.1384 -0.5594
18965TIP3    H278387   1.872   0.222   3.421 -0.8050  0.2991 -0.6057
18966TIP3   OH278388   0.436   2.645   3.785 -0.0760 -0.1999 -0.5802
18966TIP3    H178389   0.392   2.563   3.762 -1.7899  0.7404 -0.8120
18966TIP3    H278390   0.406   2.663   3.874  1.0362 -0.2780 -0.1756
18967TIP3   OH278391   5.404   6.373   1.451 -0.0883  0.4216 -0.0384
18967TIP3    H178392   5.383   6.459   1.414  0.5256  1.0885  1.0808
18967TIP3    H278393   5.446   6.325   1.380 -0.0258  1.2227 -0.5552
18968TIP3   OH278394   4.119   5.504   2.837 -0.3162  0.3338 -0.2805
18968TIP3    H178395   4.041   5.449   2.842 -0.2184  0.2657  0.9451
18968TIP3    H278396   4.086   5.593   2.843 -0.5065  0.4870 -2.6326
18969TIP3   OH278397   3.958   1.904   0.383  0.4498  0.1789  0.0239
18969TIP3    H178398   3.969   1.882   0.290 -1.2807  1.0737 -0.4355
18969TIP3    H278399   3.997   1.831   0.429  1.4078 -0.2642 -1.4050
18970TIP3   OH278400   0.670   3.692  14.926 -0.2406 -0.5469  0.6221
18970TIP3    H178401   0.712   3.660  14.847 -1.1666 -0.8000  0.2202
18970TIP3    H278402   0.738   3.688  14.993  1.3436  2.0580 -0.6705
18971TIP3   OH278403   1.163   5.298   2.887  0.0875 -0.1008  0.1626
18971TIP3    H178404   1.151   5.346   2.969 -3.6401  0.4558 -0.5010
18971TIP3    H278405   1.237   5.340   2.845  0.9683  0.7767  2.4409
18972TIP3   OH278406   5.605   3.384   0.095  0.6383 -0.5204 -0.3514
18972TIP3    H178407   5.638   3.350   0.013  0.9343 -2.0017  0.3507
18972TIP3    H278408   5.675   3.368   0.158  0.8723  1.5877  0.0090
18973TIP3   OH278409   3.017   3.072  16.981 -0.0057  0.2285 -0.6101
18973TIP3    H178410   3.037   3.141  17.043 -1.0521 -0.4787  0.5569
18973TIP3    H278411   3.065   2.995  17.013 -0.7758 -0.2159 -0.4934
18974TIP3   OH278412   2.749   3.673  16.516 -0.2012 -0.4846 -0.6174
18974TIP3    H178413   2.706   3.650  16.598  0.5675  1.2907  0.3450
18974TIP3    H278414   2.729   3.766  16.504  1.9128 -0.0230 -1.0049
18975TIP3   OH278415   5.894   1.890   2.896  0.5971  0.2758  0.2617
18975TIP3    H178416   5.915   1.957   2.831  1.2184 -0.9544 -0.8592
18975TIP3    H278417   5.956   1.906   2.967  2.0953 -0.2756 -0.8544
18976TIP3   OH278418   0.854   1.253   2.807  0.2057 -0.1903 -0.1349
18976TIP3    H178419   0.926   1.241   2.869  0.0213 -0.2254  0.0752
18976TIP3    H278420   0.784   1.293   2.859 -0.0917 -0.5883 -0.2231
18977TIP3   OH278421   0.005   3.653  11.261  0.1320  0.2639 -0.1392
18977TIP3    H178422  -0.010   3.731  11.315 -0.6237 -0.3892  0.6103
18977TIP3    H278423   0.097   3.631  11.277 -0.0242  0.1972  0.7563
18978TIP3   OH278424   0.782   0.451  12.963 -0.0471 -0.1451 -0.2998
18978TIP3    H178425   0.782   0.476  12.871  0.3518 -1.8250 -0.8025
18978TIP3    H278426   0.692   0.466  12.993  0.1873  1.8610 -0.5061
18979TIP3   OH278427   4.004   3.539  11.684  0.2243  0.4601 -0.1950
18979TIP3    H178428   3.911   3.550  11.663  0.2226  2.7915  0.8282
18979TIP3    H278429   4.050   3.580  11.610  0.4042  0.9656  0.1980
18980TIP3   OH278430   2.343   5.651  17.010 -0.2008  0.1709  1.0142
18980TIP3    H178431   2.323   5.614  17.096  1.5708 -2.8580  0.2632
18980TIP3    H278432   2.389   5.581  16.964  1.9642  2.8282 -1.2106
18981TIP3   OH278433   5.875   0.386   1.568 -0.7157  0.2190  0.2055
18981TIP3    H178434   5.898   0.440   1.644  0.0347  0.7805 -0.4051
18981TIP3    H278435   5.823   0.444   1.512  1.2781  0.8209 -1.1261
18982TIP3   OH278436   4.975   5.538  12.478  0.5389 -0.0420  0.0048
18982TIP3    H178437   4.914   5.557  12.407 -0.2740  0.7464  0.8791
18982TIP3    H278438   5.059   5.570  12.447  0.2800 -0.1286 -0.7878
18983TIP3   OH278439   2.756   3.466   6.346 -0.0646  0.2389  0.1067
18983TIP3    H178440   2.754   3.434   6.437 -0.3190  1.3007  0.4913
18983TIP3    H278441   2.770   3.388   6.293 -1.8087 -0.6792  0.9170
18984TIP3   OH278442   2.392   0.569   0.570 -0.6551 -0.0591 -0.4027
18984TIP3    H178443   2.362   0.484   0.539  0.6523 -0.0639 -1.7830
18984TIP3    H278444   2.482   0.552   0.600 -1.2943  0.3105  1.8723
18985TIP3   OH278445   1.307   4.991  14.532 -0.1823 -0.3060  0.5101
18985TIP3    H178446   1.340   4.955  14.449  0.7469  1.2648  0.1617
18985TIP3    H278447   1.277   5.079  14.509 -1.9444 -0.6281  1.4292
18986TIP3   OH278448   3.734   3.555   3.011 -0.4562 -0.2758 -0.5245
18986TIP3    H178449   3.741   3.476   2.956 -0.9110  1.1312 -2.7477
18986TIP3    H278450   3.699   3.621   2.952 -1.5315  1.2220  1.6946
18987TIP3   OH278451   2.899   1.144  12.514  0.1292 -0.4976 -0.2368
18987TIP3    H178452   2.930   1.096  12.437  0.6115 -1.3024  0.4366
18987TIP3    H278453   2.897   1.078  12.583 -2.1120 -0.2575  0.0191
18988TIP3   OH278454   2.601   0.308  17.480  0.0260 -0.1245 -0.1020
18988TIP3    H178455   2.590   0.398  17.450 -3.1212 -0.9440 -1.7578
18988TIP3    H278456   2.513   0.276  17.496  1.1434 -2.0942  3.4048
18989TIP3   OH278457   5.480   6.349  12.633  0.4160  0.1836 -0.1279
18989TIP3    H178458   5.514   6.320  12.549 -1.0818 -2.2113 -0.0059
18989TIP3    H278459   5.440   6.434  12.615  0.2602 -0.2170 -1.8058
18990TIP3   OH278460   2.215   0.645   0.759 -0.1141 -0.5136  0.1888
18990TIP3    H178461   2.239   0.706   0.829 -0.4838  0.1098 -0.2136
18990TIP3    H278462   2.290   0.645   0.701 -0.9104  1.2201 -0.9224
18991TIP3   OH278463   1.203   3.181   3.054  0.0682 -0.0137  0.3462
18991TIP3    H178464   1.209   3.265   3.010 -3.6667  0.3627  0.2144
18991TIP3    H278465   1.185   3.202   3.146  1.1508 -0.7304  0.7486
18992TIP3   OH278466   0.607   0.352   2.869  0.2612  0.7881 -0.5044
18992TIP3    H178467   0.618   0.389   2.782 -1.1974 -1.0131 -1.5165
18992TIP3    H278468   0.543   0.409   2.912  0.0744  1.0005 -1.0598
18993TIP3   OH278469   5.168   1.129  13.780 -0.3423  0.4658  0.5015
18993TIP3    H178470   5.145   1.098  13.693  1.2295 -2.1340  0.9142
18993TIP3    H278471   5.146   1.222  13.779 -1.0280  0.3571 -2.4053
18994TIP3   OH278472   4.021   4.320  13.695 -0.2297  0.2180 -0.5194
18994TIP3    H178473   4.044   4.403  13.736  2.4990  0.2163 -1.8178
18994TIP3    H278474   4.020   4.256  13.766  0.3997  0.8995  0.1102
18995TIP3   OH278475   6.469   6.136  16.343  0.2130 -0.3280 -0.2809
18995TIP3    H178476   6.536   6.155  16.277  1.0486  0.6013  0.8026
18995TIP3    H278477   6.440   6.047  16.322  0.2157  0.0485 -2.0796
18996TIP3   OH278478   4.262   4.812   6.580  0.1486 -0.4791 -0.4102
18996TIP3    H178479   4.269   4.904   6.554 -0.8596 -0.2600  0.0342
18996TIP3    H278480   4.182   4.782   6.538 -0.9209 -0.4273  1.4610
18997TIP3   OH278481   1.898   0.322   5.446  0.0100  0.1107  0.2612
18997TIP3    H178482   1.835   0.381   5.488  0.6320 -0.3100  1.8532
18997TIP3    H278483   1.844   0.264   5.393 -0.7095  1.3896 -0.4744
18998TIP3   OH278484   0.661   1.480  11.930  0.1326 -0.0372  0.0211
18998TIP3    H178485   0.616   1.464  12.013  1.4843 -0.4362  0.7105
18998TIP3    H278486   0.598   1.530  11.878 -0.7070  0.3282  1.3290
18999TIP3   OH278487   6.170   2.571  13.135  0.1738  0.7853 -0.3693
18999TIP3    H178488   6.232   2.575  13.208  0.0748 -0.4765 -0.2085
18999TIP3    H278489   6.218   2.609  13.062  1.8279 -1.7393 -0.7061
19000TIP3   OH278490   2.532   2.525   1.324  0.0968  0.3155 -0.1928
19000TIP3    H178491   2.510   2.521   1.417  0.7748  1.1718  0.0163
19000TIP3    H278492   2.453   2.557   1.281  0.6304  2.7249  0.4626
19001TIP3   OH278493   0.537   4.610   3.593 -0.4885 -0.0954  0.0551
19001TIP3    H178494   0.481   4.622   3.669 -0.4233  0.6240 -0.0046
19001TIP3    H278495   0.575   4.696   3.577 -0.2794 -0.3048 -0.6214
19002TIP3   OH278496   4.846   2.824  13.436  0.4297 -0.3499  0.5117
19002TIP3    H178497   4.905   2.749  13.441 -0.0496 -0.8915 -1.1292
19002TIP3    H278498   4.759   2.787  13.450 -0.1407 -0.7158 -3.0886
19003TIP3   OH278499   0.255   6.693  12.392  0.3528  0.0554 -0.1216
19003TIP3    H178500   0.296   6.624  12.339 -1.6013 -0.9511 -0.3951
19003TIP3    H278501   0.237   6.764  12.330  0.7174  0.0772 -0.2051
19004TIP3   OH278502   6.579   2.348   5.497 -0.3832  0.2163 -0.1700
19004TIP3    H178503   6.509   2.331   5.434 -0.0736 -0.7675 -0.2675
19004TIP3    H278504   6.534   2.371   5.578 -0.7935  2.1999 -0.8865
19005TIP3   OH278505   2.298   4.065   4.005  0.1013 -0.1801 -0.4955
19005TIP3    H178506   2.295   4.115   4.087 -3.0356 -0.6997 -0.1535
19005TIP3    H278507   2.277   3.975   4.032  1.9798 -1.0057 -1.5702
19006TIP3   OH278508   3.295   4.907  17.004  0.0208 -0.0512  0.1117
19006TIP3    H178509   3.272   4.849  17.076  0.9398 -0.6235 -0.0392
19006TIP3    H278510   3.267   4.994  17.033 -0.0595 -0.3498  0.9456
19007TIP3   OH278511   0.759   2.369  12.412 -0.0500 -0.5609  0.0904
19007TIP3    H178512   0.833   2.398  12.466  0.6322 -0.3403 -0.9448
19007TIP3    H278513   0.682   2.407  12.455  0.2390 -2.0487  2.0711
19008TIP3   OH278514   3.342   1.103  10.786 -0.0961 -0.3979 -0.4985
19008TIP3    H178515   3.292   1.184  10.775 -1.5716 -1.0884  0.6601
19008TIP3    H278516   3.354   1.095  10.881  1.7565 -0.5692 -0.7143
19009TIP3   OH278517   6.229   1.931   3.641  0.2829 -0.1385 -0.1698
19009TIP3    H178518   6.233   1.863   3.573  0.9504 -1.7245  1.3751
19009TIP3    H278519   6.157   1.988   3.613 -1.7136 -2.6435 -0.5343
19010TIP3   OH278520   3.530   1.094   5.975 -0.0601 -0.1932  0.4374
19010TIP3    H178521   3.587   1.117   6.048 -1.2797  0.7750  1.1272
19010TIP3    H278522   3.487   1.013   6.003 -1.5707  0.9171  1.4500
19011TIP3   OH278523   5.132   4.313  14.464 -0.2578  0.1039  0.2087
19011TIP3    H178524   5.053   4.353  14.427 -0.2533 -0.3377 -0.2879
19011TIP3    H278525   5.100   4.235  14.510 -0.1323  0.0386  0.1854
19012TIP3   OH278526   0.130   3.921   3.477 -0.8225  0.0058  0.0182
19012TIP3    H178527   0.204   3.900   3.534 -0.7760  0.0553 -0.0237
19012TIP3    H278528   0.127   4.017   3.477 -1.1951  0.0010  0.4188
19013TIP3   OH278529   1.617   0.281   5.254  0.0570  0.0986  0.5085
19013TIP3    H178530   1.620   0.273   5.349 -0.8764 -0.4999  0.5106
19013TIP3    H278531   1.680   0.349   5.233  1.2078 -0.6300  1.4473
19014TIP3   OH278532   0.514   2.175  14.387  0.0228  0.1212  0.0259
19014TIP3    H178533   0.454   2.148  14.457  1.0524 -0.5468  0.6859
19014TIP3    H278534   0.464   2.237  14.334 -1.4696 -0.9674  0.1311
19015TIP3   OH278535   4.474   5.474   0.037  0.2601 -0.3639 -0.2501
19015TIP3    H178536   4.427   5.528   0.101 -0.5477 -1.4640  0.1072
19015TIP3    H278537   4.413   5.404   0.015  1.4972 -1.4743 -0.2697
19016TIP3   OH278538   5.715   6.430  16.171  0.2081  0.1162  0.1806
19016TIP3    H178539   5.674   6.446  16.086  0.1793  0.7125  0.3072
19016TIP3    H278540   5.758   6.512  16.193 -0.8066  0.3659  1.3147
19017TIP3   OH278541   0.252   5.495  10.989 -0.0532 -0.6687  0.0879
19017TIP3    H178542   0.258   5.436  10.913  1.1751  0.2869 -0.5944
19017TIP3    H278543   0.275   5.581  10.954 -0.6259  0.0049  1.3184
19018TIP3   OH278544   3.063   4.723   4.832  0.4887 -0.0429  0.4427
19018TIP3    H178545   3.057   4.741   4.925  0.1918  0.9508  0.2399
19018TIP3    H278546   2.975   4.697   4.806  0.2593  0.9467  0.1952
19019TIP3   OH278547   2.948   0.908   4.652  0.3694  0.5064 -0.5667
19019TIP3    H178548   2.861   0.889   4.616  0.4918 -0.4013 -0.4035
19019TIP3    H278549   2.931   0.935   4.742  0.2943 -0.2584 -0.3457
19020TIP3   OH278550   4.053   0.004  13.049 -0.1101  0.2006 -0.3752
19020TIP3    H178551   4.097   0.024  13.131 -1.7496  1.0202  0.3478
19020TIP3    H278552   3.994  -0.069  13.070  1.1005 -1.1265 -1.4081
19021TIP3   OH278553   3.749   0.514  12.089 -0.0200 -0.0380  0.1083
19021TIP3    H178554   3.766   0.533  11.997  0.6127  0.7553  0.3741
19021TIP3    H278555   3.664   0.553  12.107 -0.0786 -0.0704 -0.0996
19022TIP3   OH278556   2.250   4.562  14.704  0.4552 -0.4121  0.8451
19022TIP3    H178557   2.271   4.607  14.786  1.8203 -1.6806  1.2308
19022TIP3    H278558   2.273   4.625  14.635  0.3040  0.2652  1.4049
19023TIP3   OH278559   6.093   4.408  15.574  1.0195 -0.5231 -0.4043
19023TIP3    H178560   6.121   4.345  15.641  0.7228 -2.0334 -1.6428
19023TIP3    H278561   6.004   4.433  15.599  0.3034 -2.3017 -1.0479
19024TIP3   OH278562   4.071   1.933  13.628  0.3441 -0.3086 -0.4516
19024TIP3    H178563   4.098   1.890  13.709 -0.1787 -0.8310 -0.5477
19024TIP3    H278564   4.133   1.904  13.562 -0.5800 -1.7372 -0.7372
19025TIP3   OH278565   6.322   0.493   2.157  0.2585 -1.3086  0.1396
19025TIP3    H178566   6.321   0.582   2.192  0.9081 -0.9473 -0.7249
19025TIP3    H278567   6.251   0.448   2.203 -1.0828  0.0735 -0.4924
19026TIP3   OH278568   1.255   2.489  13.989  0.4025  0.2180 -0.0002
19026TIP3    H178569   1.171   2.535  13.984 -0.5744 -1.3510  0.9788
19026TIP3    H278570   1.266   2.471  14.082  1.7743  0.2732 -0.1389
19027TIP3   OH278571   0.691   2.820   4.780 -0.2573 -0.2382 -0.6391
19027TIP3    H178572   0.700   2.822   4.876  0.9138  0.2954 -0.7385
19027TIP3    H278573   0.604   2.783   4.765 -0.0333 -1.3776  0.6116
19028TIP3   OH278574   5.812   6.455   6.103  0.2373  0.3797  0.3308
19028TIP3    H178575   5.816   6.473   6.197 -1.6152  0.8268  0.3595
19028TIP3    H278576   5.842   6.536   6.062 -1.0015  0.9589  0.5333
19029TIP3   OH278577   2.774   3.847   5.920 -0.1407  0.0437 -0.0752
19029TIP3    H178578   2.699   3.905   5.904 -0.9108 -0.8911  0.0792
19029TIP3    H278579   2.773   3.831   6.014  0.8216  0.7593  0.0746
19030TIP3   OH278580   1.915   4.273  10.422 -0.2588 -0.3509 -0.2738
19030TIP3    H178581   1.948   4.355  10.386 -1.8841 -0.5239 -2.3645
19030TIP3    H278582   1.984   4.243  10.481  1.6994  1.0022 -1.7528
19031TIP3   OH278583   6.421   1.722   3.968 -0.0820 -0.1125  0.2449
19031TIP3    H178584   6.397   1.664   4.041 -0.1138 -1.8335 -1.0619
19031TIP3    H278585   6.440   1.806   4.009  0.7814 -1.2618  2.3472
19032TIP3   OH278586   1.487   2.126   4.151  0.2247 -0.3787 -0.4303
19032TIP3    H178587   1.454   2.114   4.240 -0.0201 -1.7139 -0.6859
19032TIP3    H278588   1.527   2.213   4.152 -1.5206  0.4617  0.4383
19033TIP3   OH278589   0.506   5.556  16.834 -0.2872  0.6394  0.0975
19033TIP3    H178590   0.447   5.576  16.907 -1.3021 -0.5951 -0.3516
19033TIP3    H278591   0.585   5.521  16.875 -0.8845 -0.1268  0.6125
19034TIP3   OH278592   4.647   6.116   3.887 -0.4166  0.4556 -0.2942
19034TIP3    H178593   4.560   6.101   3.924 -1.6229  0.9232 -2.7215
19034TIP3    H278594   4.630   6.155   3.801  2.1383 -1.1534 -1.6645
19035TIP3   OH278595   1.703   1.454  14.898  0.0394 -0.5710 -0.2132
19035TIP3    H178596   1.615   1.485  14.874 -0.8462 -1.6779  1.4491
19035TIP3    H278597   1.707   1.463  14.993  1.4137 -1.3497 -0.1714
19036TIP3   OH278598   1.927   2.884  13.419 -0.1678 -0.0382  0.0903
19036TIP3    H178599   1.862   2.894  13.349 -0.5730  0.5811  0.5503
19036TIP3    H278600   1.932   2.970  13.460 -0.3624 -0.5495  1.2010
19037TIP3   OH278601   5.267   5.346  10.965  0.1755 -0.3208 -0.0039
19037TIP3    H178602   5.272   5.420  10.905 -0.7596 -0.7490 -0.6408
19037TIP3    H278603   5.219   5.378  11.041  1.7023  0.3373  0.7307
19038TIP3   OH278604   6.609   5.267   3.527  0.2435  0.0660 -0.2501
19038TIP3    H178605   6.583   5.260   3.435 -0.3166 -0.6525 -0.0445
19038TIP3    H278606   6.685   5.210   3.535  1.3550  1.4439 -0.6383
19039TIP3   OH278607   5.367   0.029   5.639  0.2638 -0.1277  0.0210
19039TIP3    H178608   5.274   0.024   5.661 -0.0796 -0.8187 -1.4656
19039TIP3    H278609   5.372  -0.004   5.550  1.5498  2.4428 -0.9763
19040TIP3   OH278610   2.547   0.817  11.566 -0.1646  0.1038 -0.0755
19040TIP3    H178611   2.456   0.787  11.555 -0.5261  0.1774  2.1431
19040TIP3    H278612   2.600   0.750  11.523 -1.2426 -0.4171 -0.6187
19041TIP3   OH278613   5.599   2.100   3.699 -0.7964 -0.7152 -0.0667
19041TIP3    H178614   5.591   2.086   3.793 -1.0250 -0.1437  0.0064
19041TIP3    H278615   5.677   2.153   3.688  0.3987 -2.4428 -0.3919
19042TIP3   OH278616   6.641   0.056   4.613 -0.3195  0.6721  0.3385
19042TIP3    H178617   6.730   0.023   4.621 -0.4569 -0.1394 -1.1141
19042TIP3    H278618   6.624   0.059   4.519 -1.8451  0.7235  0.5793
19043TIP3   OH278619   1.729   3.277  16.494 -0.3170  0.1188 -1.0967
19043TIP3    H178620   1.735   3.342  16.565 -1.9654 -1.5390  0.6641
19043TIP3    H278621   1.801   3.216  16.511 -0.5314 -0.1159 -1.0360
19044TIP3   OH278622   2.623   4.502   1.842  0.1803 -0.0432 -0.3198
19044TIP3    H178623   2.701   4.459   1.806 -0.3044 -0.8996 -0.3786
19044TIP3    H278624   2.596   4.444   1.914  0.2647  0.8537  0.4611
19045TIP3   OH278625   5.680   5.287   0.253 -0.3522 -0.2336 -0.1165
19045TIP3    H178626   5.726   5.310   0.334 -1.0871  1.4577 -0.1475
19045TIP3    H278627   5.708   5.197   0.235  0.8788 -0.1745  1.2749
19046TIP3   OH278628   0.733   1.328   5.677 -0.3360  0.4742 -0.0341
19046TIP3    H178629   0.781   1.410   5.686 -3.4780  2.3010  2.5254
19046TIP3    H278630   0.792   1.261   5.710  1.3401  2.1222  0.4894
19047TIP3   OH278631   3.897   2.671   0.230 -0.4784  0.3579  0.0198
19047TIP3    H178632   3.885   2.640   0.141 -0.1606 -2.6096  0.9157
19047TIP3    H278633   3.810   2.702   0.257 -0.9204 -0.1196 -0.8298
19048TIP3   OH278634   6.158   5.649   2.324 -0.8284  0.1776 -0.4195
19048TIP3    H178635   6.082   5.621   2.375 -1.3851  2.7581  0.3143
19048TIP3    H278636   6.193   5.723   2.372  0.2546  1.0538 -2.4324
19049TIP3   OH278637   3.285   2.130   2.237  0.2068 -0.0063  0.3264
19049TIP3    H178638   3.199   2.091   2.217  0.2115 -0.3921  1.0265
19049TIP3    H278639   3.306   2.182   2.159 -1.4514  1.5081  0.8168
19050TIP3   OH278640   6.610   5.369   0.692  0.1843  0.0135 -0.2888
19050TIP3    H178641   6.515   5.359   0.693  0.2085 -0.3230  1.0744
19050TIP3    H278642   6.630   5.420   0.771  1.1660 -0.2890 -0.3260
19051TIP3   OH278643   1.512   4.922   2.791 -0.0372  0.2004 -0.3719
19051TIP3    H178644   1.493   4.866   2.716 -2.7279  1.5025 -0.7901
19051TIP3    H278645   1.509   4.864   2.867  0.2069 -0.7044 -1.0447
19052TIP3   OH278646   1.535   0.889   4.342  0.1253  0.4215 -0.3617
19052TIP3    H178647   1.480   0.811   4.345  0.5148  0.1708  0.3910
19052TIP3    H278648   1.487   0.954   4.394 -0.6531  1.0060 -1.7342
19053TIP3   OH278649   3.545   5.614   1.320 -0.3047  0.0317  0.0962
19053TIP3    H178650   3.582   5.532   1.351 -0.5072  0.0784  0.4666
19053TIP3    H278651   3.545   5.671   1.397  1.1498  0.8615 -0.4800
19054TIP3   OH278652   1.403   2.362  15.116 -0.1658 -0.0710 -0.2375
19054TIP3    H178653   1.356   2.310  15.182  1.5813 -0.4240  0.7894
19054TIP3    H278654   1.348   2.356  15.038 -1.5617 -0.8765  0.7497
19055TIP3   OH278655   1.185   5.935   3.896  0.0768 -0.6850  0.8419
19055TIP3    H178656   1.185   5.998   3.968 -0.8008 -0.2467  0.4770
19055TIP3    H278657   1.093   5.922   3.875  0.3292  0.4690 -1.2822
19056TIP3   OH278658   1.229   3.330   4.702  0.1303 -0.0390 -0.1072
19056TIP3    H178659   1.284   3.287   4.636 -0.4809 -2.2106  0.7268
19056TIP3    H278660   1.142   3.332   4.663  0.3296  1.4702 -0.5555
19057TIP3   OH278661   2.562   1.782   7.154  0.2730 -0.2490 -0.1791
19057TIP3    H178662   2.594   1.704   7.201  0.2069  0.7004  1.5445
19057TIP3    H278663   2.606   1.779   7.070  0.4903 -2.0012 -0.0492
19058TIP3   OH278664   0.231   1.480   0.662 -0.0192 -0.1868  0.5478
19058TIP3    H178665   0.141   1.447   0.665 -0.6434  1.4570  1.2866
19058TIP3    H278666   0.224   1.564   0.617  1.3450 -0.5669 -0.3958
19059TIP3   OH278667   2.446   4.700   1.772  0.3699 -0.4389 -0.9686
19059TIP3    H178668   2.396   4.738   1.845  0.9466  0.4661 -1.0295
19059TIP3    H278669   2.499   4.631   1.812  0.1127 -0.4604 -0.6623
19060TIP3   OH278670   3.308   6.372   4.788 -0.2453  0.2014  0.8945
19060TIP3    H178671   3.328   6.368   4.694  0.4503 -0.6267  1.0605
19060TIP3    H278672   3.387   6.340   4.830 -0.7432  0.0632  1.7445
19061TIP3   OH278673   4.513   1.008  15.640  0.3702 -0.0658  0.0494
19061TIP3    H178674   4.601   1.013  15.603  0.1179  0.9239 -0.4444
19061TIP3    H278675   4.474   0.931  15.598  0.0393  1.1071 -1.9067
19062TIP3   OH278676   3.952   3.997  14.167 -0.0120  0.1517  0.1908
19062TIP3    H178677   3.918   4.005  14.077 -1.3195 -3.2286  0.2523
19062TIP3    H278678   3.879   3.961  14.217  1.3635 -0.0368  2.1664
19063TIP3   OH278679   1.370   1.393  15.038 -0.0027 -0.5695  0.1942
19063TIP3    H178680   1.450   1.413  15.087 -0.4476  0.4318  0.5347
19063TIP3    H278681   1.299   1.423  15.095 -0.5066  1.8654 -1.5812
19064TIP3   OH278682   0.719   0.427   5.702 -0.1398 -0.2144 -0.2930
19064TIP3    H178683   0.699   0.520   5.713  0.2703 -0.1057 -0.4772
19064TIP3    H278684   0.633   0.385   5.700 -0.3209 -0.0045  1.2361
19065TIP3   OH278685   3.662   4.402   1.414  0.1083  0.0263  0.0616
19065TIP3    H178686   3.677   4.432   1.504  0.0753 -0.0989  0.1093
19065TIP3    H278687   3.749   4.387   1.379  0.1124 -0.2434  0.1821
19066TIP3   OH278688   2.200   2.135  12.832 -0.1555  0.6427 -0.2469
19066TIP3    H178689   2.201   2.086  12.750 -0.5702  0.2883 -0.0447
19066TIP3    H278690   2.107   2.153  12.848 -0.0969  0.4653  0.2891
19067TIP3   OH278691   6.075   1.683  13.674  0.3193  0.3904 -0.0983
19067TIP3    H178692   6.126   1.759  13.700 -0.2590  0.6106  0.4186
19067TIP3    H278693   5.984   1.705  13.697 -0.1998  0.4599 -2.0231
19068TIP3   OH278694   0.766   1.513  17.643 -0.0366  0.0464  0.2019
19068TIP3    H178695   0.723   1.455  17.580  0.3505  0.9354 -0.9126
19068TIP3    H278696   0.693   1.558  17.687 -0.3029 -0.4153  0.2431
19069TIP3   OH278697   6.278   3.431   2.258  0.5875  0.4818 -0.2336
19069TIP3    H178698   6.314   3.390   2.180  0.8826  0.3587 -0.0350
19069TIP3    H278699   6.200   3.477   2.227  1.9379  2.3574 -1.0212
19070TIP3   OH278700   1.404   4.839  15.570 -0.1123 -0.0674 -0.3820
19070TIP3    H178701   1.355   4.829  15.488 -0.5344 -1.0321 -0.0270
19070TIP3    H278702   1.482   4.889  15.545 -0.6388  0.3718 -1.2039
19071TIP3   OH278703   3.973   2.054   3.022 -0.1567 -0.3652 -0.4712
19071TIP3    H178704   3.944   1.974   2.978  1.3321 -0.8862 -0.5542
19071TIP3    H278705   3.982   2.030   3.114 -0.3648 -0.0961 -0.3771
19072TIP3   OH278706   5.612   5.264  11.532  0.0001  0.0099 -0.9841
19072TIP3    H178707   5.603   5.359  11.525  0.7168  0.1058 -0.6857
19072TIP3    H278708   5.692   5.244  11.483  1.2748 -0.1227  1.0441
19073TIP3   OH278709   3.494   3.591   1.491 -0.0177 -0.4663  0.6158
19073TIP3    H178710   3.452   3.507   1.508 -0.0592 -0.2851  1.4477
19073TIP3    H278711   3.422   3.654   1.489 -0.1983 -0.6743 -1.8105
19074TIP3   OH278712   1.762   3.321   3.253 -0.6012 -0.1475 -0.1388
19074TIP3    H178713   1.851   3.292   3.231 -0.2201  0.0362  1.1240
19074TIP3    H278714   1.719   3.242   3.287 -0.7613 -0.0985 -0.2212
19075TIP3   OH278715   6.663   0.789   5.589  0.6902 -0.3436  0.0249
19075TIP3    H178716   6.667   0.835   5.673  0.9481  0.0272 -0.1883
19075TIP3    H278717   6.752   0.757   5.575  0.7487 -0.0323 -0.3136
19076TIP3   OH278718   2.140   3.145  11.943 -0.6069 -0.1001  0.2428
19076TIP3    H178719   2.167   3.056  11.920  1.3685  0.5870 -0.3236
19076TIP3    H278720   2.116   3.140  12.036  0.0993 -1.1157  0.3854
19077TIP3   OH278721   1.428   1.847  13.330 -0.4355 -0.8147 -0.3228
19077TIP3    H178722   1.504   1.793  13.352 -2.0826 -2.1628  2.6134
19077TIP3    H278723   1.374   1.790  13.275 -0.8363 -1.1276  0.3807
19078TIP3   OH278724   4.486   0.254   1.505 -0.3469 -0.3789 -0.2293
19078TIP3    H178725   4.448   0.167   1.512  2.7650 -1.7690  1.3565
19078TIP3    H278726   4.453   0.300   1.583  1.6170 -1.8323  1.5847
19079TIP3   OH278727   2.014   4.816  16.466 -0.2299  0.1357 -0.8366
19079TIP3    H178728   1.998   4.883  16.400 -2.5746 -0.9783 -1.5211
19079TIP3    H278729   1.957   4.839  16.539 -1.1140 -1.0744 -1.1026
19080TIP3   OH278730   4.204   5.253   4.011  0.3577  0.0452  0.3086
19080TIP3    H178731   4.261   5.329   4.018 -0.7105  1.2148 -2.2846
19080TIP3    H278732   4.256   5.180   4.045  2.7796  1.3212 -0.4195
19081TIP3   OH278733   2.241   3.195   5.431 -0.1267  0.4771  0.3244
19081TIP3    H178734   2.303   3.137   5.475 -0.2129  0.1149 -0.0181
19081TIP3    H278735   2.176   3.135   5.393 -0.5647  0.8368  0.4994
19082TIP3   OH278736   3.343   5.025   1.843 -0.1381  0.1095 -0.6086
19082TIP3    H178737   3.437   5.036   1.857 -0.0483 -1.7188  0.6254
19082TIP3    H278738   3.336   4.988   1.755  0.4296 -0.9781 -0.2137
19083TIP3   OH278739   4.975   4.508   1.815  0.6616 -0.3079 -0.4558
19083TIP3    H178740   4.963   4.601   1.831  1.1690  0.0801 -2.1311
19083TIP3    H278741   4.904   4.465   1.863  1.8835  0.6956  2.4812
19084TIP3   OH278742   4.308   1.775   5.165 -0.3041  0.2358 -0.2877
19084TIP3    H178743   4.360   1.698   5.142 -1.7361 -0.9176  0.1361
19084TIP3    H278744   4.349   1.808   5.245  0.2598 -0.1577 -0.4052
19085TIP3   OH278745   5.984   1.292   0.930 -0.0179  0.3807  0.5072
19085TIP3    H178746   5.915   1.341   0.886 -0.8052 -1.3590 -0.3067
19085TIP3    H278747   5.946   1.269   1.015 -0.5869 -0.8090 -0.0470
19086TIP3   OH278748   5.919   1.895  13.348  0.3650  0.6074  0.5676
19086TIP3    H178749   5.891   1.866  13.261  3.2283  0.3273 -0.3536
19086TIP3    H278750   5.884   1.983  13.356 -0.8401  0.2470 -0.4046
19087TIP3   OH278751   0.847   5.557   2.183 -0.0017 -0.3687  0.1269
19087TIP3    H178752   0.919   5.590   2.238 -1.8053  3.4861  0.5461
19087TIP3    H278753   0.779   5.532   2.245 -0.1980 -0.8800 -0.2931
19088TIP3   OH278754   4.396   5.951  15.967 -0.8827  0.3912 -0.3894
19088TIP3    H178755   4.468   5.894  15.942  0.6131  2.5243 -1.2527
19088TIP3    H278756   4.317   5.902  15.945  0.3099 -1.4021 -0.8475
19089TIP3   OH278757   4.551   3.170  17.105  0.0813  0.5085  0.8169
19089TIP3    H178758   4.543   3.164  17.200 -3.9471  1.2752  0.6905
19089TIP3    H278759   4.484   3.111  17.071  2.0871 -0.5195 -1.6547
19090TIP3   OH278760   4.369   3.813   5.849 -0.1965 -0.1908  0.0100
19090TIP3    H178761   4.373   3.745   5.782 -2.2146 -0.0864 -0.2857
19090TIP3    H278762   4.380   3.895   5.801  2.6835 -0.2447  0.4220
19091TIP3   OH278763   0.887   0.786  14.096  0.3927 -0.0085  0.1039
19091TIP3    H178764   0.872   0.755  14.185  0.9575 -1.5455 -0.2919
19091TIP3    H278765   0.878   0.881  14.101 -1.6246 -0.2097  1.3726
19092TIP3   OH278766   1.830   0.577  16.132 -0.0678 -0.2914  0.3088
19092TIP3    H178767   1.794   0.523  16.203  0.2908 -1.3874 -0.3249
19092TIP3    H278768   1.814   0.667  16.160 -0.6382 -0.7205  1.4138
19093TIP3   OH278769   0.055   3.135   2.244  0.3642  0.2411  0.2447
19093TIP3    H178770  -0.016   3.078   2.216  1.5226 -0.6907 -0.9490
19093TIP3    H278771   0.113   3.078   2.295  0.8182  0.7055  0.2550
19094TIP3   OH278772   0.098   1.093   3.118 -0.0159 -0.1026  0.0733
19094TIP3    H178773   0.068   1.138   3.196 -1.4771 -1.6063  0.4381
19094TIP3    H278774   0.182   1.135   3.096 -0.0917  1.0345  1.8123
19095TIP3   OH278775   0.477   4.803   1.124 -0.5349  0.9771 -0.0395
19095TIP3    H178776   0.402   4.758   1.162  1.7548 -1.8705  1.4455
19095TIP3    H278777   0.522   4.843   1.198  0.9249  0.2132 -0.4821
19096TIP3   OH278778   3.346   2.427  12.101  0.0900 -0.7117  0.4656
19096TIP3    H178779   3.305   2.374  12.169 -1.5489 -0.5816 -0.3817
19096TIP3    H278780   3.295   2.409  12.022 -0.3693  1.9126  0.0698
19097TIP3   OH278781   6.184   6.262  11.935  0.7328  0.1064 -0.2431
19097TIP3    H178782   6.130   6.338  11.912  0.8899  0.1344 -0.5357
19097TIP3    H278783   6.137   6.219  12.007  0.2179  0.0219 -0.6173
19098TIP3   OH278784   2.231   3.781   1.662 -0.4393 -0.7464 -0.4102
19098TIP3    H178785   2.193   3.868   1.652  0.8954 -0.0915  0.0524
19098TIP3    H278786   2.166   3.722   1.624 -0.5026  0.6101 -2.5398
19099TIP3   OH278787   0.092   5.561  11.478 -0.1811  0.0744  0.3503
19099TIP3    H178788   0.022   5.621  11.452  0.2093 -0.7093 -2.8948
19099TIP3    H278789   0.046   5.487  11.519 -1.2363 -0.0131 -0.9063
19100TIP3   OH278790   1.475   4.481   1.066  0.2096 -0.5037  0.3049
19100TIP3    H178791   1.443   4.474   0.976 -1.1669 -5.1059  0.8867
19100TIP3    H278792   1.397   4.504   1.117  0.6430  0.5345  0.5193
19101TIP3   OH278793   3.496   5.387   1.953  0.3152  0.7323  0.1619
19101TIP3    H178794   3.545   5.319   1.997  1.1135  1.1388 -0.0840
19101TIP3    H278795   3.431   5.416   2.018  0.7973  0.6129  0.7034
19102TIP3   OH278796   2.075   1.302   5.160 -0.5124 -0.0757  0.3602
19102TIP3    H178797   2.096   1.257   5.242 -0.0916 -0.1725  0.2035
19102TIP3    H278798   2.061   1.393   5.185  2.3340  0.5071  0.2164
19103TIP3   OH278799   3.105   3.500   0.267  0.3393  0.3199  0.4793
19103TIP3    H178800   3.112   3.518   0.360 -0.7806 -2.9562  1.3439
19103TIP3    H278801   3.191   3.524   0.231  1.2304  0.4757  2.5804
19104TIP3   OH278802   0.007   2.444   3.735 -0.1881  0.9509 -0.0504
19104TIP3    H178803  -0.050   2.388   3.683 -0.3079  2.9173 -2.1841
19104TIP3    H278804   0.077   2.386   3.765 -1.6663 -0.8595  0.0911
19105TIP3   OH278805   0.179   1.898  17.036  0.5232 -0.4737  0.6117
19105TIP3    H178806   0.146   1.810  17.054  0.0064 -0.4071  0.0379
19105TIP3    H278807   0.104   1.944  16.997  1.0043 -0.0084  0.2176
19106TIP3   OH278808   3.423   2.564   3.376 -0.0325 -0.5642  0.0505
19106TIP3    H178809   3.414   2.588   3.284  0.4271  0.2326  0.2027
19106TIP3    H278810   3.387   2.639   3.424  0.4177 -0.6484  0.5296
19107TIP3   OH278811   1.977   5.243   3.871 -0.6121  0.1063 -0.2593
19107TIP3    H178812   1.964   5.176   3.937 -1.8103 -0.1693 -0.7577
19107TIP3    H278813   2.023   5.198   3.800 -0.0801  0.1927  0.0270
19108TIP3   OH278814   4.261   2.059   2.163  0.3296 -0.3077  0.0312
19108TIP3    H178815   4.339   2.008   2.184 -0.2971 -1.3423 -0.0786
19108TIP3    H278816   4.194   1.994   2.143 -0.7792  0.5336  0.8397
19109TIP3   OH278817   4.079   1.396  15.022  0.0410  0.6786  0.4470
19109TIP3    H178818   4.059   1.325  14.962  1.5764  0.4575  0.1517
19109TIP3    H278819   4.083   1.355  15.108  1.6642  0.2293  0.1843
19110TIP3   OH278820   1.891   2.163  13.987  0.1495  0.3539  0.6007
19110TIP3    H178821   1.943   2.226  13.938 -1.6387  1.2717 -0.1984
19110TIP3    H278822   1.952   2.128  14.053  2.0507  0.5567 -0.9513
19111TIP3   OH278823   1.295   3.156   5.989 -0.6480  0.6664  0.5069
19111TIP3    H178824   1.211   3.198   6.009 -0.8091  0.5442  0.0872
19111TIP3    H278825   1.280   3.110   5.907  0.1747  1.5988 -0.1839
19112TIP3   OH278826   4.789   4.767   3.701  0.2710  0.1059  0.3213
19112TIP3    H178827   4.854   4.697   3.710 -0.0189 -0.1055  0.8215
19112TIP3    H278828   4.818   4.834   3.763  1.6242  1.2916 -1.5197
19113TIP3   OH278829   6.002   2.260   4.334  0.1293  0.3272  0.9752
19113TIP3    H178830   6.022   2.167   4.346  1.2011  0.2011 -1.2775
19113TIP3    H278831   6.024   2.301   4.418 -1.6910 -1.5840  2.5211
19114TIP3   OH278832   4.257   0.967   3.570 -0.0650 -0.0799 -0.2715
19114TIP3    H178833   4.350   0.946   3.574 -0.1753 -0.3515  1.4511
19114TIP3    H278834   4.239   0.977   3.476  1.3110 -1.7175 -0.7574
19115TIP3   OH278835   2.212   0.871  10.549 -0.3160 -0.4484 -0.2197
19115TIP3    H178836   2.222   0.848  10.641  0.1103  1.8129  0.3417
19115TIP3    H278837   2.280   0.935  10.532 -1.3357  0.3065 -1.6922
19116TIP3   OH278838   2.717   5.851   3.020  0.1157  0.0358 -0.5055
19116TIP3    H178839   2.649   5.829   2.957 -0.7015 -0.9190  0.6682
19116TIP3    H278840   2.788   5.789   3.002  0.3370  0.4631 -1.1565
19117TIP3   OH278841   6.543   3.290  14.980  0.1486  0.4379  0.2184
19117TIP3    H178842   6.522   3.235  14.904  1.7688  2.4154 -1.7805
19117TIP3    H278843   6.621   3.251  15.017  0.1998  0.2919 -0.0395
19118TIP3   OH278844   1.215   6.038   0.609  0.7513 -0.7121 -0.6973
19118TIP3    H178845   1.132   6.076   0.638  0.4284 -0.8292 -1.4463
19118TIP3    H278846   1.270   6.114   0.587  0.5844 -0.6461 -0.8919
19119TIP3   OH278847   0.942   1.502   1.602  0.7661  0.2343  0.2073
19119TIP3    H178848   0.877   1.435   1.625  1.5268 -0.8849 -0.7360
19119TIP3    H278849   0.927   1.518   1.509  1.3004  0.5707  0.1786
19120TIP3   OH278850   2.113   2.591   6.195  0.7866  0.7391  0.4663
19120TIP3    H178851   2.057   2.669   6.198  1.9082  1.7230 -1.6630
19120TIP3    H278852   2.188   2.613   6.250 -0.5008 -0.3209  2.7797
19121TIP3   OH278853   0.734   0.204  13.218 -0.7739 -0.0110 -0.0585
19121TIP3    H178854   0.711   0.135  13.279 -0.0109  0.3765  0.6906
19121TIP3    H278855   0.659   0.209  13.158 -1.6648 -0.2133  1.0016
19122TIP3   OH278856   4.486   6.179   4.872 -0.5280 -0.1120  0.1312
19122TIP3    H178857   4.404   6.214   4.838 -0.0071  0.5312 -0.4811
19122TIP3    H278858   4.547   6.252   4.868  0.0396 -0.5459  0.7214
19123TIP3   OH278859   3.488   4.938   1.098 -0.2118  0.1694  0.2414
19123TIP3    H178860   3.481   4.923   1.004  1.8471 -1.3567  0.2572
19123TIP3    H278861   3.458   5.028   1.110  0.8629  0.9349 -2.1019
19124TIP3   OH278862   0.200   2.587   2.537  0.2564  0.1124  0.2507
19124TIP3    H178863   0.255   2.528   2.485  0.3525 -0.4419  0.9781
19124TIP3    H278864   0.137   2.621   2.474  0.5656 -0.3091 -0.3028
19125TIP3   OH278865   1.529   6.031   5.607  0.5761  1.0293  0.1931
19125TIP3    H178866   1.458   6.031   5.672  2.1365  0.9170  1.9958
19125TIP3    H278867   1.546   6.123   5.590 -1.8326  1.0903 -2.4619
19126TIP3   OH278868   6.257   2.096  14.639 -0.6845 -0.2894  0.3743
19126TIP3    H178869   6.314   2.166  14.670 -1.4824  0.2011  0.7676
19126TIP3    H278870   6.317   2.025  14.616  0.0200 -0.1946  1.8069
19127TIP3   OH278871   5.030   3.605   3.878  0.1202  0.2641 -0.1844
19127TIP3    H178872   5.064   3.684   3.920 -0.3676 -0.9550  2.7229
19127TIP3    H278873   4.964   3.638   3.817 -0.4124  2.1287  1.2714
19128TIP3   OH278874   4.389   4.736  13.515  0.5287 -0.1568  0.3373
19128TIP3    H178875   4.398   4.640  13.516 -0.6429 -0.2724  0.5243
19128TIP3    H278876   4.405   4.761  13.424 -1.4528 -0.7870 -0.2315
19129TIP3   OH278877   3.594   5.987   4.558  0.2142  0.2550  0.3402
19129TIP3    H178878   3.532   6.060   4.553  1.4142  1.2694 -0.3224
19129TIP3    H278879   3.538   5.909   4.557 -1.1254  1.1348  1.4519
19130TIP3   OH278880   6.088   5.382  14.721 -0.2660 -0.0911 -0.2323
19130TIP3    H178881   6.183   5.372  14.714 -0.2106  1.2251 -2.0262
19130TIP3    H278882   6.052   5.318  14.658 -0.4417  1.0612 -1.3358
19131TIP3   OH278883   2.038   3.732  13.785  0.1651 -0.4249  0.1146
19131TIP3    H178884   2.085   3.649  13.776 -1.1005 -1.0083 -1.7441
19131TIP3    H278885   1.987   3.739  13.705 -1.8758  0.8298  1.4391
19132TIP3   OH278886   3.815   1.853  13.823  0.7050  0.1764  0.4004
19132TIP3    H178887   3.777   1.841  13.736  1.2557  0.0203  0.1737
19132TIP3    H278888   3.908   1.873  13.806  1.3578 -2.0878  1.0215
19133TIP3   OH278889   5.163   2.434   0.942  1.5311 -0.0256  0.3496
19133TIP3    H178890   5.143   2.349   0.981  2.2179 -0.4840 -0.2743
19133TIP3    H278891   5.245   2.420   0.895  2.2336  1.2457  1.1172
19134TIP3   OH278892   5.804   6.119  13.879 -0.3348 -0.4084 -0.0878
19134TIP3    H178893   5.757   6.043  13.914 -0.1334  0.2244  1.6579
19134TIP3    H278894   5.873   6.081  13.824 -2.4554 -1.3644 -2.2707
19135TIP3   OH278895   3.627   3.649  12.411 -0.2587 -0.6594 -0.2388
19135TIP3    H178896   3.627   3.630  12.505 -0.5818 -2.9308 -0.6312
19135TIP3    H278897   3.538   3.677  12.392 -0.3092 -0.6051  0.0714
19136TIP3   OH278898   5.141   4.971  11.321 -0.5588  0.0048  0.6371
19136TIP3    H178899   5.212   4.912  11.345 -0.0997 -0.1940 -1.0537
19136TIP3    H278900   5.183   5.038  11.267 -1.2146  1.4540  1.8686
19137TIP3   OH278901   2.914   1.262  15.817 -0.0131 -0.3873  0.0533
19137TIP3    H178902   2.841   1.283  15.875 -1.8778 -0.6871 -2.0990
19137TIP3    H278903   2.951   1.347  15.794 -0.1450 -0.1903  0.5478
19138TIP3   OH278904   6.619   4.414  17.635  0.1941 -0.7345  0.2375
19138TIP3    H178905   6.705   4.418  17.594  0.2302 -0.7300  0.3123
19138TIP3    H278906   6.638   4.412  17.729  0.0739  0.6711  0.3035
19139TIP3   OH278907   6.699   4.795   3.215 -0.0195  0.0255 -0.7894
19139TIP3    H178908   6.679   4.887   3.232  1.5764  0.7472 -2.5094
19139TIP3    H278909   6.633   4.767   3.151 -1.6130 -0.6219  1.0289
19140TIP3   OH278910   2.504   5.634  15.825  0.0952 -0.1340  0.0565
19140TIP3    H178911   2.572   5.598  15.883  0.3601  0.9069  0.4139
19140TIP3    H278912   2.484   5.720  15.862 -2.0971 -0.7693  0.4951
19141TIP3   OH278913   5.305   2.106  12.507 -0.4165 -0.1205 -0.2980
19141TIP3    H178914   5.356   2.182  12.478  0.1571 -1.2278 -2.4093
19141TIP3    H278915   5.284   2.059  12.426 -0.9453 -2.1021  0.9176
19142TIP3   OH278916   0.546   6.400   4.880 -0.3009 -0.1207 -0.5235
19142TIP3    H178917   0.529   6.307   4.892 -0.3398 -0.0762 -0.1995
19142TIP3    H278918   0.461   6.442   4.894 -0.0846  0.0461  0.4011
19143TIP3   OH278919   0.752   4.315  15.542 -0.2387 -0.1073 -0.1399
19143TIP3    H178920   0.778   4.352  15.626  1.3216 -0.1542 -0.5705
19143TIP3    H278921   0.735   4.390  15.485 -0.1138 -0.0728 -0.1303
19144TIP3   OH278922   1.881   3.899  14.573 -0.3891 -0.2577  0.5851
19144TIP3    H178923   1.949   3.962  14.548  0.5063 -1.3780  0.1109
19144TIP3    H278924   1.884   3.896  14.668  0.2815 -0.3611  0.5612
19145TIP3   OH278925   5.165   0.098  15.819 -0.5433 -0.1511  0.0252
19145TIP3    H178926   5.186   0.188  15.794 -0.3609 -0.0252  0.6212
19145TIP3    H278927   5.113   0.065  15.746  1.0775 -0.2192 -1.1398
19146TIP3   OH278928   5.292   0.027  13.585  0.1651  0.1947 -0.0758
19146TIP3    H178929   5.386   0.017  13.592 -0.0645 -1.1440  2.0349
19146TIP3    H278930   5.265  -0.039  13.522  0.2983 -2.3701  2.3696
19147TIP3   OH278931   1.781   0.982   4.334 -0.0863 -0.2203  0.2938
19147TIP3    H178932   1.835   0.914   4.295  1.3860  0.2379  1.4396
19147TIP3    H278933   1.691   0.948   4.327  0.7332 -3.9116  3.6613
19148TIP3   OH278934   5.083   1.701  12.986  0.0396  0.8661  0.5562
19148TIP3    H178935   5.031   1.642  12.931 -1.2919 -0.2786  2.8798
19148TIP3    H278936   5.171   1.696  12.949 -0.8167  0.4752 -1.6580
19149TIP3   OH278937   1.777   5.901   3.151  0.1738 -0.3200  0.0590
19149TIP3    H178938   1.854   5.878   3.099  0.7903  1.5868  0.0142
19149TIP3    H278939   1.734   5.818   3.170  1.1119 -1.2497 -1.6665
19150TIP3   OH278940   3.015   3.467   4.309 -0.1901 -0.4417  0.3574
19150TIP3    H178941   2.921   3.449   4.310 -0.0208 -1.6896 -1.5215
19150TIP3    H278942   3.050   3.417   4.383 -1.1192  1.1371  1.9486
19151TIP3   OH278943   3.116   5.694   5.794 -0.7444  0.1897 -0.4759
19151TIP3    H178944   3.179   5.755   5.754  0.3874 -0.1527  0.7267
19151TIP3    H278945   3.082   5.643   5.721 -1.0620  1.6422 -1.4017
19152TIP3   OH278946   2.227   5.404  15.252 -0.0735 -0.2249  0.0452
19152TIP3    H178947   2.252   5.380  15.341 -1.9471 -0.3205  0.5773
19152TIP3    H278948   2.285   5.478  15.230  1.7259 -1.4305  0.5717
19153TIP3   OH278949   3.401   2.110  14.760 -0.1350 -0.7857 -0.1012
19153TIP3    H178950   3.350   2.055  14.820 -1.8880 -0.0087 -0.8152
19153TIP3    H278951   3.437   2.179  14.817 -4.2260  1.7177 -0.1332
19154TIP3   OH278952   4.111   2.751  12.977  0.4061  0.0823 -0.0309
19154TIP3    H178953   4.129   2.754  12.883  0.5875 -1.3486 -0.0571
19154TIP3    H278954   4.091   2.842  13.000 -1.2291  0.2144 -1.7586
19155TIP3   OH278955   5.821   6.158   0.391  0.4617 -0.3428 -0.3711
19155TIP3    H178956   5.898   6.187   0.343 -0.1375 -0.1044 -1.2097
19155TIP3    H278957   5.802   6.071   0.355 -0.5134  0.2022 -1.2355
19156TIP3   OH278958   5.191   4.634   0.028  0.1629 -0.4832 -0.3378
19156TIP3    H178959   5.192   4.725   0.056 -1.3719 -0.9521  1.4510
19156TIP3    H278960   5.281   4.603   0.042  0.9061  0.9440 -1.7722
19157TIP3   OH278961   1.081   3.740  16.379  0.2785 -0.5343 -0.1625
19157TIP3    H178962   1.127   3.775  16.456  0.5566 -0.8337 -0.1875
19157TIP3    H278963   1.140   3.757  16.306 -0.8293  1.5156 -0.6455
19158TIP3   OH278964   5.240   0.369  15.846 -0.0059  0.3538 -0.1925
19158TIP3    H178965   5.326   0.368  15.888 -0.5376  0.6053  0.9539
19158TIP3    H278966   5.179   0.392  15.917 -1.0380 -0.0186 -0.9316
19159TIP3   OH278967   4.980   4.004   5.078  0.4100  0.6875 -0.6223
19159TIP3    H178968   5.069   4.011   5.043  0.3507 -0.1509 -0.9644
19159TIP3    H278969   4.953   3.914   5.057  0.0920  0.3901  0.9125
19160TIP3   OH278970   0.355   5.901   3.217  0.1760  0.0373 -0.6782
19160TIP3    H178971   0.268   5.939   3.205  0.0076 -0.5594 -1.4206
19160TIP3    H278972   0.359   5.829   3.155  1.7121  0.8963 -1.6605
19161TIP3   OH278973   2.733   4.742   6.153  0.0448  0.2965  0.3662
19161TIP3    H178974   2.829   4.739   6.162 -0.0905  1.2967  3.1772
19161TIP3    H278975   2.709   4.653   6.128  1.5870 -0.6187  1.8637
19162TIP3   OH278976   4.105   0.665  16.548  0.3274 -0.2271  0.0526
19162TIP3    H178977   4.121   0.728  16.477 -0.1346  0.2167  0.3368
19162TIP3    H278978   4.138   0.582  16.514  0.1576 -0.0096 -0.6610
19163TIP3   OH278979   3.797   2.243  15.043 -0.2452 -0.4429  0.4093
19163TIP3    H178980   3.717   2.295  15.044  0.4462  0.6811  1.5926
19163TIP3    H278981   3.867   2.308  15.036  0.5698 -1.4691 -2.1927
19164TIP3   OH278982   4.459   3.647   6.118 -0.9936 -0.3829 -0.0614
19164TIP3    H178983   4.372   3.610   6.133 -1.6734 -0.3751 -3.2310
19164TIP3    H278984   4.451   3.694   6.035  1.7018  0.8581  0.2661
19165TIP3   OH278985   0.565   1.382  17.500  0.1179  0.0699  0.5896
19165TIP3    H178986   0.533   1.298  17.468  0.5286  0.8311 -2.0348
19165TIP3    H278987   0.487   1.425  17.535 -0.4292 -0.6708  0.3076
19166TIP3   OH278988   2.992   0.145  14.621 -0.2973 -0.2015 -0.1148
19166TIP3    H178989   3.014   0.061  14.581 -0.8288 -1.7897  2.7112
19166TIP3    H278990   2.919   0.126  14.680  0.2131  2.0408  1.3692
19167TIP3   OH278991   0.677   0.484  16.118  0.1955 -0.4296  0.2241
19167TIP3    H178992   0.642   0.469  16.030  1.7911 -0.4239 -0.4367
19167TIP3    H278993   0.730   0.407  16.137  0.0597 -0.3254  1.1055
19168TIP3   OH278994   2.867   5.801  15.937 -0.4762 -0.1261 -1.0060
19168TIP3    H178995   2.816   5.720  15.927  1.2236 -1.2142 -1.3214
19168TIP3    H278996   2.945   5.774  15.985 -1.2973  1.9873  1.7807
19169TIP3   OH278997   0.707   2.812   1.779 -0.0395 -0.3606 -0.2379
19169TIP3    H178998   0.613   2.830   1.780  0.3075  1.6464  0.0534
19169TIP3    H278999   0.748   2.898   1.768  1.7877 -1.0909  0.4531
19170TIP3   OH279000   3.224   6.004  14.415 -0.1452 -0.2878  0.1599
19170TIP3    H179001   3.150   6.065  14.416  1.6556  2.0334  0.0964
19170TIP3    H279002   3.261   6.014  14.327  0.6956 -0.8463  0.4473
19171TIP3   OH279003   1.305   5.206  16.616 -1.0136 -0.1646 -0.2077
19171TIP3    H179004   1.290   5.285  16.668 -0.0181 -0.0666 -0.0543
19171TIP3    H279005   1.242   5.142  16.650  1.1594 -0.8910  2.8375
19172TIP3   OH279006   0.585   1.150  12.840  0.6504  0.0996  0.0249
19172TIP3    H179007   0.628   1.177  12.921 -0.6780 -0.6899  1.0493
19172TIP3    H279008   0.495   1.182  12.849  0.0839 -1.2778 -0.4536
19173TIP3   OH279009   3.894   6.609  15.413 -0.0423 -0.9491  0.0463
19173TIP3    H179010   3.957   6.591  15.483 -1.0601 -1.0481  0.9721
19173TIP3    H279011   3.815   6.636  15.460 -0.2044  0.7699 -1.1146
19174TIP3   OH279012   6.324   3.558   0.500  0.1348  0.9109  0.4149
19174TIP3    H179013   6.264   3.621   0.462 -0.3874  0.1751 -0.0009
19174TIP3    H279014   6.398   3.555   0.440  0.5594  1.7615  0.8870
19175TIP3   OH279015   0.505   3.750   4.297 -1.0516 -0.0972 -0.1765
19175TIP3    H179016   0.507   3.744   4.201 -0.7201  0.5681 -0.2155
19175TIP3    H279017   0.441   3.685   4.324  0.0757 -1.5045 -0.7543
19176TIP3   OH279018   2.005   1.797  13.635  0.1833  0.5591  0.0391
19176TIP3    H179019   2.037   1.789  13.725 -0.6596  1.1919  0.4118
19176TIP3    H279020   2.070   1.852  13.591  1.1401 -0.5961 -0.0356
19177TIP3   OH279021   5.647   3.506  11.271 -0.5488  0.1197  0.5525
19177TIP3    H179022   5.675   3.462  11.191  0.4811  2.9993 -0.8430
19177TIP3    H279023   5.560   3.471  11.289 -1.5253  0.4706 -2.8039
19178TIP3   OH279024   5.888   2.323   2.871  0.2519  0.0910  0.2710
19178TIP3    H179025   5.876   2.393   2.807  0.6639  0.2024  0.3158
19178TIP3    H279026   5.973   2.285   2.850 -0.4123 -1.0884 -0.4180
19179TIP3   OH279027   1.707   5.716  11.731  0.2577  0.8866  0.2668
19179TIP3    H179028   1.620   5.742  11.762 -0.3570 -1.2871  0.5509
19179TIP3    H279029   1.705   5.731  11.637  0.5503  3.2863  0.5654
19180TIP3   OH279030   1.566   1.582   0.335  0.2945  0.1212 -0.2245
19180TIP3    H179031   1.637   1.594   0.398 -0.1247 -0.0896  0.2875
19180TIP3    H279032   1.493   1.547   0.386  0.0677 -0.4000 -0.8911
19181TIP3   OH279033   4.544   0.788   0.491  0.0113 -0.0260  0.2973
19181TIP3    H179034   4.583   0.871   0.518  0.3744  0.1479 -0.7330
19181TIP3    H279035   4.498   0.757   0.569  1.4664  0.1887  1.2846
19182TIP3   OH279036   2.470   4.299  15.758  0.1927  0.7937 -0.3611
19182TIP3    H179037   2.426   4.299  15.842 -1.6573  1.7535 -1.2756
19182TIP3    H279038   2.459   4.210  15.725  1.4525  0.2425  0.6329
19183TIP3   OH279039   4.836   4.167   2.282  0.1662  0.4446  0.5134
19183TIP3    H179040   4.771   4.183   2.350  0.5691  1.5960  0.6559
19183TIP3    H279041   4.891   4.097   2.317  0.2801  0.9247  1.3102
19184TIP3   OH279042   0.200   6.616  15.203  0.0461  0.1102  0.3281
19184TIP3    H179043   0.211   6.599  15.297 -0.3652 -0.1295  0.3364
19184TIP3    H279044   0.178   6.709  15.198  0.5275  0.2291  0.4328
19185TIP3   OH279045   3.228   1.368   5.077 -0.1894 -0.2172 -0.5015
19185TIP3    H179046   3.156   1.321   5.120 -0.8457  0.3952 -0.8962
19185TIP3    H279047   3.184   1.438   5.028  0.3735 -1.5952 -3.1961
19186TIP3   OH279048   2.565   3.967   0.747  0.1755  0.4298 -0.2036
19186TIP3    H179049   2.578   4.032   0.679 -1.7260  1.5366  0.4212
19186TIP3    H279050   2.558   4.018   0.828  2.1896 -0.8372  0.8553
19187TIP3   OH279051   5.126   5.274  16.369 -0.6453 -0.8592  0.3015
19187TIP3    H179052   5.148   5.293  16.277 -0.2356 -0.5104  0.4669
19187TIP3    H279053   5.031   5.288  16.374 -0.5060  0.2789  0.1871
19188TIP3   OH279054   3.937   4.525   4.414 -0.3709  0.2682 -0.1789
19188TIP3    H179055   3.985   4.579   4.477 -2.0683  1.6508  0.0124
19188TIP3    H279056   3.989   4.529   4.334 -0.1529  1.7360  0.0158
19189TIP3   OH279057   6.277   1.178   0.962 -0.0934 -0.2996  0.5342
19189TIP3    H179058   6.306   1.097   0.919 -0.5669 -0.0113 -0.3663
19189TIP3    H279059   6.187   1.160   0.987 -0.4067  0.1470 -0.2285
19190TIP3   OH279060   1.980   1.651   2.347  0.3029  0.1410  0.1820
19190TIP3    H179061   1.886   1.661   2.333  0.1179 -0.1148  1.1564
19190TIP3    H279062   1.999   1.704   2.424  1.2219  1.2631 -0.7664
19191TIP3   OH279063   0.372   6.572  11.654  0.0863 -0.2498 -0.1218
19191TIP3    H179064   0.394   6.502  11.717 -1.1328 -1.5096 -1.0357
19191TIP3    H279065   0.341   6.525  11.577  2.2025  1.2275 -1.9947
19192TIP3   OH279066   5.779   3.139   6.937  0.1993  0.2983 -0.0906
19192TIP3    H179067   5.853   3.176   6.985 -1.0689  1.5917  0.9351
19192TIP3    H279068   5.795   3.044   6.939  1.4942  0.5036  0.6581
19193TIP3   OH279069   1.325   5.151  12.346  0.2780 -0.0147 -0.1402
19193TIP3    H179070   1.419   5.154  12.327  0.5716  0.7182  1.2668
19193TIP3    H279071   1.314   5.069  12.395  0.1745 -0.1335 -0.3632
19194TIP3   OH279072   2.233   4.757  17.433  0.2519  1.0874 -0.7136
19194TIP3    H179073   2.193   4.699  17.368  0.9917  0.4224 -0.5967
19194TIP3    H279074   2.159   4.791  17.484 -0.1387 -0.8523  0.1102
19195TIP3   OH279075   2.940   2.308   4.378 -0.5163 -0.0303  0.3754
19195TIP3    H179076   2.937   2.313   4.282 -1.1517  0.7366  0.4224
19195TIP3    H279077   3.030   2.283   4.398  0.2029  1.8490 -0.3492
19196TIP3   OH279078   5.334   2.542  11.156 -0.3907 -0.1166  0.4487
19196TIP3    H179079   5.343   2.493  11.074 -0.6819  1.6814 -0.7120
19196TIP3    H279080   5.255   2.594  11.144 -1.7239 -1.4361  2.8069
19197TIP3   OH279081   3.390   3.583   2.298 -0.4904 -0.5796 -0.0896
19197TIP3    H179082   3.456   3.652   2.286 -0.8857 -0.4449 -1.6136
19197TIP3    H279083   3.317   3.627   2.341  0.0247 -0.5079  0.7305
19198TIP3   OH279084   2.482   4.084  12.002 -0.2191  0.3087 -0.2664
19198TIP3    H179085   2.507   4.003  12.048  0.0680  0.8546  0.5725
19198TIP3    H279086   2.389   4.094  12.020 -0.4366 -0.2249 -1.0169
19199TIP3   OH279087   6.144   4.236   3.039  0.5522 -0.3027 -0.4312
19199TIP3    H179088   6.148   4.187   2.957  0.0389  0.9473 -1.2282
19199TIP3    H279089   6.051   4.234   3.064  0.6302 -0.2712 -0.1369
19200TIP3   OH279090   6.096   1.462   3.533 -0.2904  0.5493 -0.1613
19200TIP3    H179091   6.073   1.374   3.564 -3.2802  1.2123 -0.2290
19200TIP3    H279092   6.074   1.520   3.605 -0.0249  1.4314 -0.7735
19201TIP3   OH279093   4.502   0.812  17.031  0.3590 -0.0772 -0.4104
19201TIP3    H179094   4.579   0.830  17.084 -1.5802 -0.4953  2.7705
19201TIP3    H279095   4.514   0.721  17.002  0.2124 -0.8127  1.7012
19202TIP3   OH279096   1.577   5.136  12.233  0.1129 -0.0840 -0.0637
19202TIP3    H179097   1.667   5.106  12.244 -0.3143 -2.2242 -1.7507
19202TIP3    H279098   1.539   5.075  12.169 -2.7776  0.2191  1.2176
19203TIP3   OH279099   4.501   1.511  12.732 -0.5974 -0.3073  0.6333
19203TIP3    H179100   4.504   1.604  12.755 -2.4856 -0.0998  0.1507
19203TIP3    H279101   4.561   1.503  12.658 -0.1039  0.4372  0.9395
19204TIP3   OH279102   6.713   1.322   0.082  0.1259 -0.5619  0.1604
19204TIP3    H179103   6.684   1.266   0.010  2.2415 -2.7627  0.9119
19204TIP3    H279104   6.660   1.294   0.156  0.1056 -0.4685  0.1812
19205TIP3   OH279105   2.490   4.058   1.430 -0.1361  0.1446 -0.1337
19205TIP3    H179106   2.540   3.992   1.478  2.1883  0.5376 -1.7945
19205TIP3    H279107   2.556   4.102   1.376 -1.7861  3.0287  0.0070
19206TIP3   OH279108   5.292   2.258  16.239  0.2150 -0.8416  0.2361
19206TIP3    H179109   5.280   2.331  16.178 -1.5919 -1.8760 -0.7438
19206TIP3    H279110   5.311   2.183  16.183 -2.6571 -2.0700  0.7309
19207TIP3   OH279111   4.357   0.990   2.751  0.0836  0.3297  0.1589
19207TIP3    H179112   4.274   1.015   2.792  0.2119 -1.9264  2.0665
19207TIP3    H279113   4.424   1.016   2.815  0.4544 -1.5652  0.6131
19208TIP3   OH279114   5.506   0.554  12.674  0.1603 -0.1104  0.1801
19208TIP3    H179115   5.527   0.463  12.652 -0.2257  0.1007 -1.1620
19208TIP3    H279116   5.517   0.559  12.769 -1.3416 -1.9549  0.5090
19209TIP3   OH279117   0.847   1.243  11.727  0.0851  0.1622 -0.2781
19209TIP3    H179118   0.812   1.236  11.638 -0.1590  3.3949 -0.5765
19209TIP3    H279119   0.901   1.165  11.738 -0.2686 -0.5915 -3.0650
19210TIP3   OH279120   0.064   6.093  16.807  0.0663  0.5845 -0.2436
19210TIP3    H179121   0.015   6.063  16.731 -1.2755  2.4719 -0.1950
19210TIP3    H279122   0.000   6.141  16.860  1.0273 -0.3934  1.9571
19211TIP3   OH279123   4.700   2.390  17.013 -0.2893 -0.3431 -0.4294
19211TIP3    H179124   4.748   2.339  16.947 -1.7649 -1.4542 -0.6922
19211TIP3    H279125   4.610   2.392  16.980 -0.1289  3.6095 -1.1389
19212TIP3   OH279126   0.011   5.394   1.200 -0.3727  0.3036  0.1298
19212TIP3    H179127   0.093   5.443   1.193  0.0052 -0.1018  1.5033
19212TIP3    H279128   0.035   5.304   1.180 -0.8131  0.4272 -1.0604
19213TIP3   OH279129   3.194   5.932   4.502  0.1149 -0.4887  0.1433
19213TIP3    H179130   3.253   5.868   4.542  0.7942 -0.2944 -0.5276
19213TIP3    H279131   3.242   6.014   4.506  0.4014 -0.5512 -1.4868
19214TIP3   OH279132   0.414   2.940   1.208 -0.1164  0.3068  0.0220
19214TIP3    H179133   0.469   2.978   1.276  1.6214 -1.6428 -0.2012
19214TIP3    H279134   0.334   2.913   1.254  0.1657  0.8761  0.8664
19215TIP3   OH279135   4.343   2.641  11.148  0.1726 -0.0701  0.3198
19215TIP3    H179136   4.295   2.559  11.142 -0.3620  0.1914  0.8705
19215TIP3    H279137   4.305   2.696  11.080  0.9330 -0.4740 -0.4374
19216TIP3   OH279138   4.967   3.923   0.603 -0.8880 -0.6653 -0.9248
19216TIP3    H179139   5.028   3.852   0.622 -0.0015 -0.2219 -2.0802
19216TIP3    H279140   5.022   3.998   0.582 -1.8276  0.1212 -0.6722
19217TIP3   OH279141   4.343   5.512  12.438  0.0876 -0.0062 -0.0184
19217TIP3    H179142   4.423   5.520  12.388  1.0817  0.2709  1.5336
19217TIP3    H279143   4.301   5.597  12.431 -1.0094 -0.6622 -2.2596
19218TIP3   OH279144   6.480   5.584  12.999 -0.1259  0.2843  0.6400
19218TIP3    H179145   6.424   5.515  13.032 -0.5031  1.4888  2.6430
19218TIP3    H279146   6.519   5.547  12.919 -2.4741 -1.1597  0.0782
19219TIP3   OH279147   0.970   0.948   1.440  0.1870 -0.0681  0.3488
19219TIP3    H179148   0.961   1.028   1.387 -1.6728  0.2507  1.0568
19219TIP3    H279149   0.954   0.978   1.530 -1.0843 -1.2928  0.5687
19220TIP3   OH279150   3.068   4.220  15.832  0.8399  0.9345  0.1882
19220TIP3    H179151   3.121   4.241  15.755  2.2564 -1.2333  0.4790
19220TIP3    H279152   2.978   4.215  15.799  1.4223 -0.0282 -1.3804
19221TIP3   OH279153   6.398   2.594  15.703 -0.5067  0.1431 -0.2376
19221TIP3    H179154   6.427   2.635  15.621  1.3904 -1.8812 -0.6619
19221TIP3    H279155   6.358   2.512  15.675  0.0793 -0.5238  0.8359
19222TIP3   OH279156   3.899   0.699   3.980 -0.1499  0.2999  0.3143
19222TIP3    H179157   3.983   0.708   3.934  0.2410 -1.0213  0.7013
19222TIP3    H279158   3.834   0.691   3.910 -0.1702  2.5793 -0.0120
19223TIP3   OH279159   6.190   2.425   4.868  0.0687  0.0853 -0.2344
19223TIP3    H179160   6.183   2.449   4.776  0.7063 -0.9338 -0.5694
19223TIP3    H279161   6.160   2.334   4.872  2.2546 -0.6954  0.1203
19224TIP3   OH279162   5.592   0.036  13.577  0.0084  0.0508 -0.2396
19224TIP3    H179163   5.654  -0.023  13.620 -0.7807  0.3098  1.3259
19224TIP3    H279164   5.602   0.016  13.484  1.3335 -0.9882  0.0793
19225TIP3   OH279165   3.062   4.529   1.612 -0.3524  0.2566 -0.0718
19225TIP3    H179166   3.138   4.563   1.566  0.0134 -1.4112 -0.7947
19225TIP3    H279167   3.089   4.442   1.641 -1.6154  0.0735  0.6429
19226TIP3   OH279168   3.100   2.327  17.189 -0.2216 -0.7725 -0.1627
19226TIP3    H179169   3.140   2.413  17.206 -1.6183  0.0676 -0.9142
19226TIP3    H279170   3.089   2.324  17.094 -1.9781 -0.9125  0.0080
19227TIP3   OH279171   0.428   2.183  15.840  0.4861  0.6707  0.0347
19227TIP3    H179172   0.428   2.162  15.933  0.8868 -1.8307 -0.4483
19227TIP3    H279173   0.399   2.102  15.797  1.0779  1.4921 -2.0566
19228TIP3   OH279174   2.173   3.657   5.846 -0.0554  0.4219 -0.6603
19228TIP3    H179175   2.218   3.657   5.930 -0.5321  0.1931 -0.3996
19228TIP3    H279176   2.206   3.579   5.801  0.3029  0.6216 -0.7403
19229TIP3   OH279177   3.817   5.631   6.473 -0.8637 -0.0350  0.0914
19229TIP3    H179178   3.867   5.689   6.530  0.5407  0.0205 -1.1316
19229TIP3    H279179   3.793   5.557   6.529  1.1044 -0.3359  0.6328
19230TIP3   OH279180   6.700   4.644   5.796  0.1526 -0.5791 -0.1682
19230TIP3    H179181   6.770   4.678   5.740 -0.0797 -0.9783 -0.7058
19230TIP3    H279182   6.713   4.689   5.880  0.6760 -0.1884 -0.4506
19231TIP3   OH279183   5.738   4.353  13.097  0.4719  0.1059  0.2994
19231TIP3    H179184   5.728   4.262  13.070  0.1737 -0.6870  2.8233
19231TIP3    H279185   5.797   4.349  13.173  2.0557  2.2627 -0.7045
19232TIP3   OH279186   4.508   2.315  16.533 -0.1104  0.8186  0.0736
19232TIP3    H179187   4.599   2.347  16.537 -0.0527  0.6067  0.4759
19232TIP3    H279188   4.516   2.226  16.501 -0.0721  0.3770  1.2759
19233TIP3   OH279189   4.373   6.638  16.954  0.0945 -0.2510  0.2443
19233TIP3    H179190   4.307   6.701  16.924 -0.5011 -0.9139  0.1426
19233TIP3    H279191   4.456   6.674  16.922 -0.3419 -0.0470 -0.7063
19234TIP3   OH279192   2.044   5.098   4.333 -0.4492 -0.2262  0.0357
19234TIP3    H179193   2.012   5.014   4.301  0.4207 -0.1014 -1.2581
19234TIP3    H279194   1.966   5.154   4.335 -0.8502 -0.7737 -0.1056
19235TIP3   OH279195   2.641   3.417  15.277  0.4701 -0.7451 -0.2766
19235TIP3    H179196   2.546   3.422  15.277  0.5100  1.3352  1.6287
19235TIP3    H279197   2.668   3.475  15.205  0.2848  1.9482  1.6874
19236TIP3   OH279198   2.739   1.001  15.351 -0.3695  0.3048  0.1895
19236TIP3    H179199   2.809   1.015  15.415  0.4345 -1.4278 -0.2567
19236TIP3    H279200   2.662   1.041  15.392  0.7944  2.1329  0.7599
19237TIP3   OH279201   0.360   0.181   2.567 -0.5563  0.4715 -0.5014
19237TIP3    H179202   0.416   0.178   2.490 -0.0044 -0.1388 -0.0909
19237TIP3    H279203   0.278   0.140   2.540 -0.3454  0.2086 -0.7387
19238TIP3   OH279204   0.568   1.475   4.164  0.1319  0.9094 -0.3953
19238TIP3    H179205   0.638   1.411   4.179  0.9157  1.6944 -0.6016
19238TIP3    H279206   0.597   1.553   4.211 -0.2433  1.4865 -1.1077
19239TIP3   OH279207   3.702   6.618  13.144 -0.1108  0.0270 -0.6010
19239TIP3    H179208   3.792   6.587  13.138 -0.1502 -0.2611  0.2764
19239TIP3    H279209   3.705   6.705  13.103  1.1902  1.2709  1.9124
19240TIP3   OH279210   6.559   0.303  15.110  0.2526 -0.1931  0.8811
19240TIP3    H179211   6.502   0.353  15.168 -0.3872  0.1159 -0.0014
19240TIP3    H279212   6.502   0.237  15.071  0.2769  0.6157 -0.6104
19241TIP3   OH279213   3.384   0.852   5.660 -0.6093  0.1220 -0.0637
19241TIP3    H179214   3.389   0.915   5.588 -2.8511 -0.5287 -0.8748
19241TIP3    H279215   3.407   0.768   5.620 -1.0030 -0.1047  0.1769
19242TIP3   OH279216   1.965   5.646   5.789 -0.4146 -0.0501 -0.3384
19242TIP3    H179217   1.886   5.695   5.766 -1.5494 -0.9127  1.4368
19242TIP3    H279218   2.034   5.712   5.792 -1.6196  1.2445  0.6364
19243TIP3   OH279219   2.841   0.220   2.221  1.1145  0.3303  0.2963
19243TIP3    H179220   2.854   0.139   2.271  0.5155 -0.5230 -0.8819
19243TIP3    H279221   2.801   0.191   2.139  0.9443  1.8282 -0.1722
19244TIP3   OH279222   5.312   0.030   3.841 -0.7670 -0.4618  0.6729
19244TIP3    H179223   5.283  -0.002   3.755  0.1835  0.2487  0.0706
19244TIP3    H279224   5.241   0.087   3.871 -1.5497 -1.4820  0.8280
19245TIP3   OH279225   1.476   2.238   0.626 -0.1622  0.8453 -0.0017
19245TIP3    H179226   1.568   2.266   0.619  0.1548  0.5500  2.1294
19245TIP3    H279227   1.480   2.158   0.678 -1.5497  0.0507 -1.0597
19246TIP3   OH279228   5.971   1.145  13.551 -0.0885  0.0892 -0.1076
19246TIP3    H179229   5.992   1.052  13.544  2.6261  0.7812 -2.8993
19246TIP3    H279230   6.037   1.189  13.498 -1.2282  3.6642  1.1726
19247TIP3   OH279231   2.585   1.188   6.026  0.7787  0.1570 -0.3723
19247TIP3    H179232   2.594   1.269   5.975  1.3553 -0.3409 -1.0992
19247TIP3    H279233   2.574   1.120   5.959  1.4829 -0.5028  0.1637
19248TIP3   OH279234   4.733   1.178   1.839 -0.2753  0.1993 -0.4133
19248TIP3    H179235   4.799   1.110   1.852 -0.4789  0.1935  0.6694
19248TIP3    H279236   4.688   1.185   1.923 -1.0202  0.8765 -0.8482
19249TIP3   OH279237   0.542   2.476   4.089  0.4350 -0.1528  0.6060
19249TIP3    H179238   0.587   2.427   4.021  0.2594  0.6175 -0.0817
19249TIP3    H279239   0.607   2.484   4.159  2.0234  2.2595 -0.9668
19250TIP3   OH279240   4.304   0.443  14.015 -0.7267  0.9992  0.1640
19250TIP3    H179241   4.252   0.372  14.051 -0.8843  1.0198 -0.0273
19250TIP3    H279242   4.273   0.522  14.061  0.4868  0.7493  1.5019
19251TIP3   OH279243   4.399   3.815   6.897 -0.2544 -0.6829  0.2208
19251TIP3    H179244   4.350   3.734   6.909  0.5212 -1.0558  0.9197
19251TIP3    H279245   4.348   3.881   6.944  0.4813 -1.2939  1.9557
19252TIP3   OH279246   6.309   1.355  15.317 -0.5383  0.1304  0.1156
19252TIP3    H179247   6.242   1.417  15.349 -1.8653 -1.6743  1.0053
19252TIP3    H279248   6.347   1.319  15.397  0.8162  0.3845 -0.3990
19253TIP3   OH279249   2.154   4.006   2.012 -0.5903  0.4092  0.0333
19253TIP3    H179250   2.239   4.046   2.032 -1.5528  1.2211  2.8669
19253TIP3    H279251   2.122   4.056   1.936  1.2634  0.2993 -0.8821
19254TIP3   OH279252   0.180   1.363   1.505 -0.1297  0.3015 -0.2462
19254TIP3    H179253   0.166   1.435   1.567 -1.8377  0.0820 -0.3538
19254TIP3    H279254   0.164   1.284   1.557 -1.7018  0.1193 -0.9810
19255TIP3   OH279255   4.603   3.029   5.041 -0.2755 -0.2292  0.4166
19255TIP3    H179256   4.620   3.119   5.015 -0.5955 -0.5434 -0.9755
19255TIP3    H279257   4.538   3.036   5.111  0.0807  0.6308  0.6772
19256TIP3   OH279258   0.751   5.499  15.523  0.3139 -0.2083 -0.2100
19256TIP3    H179259   0.779   5.524  15.435 -0.1556 -0.4958 -0.4450
19256TIP3    H279260   0.657   5.482  15.514  0.3797 -0.8148  0.2218
19257TIP3   OH279261   1.088   5.956  16.580 -0.4128 -0.0560 -0.5480
19257TIP3    H179262   0.999   5.984  16.600 -0.3507 -0.6769  0.7268
19257TIP3    H279263   1.080   5.862  16.566  0.1984 -0.3353  0.7943
19258TIP3   OH279264   3.939   2.136  15.264  0.1498 -0.1315  0.3862
19258TIP3    H179265   3.982   2.216  15.233 -1.6650  1.6725  2.2004
19258TIP3    H279266   3.859   2.130  15.211  1.2399 -1.9995 -1.1727
19259TIP3   OH279267   3.256   1.396  15.866  0.1090  0.3280 -0.2990
19259TIP3    H179268   3.235   1.364  15.954  1.3410 -0.7279 -0.3512
19259TIP3    H279269   3.221   1.485  15.863  1.1745  0.8647  1.7320
19260TIP3   OH279270   5.090   6.282  14.612  0.0179 -0.0059 -0.3624
19260TIP3    H179271   5.101   6.252  14.522 -0.4480 -1.1529 -0.0510
19260TIP3    H279272   5.157   6.235  14.661 -1.7446 -1.8490  0.4044
19261TIP3   OH279273   1.276   4.649  12.766 -0.3859  0.4277  0.2535
19261TIP3    H179274   1.231   4.583  12.820 -1.5854  1.0487  0.0593
19261TIP3    H279275   1.320   4.598  12.698 -0.1406 -0.2588  0.9031
19262TIP3   OH279276   5.824   6.130   4.824  0.1801 -0.1068  0.5354
19262TIP3    H179277   5.863   6.082   4.896 -0.0534 -1.3361 -0.1275
19262TIP3    H279278   5.773   6.064   4.776  0.4951  0.6267 -0.8641
19263TIP3   OH279279   1.035   3.916   2.215 -0.5296 -0.3975 -0.6743
19263TIP3    H179280   1.021   3.987   2.153  1.3407  1.2272  0.6452
19263TIP3    H279281   1.105   3.947   2.272 -1.5715 -2.1524  1.7322
19264TIP3   OH279282   0.074   3.417   2.968  0.9802  0.0153  0.3343
19264TIP3    H179283   0.163   3.410   3.004  1.5445  1.2431 -0.7524
19264TIP3    H279284   0.063   3.510   2.949 -1.0659  0.0948  1.6772
19265TIP3   OH279285   2.800   0.339   6.637  0.1324  0.2430 -0.1117
19265TIP3    H179286   2.748   0.386   6.703 -0.5802  0.9164 -1.1259
19265TIP3    H279287   2.768   0.249   6.640 -0.0017  0.3030  0.3478
19266TIP3   OH279288   5.013   1.126  12.921  0.1257 -0.2531 -0.1634
19266TIP3    H179289   4.939   1.073  12.949  0.5700  0.2140  2.1189
19266TIP3    H279290   4.986   1.216  12.940  1.5324 -0.1329  1.4764
19267TIP3   OH279291   4.832   0.656  12.606 -0.3495  0.2106  0.4353
19267TIP3    H179292   4.845   0.633  12.514  2.1324  0.4232  0.6616
19267TIP3    H279293   4.921   0.668  12.640 -1.2334  0.6842  2.7270
19268TIP3   OH279294   4.183   0.634   2.129  0.2587 -0.4486 -0.3810
19268TIP3    H179295   4.139   0.694   2.070  2.1137  0.8128 -0.5872
19268TIP3    H279296   4.234   0.577   2.072  0.5468 -0.5007 -0.0779
19269TIP3   OH279297   1.224   1.376  14.469 -0.3385 -0.0669 -0.0423
19269TIP3    H179298   1.214   1.377  14.565  0.9930 -1.5138  0.1413
19269TIP3    H279299   1.285   1.447  14.451  0.7296 -0.8589  0.3787
19270TIP3   OH279300   1.662   2.457  11.913 -0.1583  0.1299  0.2744
19270TIP3    H179301   1.739   2.494  11.955  0.0391 -0.6286  0.5750
19270TIP3    H279302   1.603   2.434  11.985  0.2569 -1.3474  0.1691
19271TIP3   OH279303   3.702   1.825   6.308  0.3520  0.4150 -0.0141
19271TIP3    H179304   3.748   1.896   6.353  0.5431  0.1839  0.1590
19271TIP3    H279305   3.762   1.798   6.239  0.6361 -0.1240  0.4346
19272TIP3   OH279306   6.101   1.535  13.062  0.1108  1.0277 -0.3445
19272TIP3    H179307   6.041   1.599  13.099  2.4244  3.0416  0.1364
19272TIP3    H279308   6.131   1.574  12.980  2.4906  1.2265  0.5367
19273TIP3   OH279309   0.971   4.421  16.889 -0.1514  0.2432  0.1128
19273TIP3    H179310   1.053   4.470  16.897  1.7519 -2.3886 -1.6419
19273TIP3    H279311   0.919   4.470  16.825  0.7766  1.0695 -0.0225
19274TIP3   OH279312   1.954   1.385   2.723  0.1363 -0.4715  0.4260
19274TIP3    H179313   1.874   1.412   2.679 -0.1019  1.3836  1.8683
19274TIP3    H279314   2.010   1.463   2.722  1.4108 -1.3452  0.5981
19275TIP3   OH279315   4.086   5.538  11.522 -0.4712 -0.0323  0.6396
19275TIP3    H179316   3.997   5.541  11.557 -0.4782  0.9663  0.5783
19275TIP3    H279317   4.074   5.524  11.428 -0.6366  1.3650  0.4295
19276TIP3   OH279318   6.418   6.428  16.406 -0.6312 -0.1642  0.5468
19276TIP3    H179319   6.511   6.412  16.391 -0.2462  2.3812 -0.3137
19276TIP3    H279320   6.397   6.380  16.486  1.9467  0.8564  1.9331
19277TIP3   OH279321   2.140   6.176   5.262  0.2113 -0.2982 -0.3648
19277TIP3    H179322   2.152   6.251   5.320  0.7610 -0.6452 -0.0141
19277TIP3    H279323   2.118   6.214   5.177  3.5143  0.4659 -1.0344
19278TIP3   OH279324   1.697   3.022  14.531 -0.4055 -0.1998 -0.2238
19278TIP3    H179325   1.639   2.946  14.542 -4.8807  3.0726  2.1426
19278TIP3    H279326   1.674   3.056  14.444 -1.5388  0.6345  0.3786
19279TIP3   OH279327   2.943   4.125   4.902 -0.0567 -0.2784 -0.1430
19279TIP3    H179328   2.987   4.056   4.952  0.0534 -1.0085 -1.2200
19279TIP3    H279329   2.878   4.160   4.963 -2.2748 -3.4203 -0.4133
19280TIP3   OH279330   4.708   3.499   0.064 -0.5488 -0.2770  0.3712
19280TIP3    H179331   4.754   3.521   0.145  3.0115  0.1614 -1.5901
19280TIP3    H279332   4.776   3.465   0.006 -3.1345 -1.6183 -2.1230
19281TIP3   OH279333   6.665   0.233   5.334 -0.4360  0.0187 -0.4353
19281TIP3    H179334   6.608   0.173   5.285 -0.5937 -1.1558  1.0973
19281TIP3    H279335   6.636   0.224   5.425  1.7017 -0.0270  0.2879
19282TIP3   OH279336   5.212   5.913   4.371  0.4112 -0.3627  0.1157
19282TIP3    H179337   5.273   5.976   4.333  0.8278 -2.3129 -2.7821
19282TIP3    H279338   5.207   5.843   4.306 -3.8752 -0.9769  0.8286
19283TIP3   OH279339   3.001   5.598  14.727  0.1908  0.3143 -0.2839
19283TIP3    H179340   3.031   5.673  14.779 -1.6882  1.4158 -0.6808
19283TIP3    H279341   2.950   5.638  14.656 -2.2109 -1.3754  0.3661
19284TIP3   OH279342   5.377   0.979   0.859 -0.7434 -0.0023 -0.4233
19284TIP3    H179343   5.446   1.045   0.844  1.2480 -1.7991  0.2604
19284TIP3    H279344   5.405   0.904   0.806 -1.2656 -1.3826  1.1799
19285TIP3   OH279345   3.344   4.187   0.526 -0.3570 -0.4937 -0.2054
19285TIP3    H179346   3.419   4.183   0.586 -0.2805  1.3038 -0.1369
19285TIP3    H279347   3.367   4.125   0.456  0.4082 -1.2207  0.6585
19286TIP3   OH279348   1.185   5.837  17.095  0.8381 -0.1502 -0.0619
19286TIP3    H179349   1.271   5.879  17.089  0.8631 -0.3207 -1.1411
19286TIP3    H279350   1.159   5.848  17.186  1.6393  0.6356  0.0874
19287TIP3   OH279351   0.769   4.574  15.372 -0.0827 -0.9953 -0.3281
19287TIP3    H179352   0.838   4.561  15.307  0.8789  0.7429  0.2817
19287TIP3    H279353   0.760   4.669  15.380  1.6041 -0.9593  3.7992
19288TIP3   OH279354   4.174   5.774   6.392  0.5885  0.3102  0.6043
19288TIP3    H179355   4.167   5.752   6.299  1.2277  1.3826  0.2775
19288TIP3    H279356   4.209   5.863   6.392 -0.1891  0.6383  1.8638
19289TIP3   OH279357   2.499   5.450  16.959 -0.0635 -0.4827 -0.5348
19289TIP3    H179358   2.505   5.356  16.976  0.5479 -0.1495  1.3403
19289TIP3    H279359   2.586   5.475  16.929 -0.1290 -0.4456 -0.6975
19290TIP3   OH279360   0.071   4.658  17.479  0.1439  0.3410 -0.0927
19290TIP3    H179361   0.153   4.692  17.444  2.7969 -1.7474  3.4936
19290TIP3    H279362   0.040   4.727  17.538 -0.1766  0.7217 -0.6965
19291TIP3   OH279363   2.694   1.725   5.160 -0.3694 -0.0820  0.1656
19291TIP3    H179364   2.749   1.702   5.085 -1.9347 -2.0429 -0.4779
19291TIP3    H279365   2.614   1.759   5.120 -0.5583  0.4670  1.0050
19292TIP3   OH279366   3.259   2.898  16.638 -0.3219  0.1742 -0.2945
19292TIP3    H179367   3.296   2.970  16.690 -1.5954  0.1477  0.6987
19292TIP3    H279368   3.210   2.941  16.569  1.3755  0.2101 -1.5424
19293TIP3   OH279369   5.424   2.030   3.254  0.2089 -0.2533  0.2256
19293TIP3    H179370   5.412   2.065   3.342 -1.0353 -0.1109  0.0173
19293TIP3    H279371   5.464   1.944   3.267  0.8693  0.1401  0.8709
19294TIP3   OH279372   1.962   1.707   2.051 -0.2233 -0.2462 -0.4212
19294TIP3    H179373   2.044   1.756   2.053 -0.5044  0.2746 -1.1982
19294TIP3    H279374   1.964   1.654   2.130  0.3043  0.6777  0.2056
19295TIP3   OH279375   5.641   3.335  13.393  0.1786 -0.0070 -0.0122
19295TIP3    H179376   5.707   3.284  13.348 -0.9356 -0.8110 -0.7995
19295TIP3    H279377   5.668   3.426  13.382  0.3032 -0.2265 -1.7329
19296TIP3   OH279378   0.321   3.626  17.059 -0.2251  0.1662  0.5012
19296TIP3    H179379   0.251   3.595  17.117 -2.2969  1.2501 -1.2655
19296TIP3    H279380   0.287   3.708  17.023  2.7729  1.6922  0.9160
19297TIP3   OH279381   0.814   1.666   2.828 -0.6761  0.7482 -0.3101
19297TIP3    H179382   0.773   1.638   2.909 -0.6003  0.6253 -0.3144
19297TIP3    H279383   0.751   1.643   2.760 -0.6731  0.7125 -0.3008
19298TIP3   OH279384   5.663   5.616   1.262  0.0792 -0.4960 -0.5700
19298TIP3    H179385   5.603   5.681   1.300  0.4003 -0.7861  0.4802
19298TIP3    H279386   5.740   5.667   1.237  0.0214 -0.3553 -0.4612
19299TIP3   OH279387   4.955   0.260  17.046  0.0054  0.1538 -0.3968
19299TIP3    H179388   4.919   0.183  17.089 -1.1452  1.1991  0.5765
19299TIP3    H279389   4.923   0.334  17.098  1.7896  1.2564 -0.7798
19300TIP3   OH279390   5.008   1.177  16.095 -0.1457  0.1923  0.3057
19300TIP3    H179391   4.952   1.226  16.034  0.9679 -0.7577 -1.5823
19300TIP3    H279392   4.950   1.112  16.134 -1.0240  1.2239  0.7697
19301TIP3   OH279393   4.255   4.749   1.699 -0.4238  0.5335 -0.1502
19301TIP3    H179394   4.224   4.748   1.790  0.3801  1.4409  0.1556
19301TIP3    H279395   4.248   4.658   1.671 -3.3733  0.6759 -0.1525
19302TIP3   OH279396   3.529   5.497   2.521  0.1391 -0.8094  0.0355
19302TIP3    H179397   3.571   5.543   2.593  1.1924  0.4218 -1.2880
19302TIP3    H279398   3.593   5.433   2.492  0.3303 -0.3183 -0.6840
19303TIP3   OH279399   6.540   5.270  14.426 -0.1631  0.3565  0.4634
19303TIP3    H179400   6.634   5.251  14.429 -0.2208  0.0776  0.5283
19303TIP3    H279401   6.501   5.210  14.490 -0.5179 -0.3467 -0.3752
19304TIP3   OH279402   3.735   2.766  15.039  0.0372 -0.0221  0.7594
19304TIP3    H179403   3.814   2.796  15.083  0.6771  0.8170 -0.8738
19304TIP3    H279404   3.675   2.841  15.045  0.5189  0.5067 -0.6696
19305TIP3   OH279405   6.696   0.948  15.651 -0.3005 -0.2008 -0.4998
19305TIP3    H179406   6.638   0.875  15.630  0.3244 -0.6226 -0.8168
19305TIP3    H279407   6.713   0.939  15.745 -0.3058 -0.4096 -0.5164
19306TIP3   OH279408   5.006   3.784   5.791 -0.3228  0.2791 -0.0081
19306TIP3    H179409   4.939   3.837   5.749  1.1002  1.6951 -0.5852
19306TIP3    H279410   4.961   3.746   5.867 -1.7740  1.1735 -0.3640
19307TIP3   OH279411   0.791   6.384   0.463  0.3658  0.1197  0.1443
19307TIP3    H179412   0.886   6.387   0.467  0.3350  0.3990  0.8403
19307TIP3    H279413   0.770   6.401   0.371  1.0173 -1.0812 -0.2358
19308TIP3   OH279414   3.361   4.864   5.691 -0.2418  0.0283 -0.0367
19308TIP3    H179415   3.384   4.934   5.630 -1.1928 -0.2897 -0.7973
19308TIP3    H279416   3.444   4.822   5.712  0.2930  1.1716  0.1758
19309TIP3   OH279417   1.789   0.123   1.020 -0.1429  0.1447  0.1457
19309TIP3    H179418   1.802   0.149   0.929 -1.5277 -0.7836 -0.3485
19309TIP3    H279419   1.698   0.147   1.039  0.1356  0.3584  1.3077
19310TIP3   OH279420   6.612   5.665  16.321  0.0303 -0.4778 -0.2512
19310TIP3    H179421   6.546   5.734  16.331  1.4096  0.6987  1.1937
19310TIP3    H279422   6.565   5.593  16.279 -2.1545  0.3283  0.6844
19311TIP3   OH279423   4.318   1.439   1.859  0.1800  0.2403 -0.3907
19311TIP3    H179424   4.348   1.463   1.771  1.8362 -2.3799 -0.6445
19311TIP3    H279425   4.398   1.432   1.911 -0.6996  0.8231  1.1196
19312TIP3   OH279426   0.622   1.751   4.270  0.0272 -0.1277  0.2805
19312TIP3    H179427   0.683   1.695   4.317 -1.5068 -0.5506  1.8726
19312TIP3    H279428   0.678   1.809   4.218  1.7561 -0.6336  1.4859
19313TIP3   OH279429   1.591   5.933  11.997  0.5224  0.4128 -0.4814
19313TIP3    H179430   1.614   5.975  12.079  1.6299  0.5286 -0.8413
19313TIP3    H279431   1.625   5.844  12.005 -0.7776 -0.0928 -0.1951
19314TIP3   OH279432   2.281   2.661   5.018  0.7666  0.1620 -0.2841
19314TIP3    H179433   2.373   2.636   5.021  0.6264 -0.2504  0.9629
19314TIP3    H279434   2.242   2.603   4.952  0.9796 -1.1368  0.6930
19315TIP3   OH279435   0.086   2.843   6.120  0.1439 -0.4410  0.0881
19315TIP3    H179436   0.172   2.882   6.108 -0.6467  0.9603 -1.4595
19315TIP3    H279437   0.079   2.779   6.049 -1.0575  1.3722 -1.5389
19316TIP3   OH279438   2.028   4.192  13.985  0.3479 -0.2101 -0.4276
19316TIP3    H179439   2.032   4.193  14.081  2.3277 -1.2448 -0.4509
19316TIP3    H279440   1.995   4.105  13.964 -1.6321  0.5551 -0.7174
19317TIP3   OH279441   2.162   0.133  16.228  0.4906  0.8663 -0.0283
19317TIP3    H179442   2.177   0.046  16.265  0.3221  1.4192  1.3969
19317TIP3    H279443   2.068   0.148  16.237  0.6416  1.5243  0.4886
19318TIP3   OH279444   4.413   1.600   2.495 -0.3830 -0.4797 -0.5170
19318TIP3    H179445   4.402   1.568   2.406 -1.1269 -0.6048 -0.3902
19318TIP3    H279446   4.323   1.604   2.530 -0.2004  0.6371 -0.1474
19319TIP3   OH279447   4.799   6.628   3.386  0.1716 -0.3981  0.2310
19319TIP3    H179448   4.852   6.549   3.402  0.7488  0.1151  0.9013
19319TIP3    H279449   4.862   6.700   3.389 -0.7416  0.3914  2.5822
19320TIP3   OH279450   4.403   4.070   5.078  0.1701 -0.2635 -0.6936
19320TIP3    H179451   4.437   4.016   5.150 -1.1027 -0.5755 -0.2974
19320TIP3    H279452   4.315   4.093   5.106  0.1693  0.8009 -1.5366
19321TIP3   OH279453   4.119   4.856   5.074 -0.7801  0.3589 -0.3516
19321TIP3    H179454   4.097   4.949   5.087 -1.2638 -0.0804  2.9100
19321TIP3    H279455   4.037   4.810   5.092  0.1989 -0.8033  1.4184
19322TIP3   OH279456   6.491   2.018  11.390  0.0167 -0.6379  0.6241
19322TIP3    H179457   6.586   2.028  11.386 -0.0776  0.0404 -0.4221
19322TIP3    H279458   6.475   1.931  11.353  0.1638 -0.1976 -0.5334
19323TIP3   OH279459   0.549   6.300  15.129 -0.3149  0.0600  0.3036
19323TIP3    H179460   0.465   6.259  15.109 -1.2903  1.8207  0.5939
19323TIP3    H279461   0.614   6.239  15.094 -1.7502 -0.5729 -1.4451
19324TIP3   OH279462   3.739   5.777  13.287  0.0773  0.0158  0.2570
19324TIP3    H179463   3.811   5.819  13.335 -0.7983  0.7358  0.9699
19324TIP3    H279464   3.661   5.825  13.314 -0.9347 -1.8773  0.8617
19325TIP3   OH279465   6.734   5.706  13.104  0.3344 -0.2004 -0.3533
19325TIP3    H179466   6.782   5.759  13.041 -0.3504 -0.4480 -1.1076
19325TIP3    H279467   6.656   5.677  13.056 -3.5727  4.5661  2.2249
19326TIP3   OH279468   3.923   0.266   5.977  0.4034  0.6833 -0.5698
19326TIP3    H179469   3.898   0.177   6.001  1.0970  0.6704  0.1741
19326TIP3    H279470   3.911   0.270   5.882  1.1659 -0.4762 -0.7358
19327TIP3   OH279471   2.448   2.190  15.363 -0.0759 -0.3969 -0.5013
19327TIP3    H179472   2.475   2.199  15.455 -4.1177 -1.5012  1.0282
19327TIP3    H279473   2.400   2.271  15.344 -0.7946 -0.9226 -0.9918
19328TIP3   OH279474   0.142   1.782   2.915  0.4804 -0.8169 -0.2682
19328TIP3    H179475   0.222   1.732   2.929  1.2705  0.8853  2.2081
19328TIP3    H279476   0.169   1.873   2.927 -1.4814 -0.0333 -1.3429
19329TIP3   OH279477   3.668   4.568  16.619  0.1329 -0.5742 -0.4808
19329TIP3    H179478   3.751   4.571  16.666 -0.6071  3.5469  1.0054
19329TIP3    H279479   3.605   4.531  16.681  0.4264 -1.6935 -0.8348
19330TIP3   OH279480   0.941   4.501  15.000 -0.3755 -0.3970 -0.5892
19330TIP3    H179481   1.004   4.523  14.931 -0.7611  0.1782 -0.7630
19330TIP3    H279482   0.969   4.415  15.031  2.1873  0.9657  1.2360
19331TIP3   OH279483   5.251   0.456   2.251  0.0634 -0.3286 -0.1903
19331TIP3    H179484   5.180   0.520   2.240  1.3336  1.3133  0.6146
19331TIP3    H279485   5.207   0.372   2.261 -1.7187  0.5131 -0.5765
19332TIP3   OH279486   5.246   0.588  15.205 -0.3005  0.0480 -0.0045
19332TIP3    H179487   5.318   0.547  15.252 -2.2687 -0.4899  2.8637
19332TIP3    H279488   5.251   0.680  15.228  0.0411  0.1996 -0.6592
19333TIP3   OH279489   5.079   2.121  13.161  0.1370 -0.1557  0.1314
19333TIP3    H179490   5.003   2.163  13.200 -0.6311 -1.4505  0.0915
19333TIP3    H279491   5.096   2.171  13.081 -1.6953 -0.7851 -0.7140
19334TIP3   OH279492   0.905   3.305  17.224 -0.1045 -0.3196 -0.4232
19334TIP3    H179493   0.897   3.373  17.157  0.0199 -0.2146 -0.3319
19334TIP3    H279494   0.825   3.313  17.276 -0.8647 -1.3091 -1.4001
19335TIP3   OH279495   1.996   6.728  11.147 -0.4513  0.1891  0.1430
19335TIP3    H179496   1.986   6.783  11.069 -1.1269 -1.3366 -0.8877
19335TIP3    H279497   1.940   6.653  11.131  1.3533 -1.4176  0.9457
19336TIP3   OH279498   3.673   6.298  11.062  0.0090  0.3904  0.3152
19336TIP3    H179499   3.673   6.389  11.091 -0.0176  0.4088  0.2572
19336TIP3    H279500   3.582   6.269  11.071  0.0689  0.2855  0.5988
19337TIP3   OH279501   6.389   6.186   5.835 -0.1104 -0.2702  0.2448
19337TIP3    H179502   6.324   6.125   5.800  0.0834 -0.8645  0.9006
19337TIP3    H279503   6.471   6.159   5.795  0.4789 -2.2256  2.5932
19338TIP3   OH279504   4.971   1.782   3.251 -0.0925  0.0319  0.4299
19338TIP3    H179505   4.909   1.752   3.318  0.5414 -1.1346  0.5215
19338TIP3    H279506   5.023   1.704   3.230 -0.2287  0.3884 -1.3678
19339TIP3   OH279507   0.928   5.169   0.996  0.2099 -0.3887  1.1878
19339TIP3    H179508   0.940   5.217   1.079  0.2897 -0.8011  1.4188
19339TIP3    H279509   0.954   5.080   1.017  0.6776 -0.3991  0.5915
19340TIP3   OH279510   6.692   3.827   3.680  0.4783 -0.6463 -0.2521
19340TIP3    H179511   6.601   3.843   3.655  0.5484  0.8052  0.3559
19340TIP3    H279512   6.743   3.876   3.616  0.7490  0.3570  0.7037
19341TIP3   OH279513   5.925   5.801  13.292 -0.2501  0.4113 -0.1207
19341TIP3    H179514   5.971   5.761  13.218 -3.1599  0.0262 -1.8809
19341TIP3    H279515   5.896   5.727  13.344  2.0486  0.6899  1.7275
19342TIP3   OH279516   1.565   5.121  13.974 -0.6486  0.2830  0.8676
19342TIP3    H179517   1.613   5.141  14.054 -1.3298 -0.4386  1.4696
19342TIP3    H279518   1.621   5.058  13.927 -0.3055  0.6144  0.8333
19343TIP3   OH279519   4.944   1.670   4.433  0.3474  0.2068 -0.4258
19343TIP3    H179520   4.937   1.727   4.510 -3.7879 -1.8381  1.0238
19343TIP3    H279521   4.872   1.698   4.376 -0.7223 -2.3446 -0.4571
19344TIP3   OH279522   2.229   3.156   1.133  0.5762  0.3873 -0.1239
19344TIP3    H179523   2.239   3.243   1.093  0.1036  0.0981 -0.8918
19344TIP3    H279524   2.269   3.165   1.219  1.0662  1.2045 -0.4202
19345TIP3   OH279525   6.480   4.106  14.659  0.6437 -0.0440  0.1967
19345TIP3    H179526   6.420   4.152  14.718 -0.3517 -1.9809  0.7917
19345TIP3    H279527   6.551   4.077  14.716  1.4326  0.9803 -0.2349
19346TIP3   OH279528   2.489   5.330  14.761 -0.5372 -0.4380 -0.1995
19346TIP3    H179529   2.487   5.426  14.767 -0.9712 -0.4306 -0.4655
19346TIP3    H279530   2.582   5.308  14.771 -0.2313  0.1070 -1.5744
19347TIP3   OH279531   4.209   4.889   0.193 -0.2662 -0.3824  0.1037
19347TIP3    H179532   4.177   4.839   0.118  0.3995 -0.5689 -0.0655
19347TIP3    H279533   4.161   4.971   0.190 -1.3782 -1.0026  0.3794
19348TIP3   OH279534   3.699   4.911  13.633 -0.7313  1.0031 -0.3102
19348TIP3    H179535   3.753   4.952  13.699 -1.1643  0.7759  0.1954
19348TIP3    H279536   3.718   4.817  13.641  0.3181  1.0845 -1.5130
19349TIP3   OH279537   6.551   3.331  16.786  1.0510  0.0028  0.1466
19349TIP3    H179538   6.486   3.399  16.773  1.5268  0.8131  1.7553
19349TIP3    H279539   6.590   3.318  16.699  0.4981  1.3048 -0.3218
19350TIP3   OH279540   1.589   2.171   2.439 -0.2927 -0.2967 -0.4862
19350TIP3    H179541   1.653   2.197   2.505 -1.1160  0.8529 -0.0960
19350TIP3    H279542   1.594   2.240   2.373 -0.7741 -0.4540 -0.6906
19351TIP3   OH279543   4.386   3.963   1.257  0.0327  0.1704  0.5868
19351TIP3    H179544   4.303   3.952   1.305 -0.2335 -0.0734  0.0780
19351TIP3    H279545   4.410   3.874   1.231 -0.9741  0.4967 -1.6441
19352TIP3   OH279546   5.515   6.398  14.497 -0.4153 -0.0083  0.1281
19352TIP3    H179547   5.555   6.475  14.537  0.2693  0.0496 -0.6513
19352TIP3    H279548   5.448   6.370  14.560 -0.3471  0.9397  0.6299
19353TIP3   OH279549   5.396   1.068   3.902 -0.3615 -0.1340  0.5571
19353TIP3    H179550   5.308   1.105   3.913 -0.8729 -1.5242  1.3279
19353TIP3    H279551   5.409   1.014   3.979  1.4290  0.5079  0.7474
19354TIP3   OH279552   6.294   5.019   3.951 -0.5043  0.6412 -0.5236
19354TIP3    H179553   6.345   5.007   3.871 -0.0739 -0.2507 -0.1314
19354TIP3    H279554   6.261   4.931   3.971  1.3602  0.3138  1.5713
19355TIP3   OH279555   6.505   5.438  16.234 -0.6154  0.0095 -0.3121
19355TIP3    H179556   6.414   5.413  16.251 -0.4103  0.1733  1.1850
19355TIP3    H279557   6.548   5.356  16.207 -0.5733 -0.7447  1.8579
19356TIP3   OH279558   2.134   5.143   6.132 -0.0915 -0.6250  0.2744
19356TIP3    H179559   2.060   5.098   6.172 -0.2799  0.8603  1.6749
19356TIP3    H279560   2.115   5.236   6.143  1.6083 -0.2003 -0.0496
19357TIP3   OH279561   6.450   3.881   6.101  0.0737  0.0049  0.4113
19357TIP3    H179562   6.461   3.868   6.195 -1.3572  1.4922  0.8283
19357TIP3    H279563   6.363   3.847   6.081 -0.1304  0.8141 -0.1316
19358TIP3   OH279564   0.258   3.508   6.711 -0.5421  0.4263 -0.3086
19358TIP3    H179565   0.287   3.572   6.646 -0.1633 -1.1457 -1.7657
19358TIP3    H279566   0.309   3.529   6.789 -0.7100  2.1108 -0.6007
19359TIP3   OH279567   2.855   0.295  12.001  0.9886  0.0746 -0.0517
19359TIP3    H179568   2.840   0.220  11.944  3.7567  0.1265 -0.9873
19359TIP3    H279569   2.824   0.266  12.087 -0.2351 -1.2115 -0.8822
19360TIP3   OH279570   6.642   2.338  14.965  0.1673  0.2639  0.0497
19360TIP3    H179571   6.686   2.255  14.947 -3.6643 -2.1420  0.4336
19360TIP3    H279572   6.579   2.348  14.893 -0.0262  2.4301  0.4538
19361TIP3   OH279573   1.682   5.463  13.620  0.0238  0.1290 -0.5355
19361TIP3    H179574   1.763   5.428  13.656  0.0935  0.5172 -0.3042
19361TIP3    H279575   1.613   5.408  13.657 -0.0329  1.3851  1.3639
19362TIP3   OH279576   6.434   0.785  13.517 -0.1506 -0.3332  0.8750
19362TIP3    H179577   6.416   0.761  13.608 -1.1223 -1.3237  0.4406
19362TIP3    H279578   6.498   0.856  13.523 -1.2550  0.5759  2.3646
19363TIP3   OH279579   1.855   3.513  13.913  0.1170 -0.1690  0.0927
19363TIP3    H179580   1.851   3.608  13.898 -0.2073 -0.4898 -2.2571
19363TIP3    H279581   1.948   3.495  13.926  0.5242  0.2036 -1.9791
19364TIP3   OH279582   6.652   2.749  12.711 -0.3922 -0.2270  0.0964
19364TIP3    H179583   6.630   2.656  12.707 -0.4952 -0.1522 -2.2814
19364TIP3    H279584   6.568   2.795  12.702 -0.0384  0.0481 -2.3934
19365TIP3   OH279585   0.330   5.559  14.425 -0.1834 -0.3657 -0.3202
19365TIP3    H179586   0.347   5.480  14.374  2.0259 -0.9786  1.1696
19365TIP3    H279587   0.417   5.599  14.436 -1.2077  2.1945 -0.8515
19366TIP3   OH279588   6.164   1.238   1.839  0.7575 -0.1717  0.2805
19366TIP3    H179589   6.221   1.174   1.796  0.7965  0.4775 -0.6562
19366TIP3    H279590   6.172   1.218   1.932  1.5738 -0.8644  0.0756
19367TIP3   OH279591   0.677   2.361   3.840  0.1423 -0.8171  0.3569
19367TIP3    H179592   0.749   2.377   3.901 -1.2311  0.9854  1.5896
19367TIP3    H279593   0.674   2.439   3.785  0.2821 -1.6936 -0.9573
19368TIP3   OH279594   2.883   3.749   0.907 -0.2589  0.6359 -0.1781
19368TIP3    H179595   2.871   3.835   0.948  2.0498 -0.4742  3.3170
19368TIP3    H279596   2.929   3.767   0.825  1.8916  2.7342  1.3598
19369TIP3   OH279597   5.371   4.204   4.669  0.3756  0.0843 -0.2310
19369TIP3    H179598   5.335   4.211   4.580 -0.0365  0.7237 -0.0249
19369TIP3    H279599   5.452   4.155   4.658 -0.4332 -1.2173 -0.7484
19370TIP3   OH279600   1.828   6.385  11.573 -0.5613 -0.0817  0.0068
19370TIP3    H179601   1.891   6.358  11.640  2.8855  2.2279 -1.9354
19370TIP3    H279602   1.841   6.321  11.502  0.1437  0.7784 -0.6569
19371TIP3   OH279603   5.484   1.539   2.148 -0.3985  0.4243 -0.3045
19371TIP3    H179604   5.482   1.526   2.243  0.5235 -1.5041 -0.5071
19371TIP3    H279605   5.408   1.594   2.130 -1.9116 -1.0061  1.2894
19372TIP3   OH279606   4.599   1.370   1.106 -1.0190  0.1016  0.5948
19372TIP3    H179607   4.571   1.404   1.191 -1.9483 -1.1879  0.8352
19372TIP3    H279608   4.672   1.313   1.126  0.4453  1.7553  0.2057
19373TIP3   OH279609   4.983   1.196  16.789 -0.1564  0.1724 -0.6051
19373TIP3    H179610   5.060   1.186  16.734  0.7515 -0.6114  0.7655
19373TIP3    H279611   4.947   1.281  16.764  2.3060  1.5216  0.1045
19374TIP3   OH279612   6.076   5.356   4.625  0.8308  0.8912  0.6022
19374TIP3    H179613   5.982   5.349   4.608  0.8487 -0.4472  0.9276
19374TIP3    H279614   6.106   5.425   4.565 -0.0409  0.0588 -0.8637
19375TIP3   OH279615   0.575   0.304  15.876 -0.2935 -0.5082  0.3545
19375TIP3    H179616   0.486   0.311  15.841 -0.4510 -0.8679  0.6716
19375TIP3    H279617   0.628   0.273  15.803 -0.1252  1.1563 -0.2750
19376TIP3   OH279618   5.162   4.922  11.002  0.4430  0.0623 -0.3848
19376TIP3    H179619   5.145   5.003  10.953  1.1645  1.6222  1.7797
19376TIP3    H279620   5.258   4.918  11.009  0.4053 -0.8871 -0.2628
19377TIP3   OH279621   0.509   2.347   1.019 -0.3454 -0.1861  0.6455
19377TIP3    H179622   0.492   2.256   1.044 -2.1504  0.3512  1.5612
19377TIP3    H279623   0.518   2.393   1.103 -2.0263  0.9068  0.2618
19378TIP3   OH279624   2.673   3.415  12.760 -0.1886 -0.2240  0.2924
19378TIP3    H179625   2.678   3.456  12.846  0.4101 -1.4886  0.8982
19378TIP3    H279626   2.736   3.463  12.707 -0.4029  0.4321  0.6227
19379TIP3   OH279627   5.772   2.032   4.613 -0.1432  0.1499 -0.0522
19379TIP3    H179628   5.834   2.090   4.569 -0.1964  0.1860 -0.0794
19379TIP3    H279629   5.688   2.048   4.570 -0.2837  0.4845  0.3415
19380TIP3   OH279630   0.419   0.636   1.424 -0.0862 -0.0638 -0.2693
19380TIP3    H179631   0.395   0.725   1.450 -1.7293 -0.0085 -1.7570
19380TIP3    H279632   0.336   0.591   1.411  0.7065 -1.6417 -0.1890
19381TIP3   OH279633   6.247   5.272  12.273 -0.3069 -0.0495  0.4637
19381TIP3    H179634   6.196   5.352  12.285  0.9972  0.7563  0.8331
19381TIP3    H279635   6.182   5.203  12.264 -1.4564  0.9030  1.1989
19382TIP3   OH279636   6.400   2.918  15.155  0.3580  0.4483 -0.0658
19382TIP3    H179637   6.404   2.917  15.251 -0.2081 -0.4443 -0.0407
19382TIP3    H279638   6.306   2.922  15.135  0.3742 -1.0851 -0.5660
19383TIP3   OH279639   1.713   1.710   2.281  0.4375  0.0008  0.1346
19383TIP3    H179640   1.667   1.744   2.204  0.5343 -0.2813 -0.0496
19383TIP3    H279641   1.677   1.760   2.354  0.0892  0.0257 -0.0508
19384TIP3   OH279642   0.329   3.720  16.639  0.1409  0.4544  0.1019
19384TIP3    H179643   0.396   3.713  16.707 -0.6083  1.5331  1.0015
19384TIP3    H279644   0.283   3.802  16.659 -0.8033  0.2475 -1.0726
19385TIP3   OH279645   0.594   0.046  13.465 -0.0830 -0.8884  0.5807
19385TIP3    H179646   0.536   0.026  13.539  0.1635 -1.6142  0.5831
19385TIP3    H279647   0.536   0.084  13.399 -0.8904 -3.1249 -0.0659
19386TIP3   OH279648   2.166   3.439  16.953 -0.5355  0.2336 -0.1265
19386TIP3    H179649   2.084   3.422  17.000  0.4554  0.1677  1.7150
19386TIP3    H279650   2.214   3.356  16.959  1.0451  1.1937  1.9089
19387TIP3   OH279651   5.097   0.248   0.012 -0.0804 -0.0963 -0.3814
19387TIP3    H179652   5.085   0.175  -0.050 -0.8059 -1.0678  0.8615
19387TIP3    H279653   5.108   0.325  -0.044 -0.3620 -0.9981 -1.7269
19388TIP3   OH279654   3.556   4.972   6.168 -0.3290  0.4788 -0.1035
19388TIP3    H179655   3.576   4.899   6.227  1.1942  0.7324 -0.2753
19388TIP3    H279656   3.496   5.027   6.219  0.4312  0.3541  0.9771
19389TIP3   OH279657   0.151   5.065  17.637 -0.6740 -0.0773 -0.0935
19389TIP3    H179658   0.236   5.049  17.676  0.1540  0.9362 -1.3966
19389TIP3    H279659   0.096   4.992  17.667  0.3672 -0.2319  1.5242
19390TIP3   OH279660   4.182   5.074  16.304  0.1438  0.2627  0.3294
19390TIP3    H179661   4.098   5.115  16.285  0.8785  1.2679 -0.8781
19390TIP3    H279662   4.229   5.074  16.220  2.3346  2.0064  1.4465
19391TIP3   OH279663   6.341   4.991  11.261 -0.1403  0.0674 -0.0405
19391TIP3    H179664   6.383   5.075  11.281 -1.4197  0.7959 -0.2931
19391TIP3    H279665   6.414   4.932  11.243  0.7749  1.3996 -0.9461
19392TIP3   OH279666   6.457   0.678   1.447 -0.0826 -0.0579  0.3520
19392TIP3    H179667   6.495   0.725   1.522  0.7128  0.3912 -0.3095
19392TIP3    H279668   6.461   0.741   1.375 -1.6797 -0.1624  0.1261
19393TIP3   OH279669   0.619   1.549  17.272  0.7021  0.1928 -0.0974
19393TIP3    H179670   0.537   1.588  17.241  1.1738  1.4881  0.2024
19393TIP3    H279671   0.592   1.488  17.341 -0.0318  0.4472 -0.1470
19394TIP3   OH279672   4.190   5.642  13.429  0.0738  0.1239 -0.0280
19394TIP3    H179673   4.157   5.568  13.378 -0.2063  0.4640 -0.3534
19394TIP3    H279674   4.220   5.604  13.511 -1.6461 -0.1377  0.5052
19395TIP3   OH279675   4.749   1.392  17.657  0.3640  0.0121  0.6415
19395TIP3    H179676   4.841   1.383  17.683  0.3989 -1.0649  0.1570
19395TIP3    H279677   4.752   1.451  17.582  0.8876 -1.5506 -0.6132
19396TIP3   OH279678   1.225   3.518  11.936 -0.5351  0.2557 -0.1366
19396TIP3    H179679   1.252   3.506  12.027 -0.3164  1.1909 -0.0643
19396TIP3    H279680   1.257   3.440  11.891  0.5487  0.4113  0.3328
19397TIP3   OH279681   1.293   2.640  12.061  0.6341 -0.1277 -0.6841
19397TIP3    H179682   1.248   2.556  12.052  0.3524 -0.1547  0.7199
19397TIP3    H279683   1.353   2.627  12.135  1.3884  0.5807 -1.1498
19398TIP3   OH279684   2.523   4.701   2.545  0.2976  0.4315 -0.2173
19398TIP3    H179685   2.478   4.669   2.623  1.6248  0.5763  0.6287
19398TIP3    H279686   2.483   4.653   2.473 -0.6737  0.0004  0.5870
19399TIP3   OH279687   3.572   4.037  13.041  0.9080 -0.1602 -0.4677
19399TIP3    H179688   3.588   4.104  13.108  0.8612  0.2787 -0.8885
19399TIP3    H279689   3.523   4.083  12.973  0.4819 -0.7389 -0.5555
19400TIP3   OH279690   5.323   0.313  17.153 -0.0634 -0.1148 -0.1833
19400TIP3    H179691   5.235   0.350  17.158 -1.4027 -2.9629 -0.4867
19400TIP3    H279692   5.323   0.263  17.072  0.4645 -3.1856  1.5523
19401TIP3   OH279693   3.784   3.883   0.864 -0.2117  0.3932 -0.0260
19401TIP3    H179694   3.828   3.966   0.883  1.8234 -0.4521 -0.7006
19401TIP3    H279695   3.820   3.857   0.779 -1.4096 -0.8054 -0.1905
19402TIP3   OH279696   2.409   1.170  15.162 -0.3032 -0.1424  0.0421
19402TIP3    H179697   2.491   1.179  15.113 -1.1566 -1.0402 -1.6085
19402TIP3    H279698   2.435   1.123  15.242  0.5882 -1.6354 -1.0782
19403TIP3   OH279699   6.152   3.454  15.225 -0.0826  0.7187  0.1262
19403TIP3    H179700   6.239   3.418  15.239  0.6455  1.9963 -0.8915
19403TIP3    H279701   6.114   3.399  15.156 -0.4211 -0.3305  1.1154
19404TIP3   OH279702   3.348   5.953  14.133 -0.0221 -0.1244 -0.1561
19404TIP3    H179703   3.338   5.873  14.185  0.0115 -0.1136 -0.1333
19404TIP3    H279704   3.335   5.924  14.042  1.0089 -0.3412 -0.2445
19405TIP3   OH279705   2.622   1.477   0.339 -0.5025  0.3499  0.2644
19405TIP3    H179706   2.649   1.414   0.406  0.0899 -1.6317 -1.7245
19405TIP3    H279707   2.694   1.478   0.276 -2.1317  0.1119 -1.7003
19406TIP3   OH279708   2.506   1.950  13.470 -0.4608 -0.2249 -0.0368
19406TIP3    H179709   2.575   1.888  13.446 -0.1367  0.0006  0.3118
19406TIP3    H279710   2.426   1.910  13.436  0.0466  0.4210 -2.1413
19407TIP3   OH279711   4.461   1.842  15.265  0.1656 -0.3163 -0.3291
19407TIP3    H179712   4.478   1.802  15.180  0.6082  0.8413 -0.8096
19407TIP3    H279713   4.481   1.773  15.329 -0.1618 -1.1873 -1.1515
19408TIP3   OH279714   4.410   6.311   0.395  0.0251  0.5968  0.3099
19408TIP3    H179715   4.420   6.383   0.333  2.7049  0.4179  0.4062
19408TIP3    H279716   4.484   6.253   0.376 -2.3527 -2.5638 -0.2249
19409TIP3   OH279717   5.202   6.205   1.537 -0.3582 -0.1937  0.0530
19409TIP3    H179718   5.207   6.129   1.478 -1.5108  0.8604 -1.4699
19409TIP3    H279719   5.264   6.268   1.501 -0.5946  0.2195  0.3610
19410TIP3   OH279720   1.584   3.318   2.157 -0.9490  0.3098 -0.2329
19410TIP3    H179721   1.653   3.365   2.203 -0.9811  0.3294 -0.2047
19410TIP3    H279722   1.567   3.370   2.079 -2.1868  1.2811  0.6514
19411TIP3   OH279723   2.151   4.073   4.797  0.6659  0.2962  0.3585
19411TIP3    H179724   2.240   4.092   4.767  0.2198  0.7433 -0.7554
19411TIP3    H279725   2.097   4.085   4.719 -0.1764 -1.5683  0.6006
19412TIP3   OH279726   0.293   5.866   3.780 -0.4260  0.2120  0.5224
19412TIP3    H179727   0.370   5.890   3.831 -0.5068 -0.0243  0.7640
19412TIP3    H279728   0.302   5.913   3.698 -1.0251  1.7887  1.3054
19413TIP3   OH279729   1.462   5.826   0.340  0.2805  0.9044 -0.0162
19413TIP3    H179730   1.459   5.903   0.282 -4.3681  0.0941 -1.2658
19413TIP3    H279731   1.383   5.834   0.393  0.5649 -2.1527  1.0249
19414TIP3   OH279732   2.509   1.266   3.719 -0.1080 -0.1555  0.1130
19414TIP3    H179733   2.536   1.333   3.782 -2.3511 -0.6896  1.7914
19414TIP3    H279734   2.552   1.290   3.637  0.6180  2.2635  1.1356
19415TIP3   OH279735   2.141   0.874   2.191  0.0970 -0.0777  0.2855
19415TIP3    H179736   2.155   0.791   2.238 -0.0513  0.4236  1.2434
19415TIP3    H279737   2.096   0.930   2.255  0.2959  0.7790 -0.3139
19416TIP3   OH279738   4.331   1.732   4.853  0.1281  0.2447  0.7049
19416TIP3    H179739   4.421   1.749   4.825  0.1899 -2.4745 -1.1013
19416TIP3    H279740   4.337   1.715   4.947  1.5091  0.1694  0.6125
19417TIP3   OH279741   2.176   0.392   0.757  0.4113 -0.4212 -0.3794
19417TIP3    H179742   2.264   0.363   0.776  0.0941 -0.2325  1.6300
19417TIP3    H279743   2.182   0.488   0.755 -0.0690 -0.2870  1.9425
19418TIP3   OH279744   2.765   1.178  10.847 -0.3804 -0.7856  0.5364
19418TIP3    H179745   2.673   1.182  10.874 -0.0461 -1.3412  1.8283
19418TIP3    H279746   2.765   1.212  10.758 -2.0278 -2.0127  0.0290
19419TIP3   OH279747   4.107   4.630   3.668 -0.1076  0.4709  0.1057
19419TIP3    H179748   4.070   4.718   3.664  1.1462  0.9701 -1.4399
19419TIP3    H279749   4.044   4.575   3.622  0.0640  0.9402 -0.7062
19420TIP3   OH279750   3.911   3.326  13.925  0.4367  0.4924  0.2607
19420TIP3    H179751   3.922   3.240  13.886  1.2137  0.0444  1.4052
19420TIP3    H279752   3.816   3.340  13.926  0.3229 -0.2257 -0.1817
19421TIP3   OH279753   6.591   0.700   0.196  0.0387 -0.5504  1.0185
19421TIP3    H179754   6.656   0.637   0.164  0.9015  0.5581  0.4991
19421TIP3    H279755   6.508   0.670   0.158  0.6168 -0.7604 -0.1476
19422TIP3   OH279756   5.286   2.672   5.711 -0.0025 -0.1730 -0.3245
19422TIP3    H179757   5.247   2.753   5.745  0.2857  1.0247 -2.6461
19422TIP3    H279758   5.348   2.645   5.779  1.7032  2.9314 -0.4462
19423TIP3   OH279759   6.689   0.105   4.344 -0.3334  0.1167  0.0358
19423TIP3    H179760   6.736   0.188   4.341 -0.4494  0.2892  1.7350
19423TIP3    H279761   6.624   0.110   4.274  0.3416  1.0170 -0.5409
19424TIP3   OH279762   3.060   3.581  13.273 -0.4526 -0.1396 -0.0592
19424TIP3    H179763   3.077   3.536  13.190 -0.4165 -0.4057  0.0901
19424TIP3    H279764   3.006   3.519  13.323  0.5975 -0.5201  0.6230
19425TIP3   OH279765   4.556   3.621  14.104  0.3758 -0.1896 -0.3581
19425TIP3    H179766   4.482   3.611  14.045  0.7461  0.8558 -1.0357
19425TIP3    H279767   4.522   3.673  14.176 -0.2784 -2.0931  0.7816
19426TIP3   OH279768   4.178   6.198  15.779  0.1295  0.1137 -0.2700
19426TIP3    H179769   4.148   6.120  15.733  0.9372  0.7739 -2.0287
19426TIP3    H279770   4.161   6.180  15.871  0.8383 -2.3802 -0.5444
19427TIP3   OH279771   2.431   1.793  14.361 -0.2143 -0.1137  0.0819
19427TIP3    H179772   2.373   1.727  14.398  0.9026 -1.7710 -0.9917
19427TIP3    H279773   2.470   1.837  14.437 -0.8865 -0.7525  0.8091
19428TIP3   OH279774   2.507   4.594   0.572 -0.8187 -0.4012 -0.4405
19428TIP3    H179775   2.538   4.571   0.484  0.4781  0.0823 -0.1206
19428TIP3    H279776   2.516   4.689   0.577 -0.9950 -0.4142  0.1796
19429TIP3   OH279777   1.037   0.984  10.785 -0.5539 -0.4828 -0.5971
19429TIP3    H179778   1.020   1.051  10.851  0.1440  1.1449 -1.9887
19429TIP3    H279779   0.953   0.973  10.740 -0.4957  0.0066 -0.8319
19430TIP3   OH279780   6.363   2.269  14.885 -0.4660 -0.1173 -0.6137
19430TIP3    H179781   6.291   2.209  14.904 -0.2493 -0.3027 -0.3742
19430TIP3    H279782   6.400   2.290  14.970 -1.9604  2.1781 -0.4101
19431TIP3   OH279783   4.917   4.007  13.740  0.5270 -0.1197 -0.6032
19431TIP3    H179784   4.984   3.973  13.799 -0.2720 -0.3086  0.2102
19431TIP3    H279785   4.839   3.955  13.760  0.4485 -0.7814 -2.4256
19432TIP3   OH279786   0.656   5.537   2.381  0.0697  0.2714  0.5968
19432TIP3    H179787   0.683   5.563   2.469  2.0108 -1.8002  0.7208
19432TIP3    H279788   0.618   5.616   2.343  1.5804  1.9647  2.3861
19433TIP3   OH279789   6.460   1.795  13.107  0.8854 -0.3314 -0.1098
19433TIP3    H179790   6.491   1.749  13.028 -0.6096  0.2873 -1.1006
19433TIP3    H279791   6.371   1.822  13.086  0.1743 -0.7616  2.0844
19434TIP3   OH279792   5.256   4.229  15.947  0.2745 -0.0810 -0.0931
19434TIP3    H179793   5.318   4.191  16.009 -0.4593  0.3043  0.8983
19434TIP3    H279794   5.181   4.170  15.947 -0.6283  1.0195  1.0237
19435TIP3   OH279795   6.377   6.079   0.461  0.1456 -0.4843  0.0162
19435TIP3    H179796   6.371   6.158   0.516  0.1737 -0.3175 -0.2180
19435TIP3    H279797   6.446   6.100   0.398 -1.0590  0.0004 -1.1771
19436TIP3   OH279798   0.843   3.707  15.163 -0.3217 -0.3574 -0.4281
19436TIP3    H179799   0.779   3.769  15.197 -0.5020  0.0297 -1.4386
19436TIP3    H279800   0.869   3.655  15.240  0.8893  1.8579  0.7650
19437TIP3   OH279801   6.449   2.911   0.666  0.3045 -0.1047  0.1730
19437TIP3    H179802   6.534   2.879   0.695  0.4542 -0.4500 -0.6239
19437TIP3    H279803   6.388   2.842   0.689  0.4881 -0.5744 -0.6909
19438TIP3   OH279804   5.851   3.105   5.729  0.5528 -0.3215  0.3001
19438TIP3    H179805   5.833   3.057   5.810  0.8145  3.3986  2.7907
19438TIP3    H279806   5.946   3.106   5.723  0.6070  0.8198  0.9804
19439TIP3   OH279807   6.680   6.279  15.510  0.0462 -0.2537  0.5809
19439TIP3    H179808   6.591   6.266  15.543 -0.7248 -2.0212 -1.8618
19439TIP3    H279809   6.692   6.208  15.446  3.5142 -0.5558  1.3559
19440TIP3   OH279810   5.861   1.816   4.173  0.0860 -0.3136 -0.1154
19440TIP3    H179811   5.859   1.803   4.078 -0.2877  0.0772 -0.1647
19440TIP3    H279812   5.770   1.835   4.196  0.3978  0.9989  0.1234
19441TIP3   OH279813   0.842   0.178   5.015  0.8708  0.4121 -0.3362
19441TIP3    H179814   0.769   0.137   4.969  1.1661 -2.3272  1.3715
19441TIP3    H279815   0.801   0.227   5.086  0.6117 -0.9086  0.4625
19442TIP3   OH279816   2.470   1.429  16.321  0.2473  0.1981  0.1811
19442TIP3    H179817   2.384   1.452  16.358 -0.4545 -0.3347 -1.0510
19442TIP3    H279818   2.524   1.408  16.397 -0.1419  2.3529  1.1145
19443TIP3   OH279819   2.605   3.056  14.441 -0.0450  0.3494 -0.2255
19443TIP3    H179820   2.553   2.983  14.407  0.9298  0.2120 -1.5283
19443TIP3    H279821   2.557   3.134  14.414  0.0121  0.2131 -0.7366
19444TIP3   OH279822   0.453   2.927  17.000  0.5200 -0.3324  0.3478
19444TIP3    H179823   0.523   2.886  16.949  0.6734 -1.2401  1.2524
19444TIP3    H279824   0.375   2.921  16.943  0.9592 -0.1509 -0.2863
19445TIP3   OH279825   3.794   1.756   5.715  0.3228 -0.3608 -0.0903
19445TIP3    H179826   3.705   1.723   5.723  0.9578 -2.3897 -0.8639
19445TIP3    H279827   3.794   1.837   5.767 -2.0458 -0.0852 -0.3987
19446TIP3   OH279828   3.049   0.317  10.865 -0.7608  0.0274  0.7690
19446TIP3    H179829   3.011   0.396  10.903 -0.3856  1.1896 -1.1490
19446TIP3    H279830   3.106   0.349  10.795 -0.1474 -1.9208  0.3141
19447TIP3   OH279831   2.224   0.544   2.831 -0.0404 -0.2351 -0.1858
19447TIP3    H179832   2.258   0.555   2.742  2.4007 -0.4896  0.6482
19447TIP3    H279833   2.184   0.457   2.831  1.8610 -1.1458 -0.4986
19448TIP3   OH279834   5.563   3.560   5.292 -0.1811 -0.9588  0.1124
19448TIP3    H179835   5.632   3.515   5.340 -1.2047 -2.5025  0.2004
19448TIP3    H279836   5.535   3.631   5.350  0.3323 -1.2287  0.6946
19449TIP3   OH279837   4.645   2.110   4.585 -0.6988 -0.1808 -0.3424
19449TIP3    H179838   4.651   2.202   4.557 -2.9322  0.0092 -0.3778
19449TIP3    H279839   4.628   2.115   4.679 -0.3980 -0.6012 -0.2603
19450TIP3   OH279840   4.081   4.929  17.339  0.6730  0.1268 -0.2355
19450TIP3    H179841   4.060   5.023  17.333  1.3079  0.3048  0.2489
19450TIP3    H279842   4.047   4.892  17.257 -3.8347 -0.0696  1.4290
19451TIP3   OH279843   0.057   1.715  14.842  0.1983 -0.0675 -0.1811
19451TIP3    H179844  -0.021   1.659  14.846  1.6619 -2.1909  0.3035
19451TIP3    H279845   0.130   1.655  14.854  1.8567  2.1246  1.4286
19452TIP3   OH279846   1.707   4.352   1.269 -0.4193  0.3365  0.3045
19452TIP3    H179847   1.728   4.261   1.249  1.0778  0.4224  1.3443
19452TIP3    H279848   1.757   4.403   1.205 -3.1270  0.4712 -1.9102
19453TIP3   OH279849   2.723   4.239  11.562  0.0521  0.1003 -0.6724
19453TIP3    H179850   2.666   4.253  11.637 -2.2394  0.5580 -2.4019
19453TIP3    H279851   2.745   4.326  11.531  2.6114 -0.0228  0.5027
19454TIP3   OH279852   1.250   4.534   3.833 -0.1979  0.4290  0.5629
19454TIP3    H179853   1.339   4.542   3.869 -0.5435  1.2618  1.2562
19454TIP3    H279854   1.193   4.572   3.900 -0.8884  1.8319 -0.7448
19455TIP3   OH279855   6.692   5.559   2.874 -0.4943  0.2451 -0.4879
19455TIP3    H179856   6.769   5.615   2.869 -0.0084 -0.2042  1.2514
19455TIP3    H279857   6.671   5.538   2.783  1.5568  0.2088 -1.0026
19456TIP3   OH279858   0.669   2.429  12.068 -0.1609  0.9528 -0.5982
19456TIP3    H179859   0.602   2.486  12.106 -0.4553 -0.2169  0.7127
19456TIP3    H279860   0.663   2.348  12.117  2.7732  1.0567  0.1358
19457TIP3   OH279861   3.125   0.094   0.601 -0.1047 -0.2119 -0.2774
19457TIP3    H179862   3.119  -0.001   0.602  0.8624 -0.3354  2.1685
19457TIP3    H279863   3.204   0.114   0.653 -0.6720  1.9242 -0.1248
19458TIP3   OH279864   2.741   4.703  12.166  0.1302 -0.4402  0.3015
19458TIP3    H179865   2.779   4.693  12.254  1.0791 -1.0551 -0.1681
19458TIP3    H279866   2.793   4.645  12.111 -0.8382 -0.5016 -0.5667
19459TIP3   OH279867   2.427   3.161   3.263  0.1501 -0.7284 -0.0234
19459TIP3    H179868   2.496   3.095   3.248  1.3566  0.9465 -2.5039
19459TIP3    H279869   2.466   3.243   3.234 -2.1765  0.6796  0.6094
19460TIP3   OH279870   3.637   1.083  15.082 -0.0382  0.3339 -0.1885
19460TIP3    H179871   3.728   1.054  15.077 -0.1592  0.1581 -1.6435
19460TIP3    H279872   3.633   1.160  15.026 -0.8474  0.1480 -0.4006
19461TIP3   OH279873   6.182   2.940  17.657 -0.6231  0.3540  0.0414
19461TIP3    H179874   6.209   2.994  17.583 -0.0276  1.8569  1.3025
19461TIP3    H279875   6.210   2.852  17.634  0.8911  1.0449 -0.8890
19462TIP3   OH279876   5.177   5.320  15.411  0.1862  0.2741  0.2075
19462TIP3    H179877   5.129   5.310  15.493 -0.2913  2.1167  0.2080
19462TIP3    H279878   5.269   5.315  15.436  0.0285  0.0534  0.7455
19463TIP3   OH279879   1.889   6.578   3.994  0.7352  0.1290  0.0458
19463TIP3    H179880   1.824   6.524   3.950  1.4008  0.1268 -0.9511
19463TIP3    H279881   1.909   6.530   4.075 -0.7833  0.3406  0.5816
19464TIP3   OH279882   3.130   0.050  12.160 -0.0545 -0.5666  0.0699
19464TIP3    H179883   3.036   0.030  12.165 -0.7563  1.3629 -2.8005
19464TIP3    H279884   3.162  -0.008  12.091  0.6141 -0.3666  0.2111
19465TIP3   OH279885   4.459   3.652  15.404 -0.1289 -0.0804 -0.0735
19465TIP3    H179886   4.439   3.564  15.372 -1.8537  0.6204 -1.0390
19465TIP3    H279887   4.392   3.669  15.470  0.2418  0.4911  0.1616
19466TIP3   OH279888   5.088   6.248   3.873 -0.1987 -0.2348 -0.4478
19466TIP3    H179889   5.067   6.327   3.824  1.9537  1.3587  1.0053
19466TIP3    H279890   5.083   6.178   3.809 -2.1248  1.0227 -1.8086
19467TIP3   OH279891   3.510   4.539   0.748 -0.1397  0.1807 -0.3796
19467TIP3    H179892   3.599   4.563   0.773  0.6848 -1.1545 -1.8418
19467TIP3    H279893   3.484   4.605   0.684  1.1162 -1.1885 -2.4248
19468TIP3   OH279894   3.388   0.517   6.501  0.5154 -0.3239 -0.0675
19468TIP3    H179895   3.325   0.447   6.513  1.1202 -1.2281 -1.8974
19468TIP3    H279896   3.334   0.595   6.487 -0.1567 -0.4757  1.4653
19469TIP3   OH279897   1.467   3.032  15.192  0.1920  0.4286 -0.5535
19469TIP3    H179898   1.454   2.950  15.239  0.8888  1.2595  1.1702
19469TIP3    H279899   1.561   3.045  15.191  0.3793 -0.2417 -3.5458
19470TIP3   OH279900   0.220   0.882   4.526 -0.0409  0.1994 -0.0632
19470TIP3    H179901   0.315   0.875   4.510  0.1281  1.8279  0.0358
19470TIP3    H279902   0.180   0.849   4.445  0.6893  1.9770 -1.2091
19471TIP3   OH279903   4.710   1.096  17.678 -0.5471 -0.4725 -0.1256
19471TIP3    H179904   4.618   1.078  17.699 -0.0076 -2.0224  1.0915
19471TIP3    H279905   4.716   1.191  17.678 -2.0029 -0.3482  0.4864
19472TIP3   OH279906   2.880   6.078  15.361  0.2688 -0.1462 -0.1554
19472TIP3    H179907   2.914   6.079  15.272  0.7948 -1.5635  0.0066
19472TIP3    H279908   2.850   5.988  15.375 -0.5987  0.2641  0.8073
19473TIP3   OH279909   3.697   3.694   5.843  0.1418 -0.2760  0.9443
19473TIP3    H179910   3.683   3.606   5.807 -1.0317 -0.0386  0.7825
19473TIP3    H279911   3.775   3.685   5.897  1.8596 -0.7285 -1.4246
19474TIP3   OH279912   3.126   4.551   2.014 -0.4663  0.1206  0.4946
19474TIP3    H179913   3.119   4.619   2.080 -2.5722  0.4982 -0.0479
19474TIP3    H279914   3.151   4.598   1.934  2.6619 -0.4060  1.0371
19475TIP3   OH279915   6.049   0.251  13.901 -0.5274 -0.5290  0.6276
19475TIP3    H179916   6.108   0.268  13.828 -0.8183  0.3609  0.5889
19475TIP3    H279917   6.101   0.199  13.962 -0.5162 -1.9541 -0.5311
19476TIP3   OH279918   0.928   3.672   1.979  0.1510 -0.1638 -0.0212
19476TIP3    H179919   1.017   3.651   2.009 -0.0366 -1.2323 -0.1649
19476TIP3    H279920   0.893   3.730   2.046  1.3350  1.1864 -0.5052
19477TIP3   OH279921   3.872   3.105  14.986  0.2349 -0.2803 -0.3331
19477TIP3    H179922   3.782   3.074  14.975  0.3852 -0.4852 -1.0334
19477TIP3    H279923   3.870   3.197  14.961  0.4685 -0.6097 -1.6105
19478TIP3   OH279924   1.372   1.218   4.188 -0.2454 -0.7129  0.8920
19478TIP3    H179925   1.308   1.288   4.196 -1.7833 -1.9172 -0.3710
19478TIP3    H279926   1.447   1.248   4.240 -1.2689  1.3527  1.2578
19479TIP3   OH279927   0.707   5.510  13.207  0.0818  0.1788  0.3280
19479TIP3    H179928   0.623   5.510  13.160  0.1856 -0.1594  0.1365
19479TIP3    H279929   0.690   5.457  13.285  0.1311  0.0567  0.2571
19480TIP3   OH279930   4.430   6.201  16.407  0.6652 -0.3048 -0.7480
19480TIP3    H179931   4.468   6.116  16.429 -0.9871 -0.8990 -0.0383
19480TIP3    H279932   4.383   6.227  16.486  0.4123  0.8647 -1.2674
19481TIP3   OH279933   5.467   3.315   0.717 -0.0970  0.1217  0.1588
19481TIP3    H179934   5.451   3.398   0.762  0.4520  1.7500 -2.4371
19481TIP3    H279935   5.395   3.308   0.654  1.2721  0.0054 -1.4550
19482TIP3   OH279936   2.607   3.076  16.379 -0.0700  0.6669  0.7348
19482TIP3    H179937   2.660   3.155  16.373 -1.5022  1.8266  2.4165
19482TIP3    H279938   2.539   3.097  16.444 -0.0080 -2.2060  1.8731
19483TIP3   OH279939   3.483   1.200   4.840  0.1407 -0.0510 -0.2708
19483TIP3    H179940   3.518   1.286   4.817  1.8300 -0.7161 -0.3019
19483TIP3    H279941   3.470   1.204   4.935 -1.3871  0.7644 -0.4766
19484TIP3   OH279942   5.160   4.243  13.582  0.1200  0.2648  0.1003
19484TIP3    H179943   5.094   4.298  13.623  0.0735  0.6464 -0.4664
19484TIP3    H279944   5.211   4.208  13.655 -0.1705  0.6497  0.4959
19485TIP3   OH279945   5.732   1.407  17.358 -0.1752 -0.2167  0.0892
19485TIP3    H179946   5.723   1.397  17.264 -0.0795 -0.7522  0.1322
19485TIP3    H279947   5.811   1.358  17.380 -1.5130 -2.2347  0.7616
19486TIP3   OH279948   4.727   2.263  16.146 -0.2334  0.5434 -0.3295
19486TIP3    H179949   4.808   2.250  16.195  0.5539  0.9254 -1.4883
19486TIP3    H279950   4.687   2.341  16.185  0.1544  0.5828 -0.0079
19487TIP3   OH279951   2.470   4.672  14.531  0.3015  0.0127 -1.2638
19487TIP3    H179952   2.419   4.743  14.492  0.7836 -0.0836 -2.1120
19487TIP3    H279953   2.558   4.682  14.492  0.8036 -0.0960 -0.1899
19488TIP3   OH279954   1.078   1.783   4.187  0.3224  0.3720 -0.1078
19488TIP3    H179955   1.115   1.783   4.099 -0.2452  1.3885 -0.3672
19488TIP3    H279956   1.076   1.876   4.213  0.8786  0.0574  1.1541
19489TIP3   OH279957   1.142   2.740   3.972 -0.1581 -0.3315 -0.8489
19489TIP3    H179958   1.046   2.740   3.967 -0.1888  1.1677 -0.9659
19489TIP3    H279959   1.167   2.829   3.946  1.3007 -0.8411 -1.2994
19490TIP3   OH279960   4.762   6.492   6.469 -0.0179 -0.0612 -0.2600
19490TIP3    H179961   4.677   6.463   6.437 -0.5800  4.1436 -3.4854
19490TIP3    H279962   4.743   6.540   6.550 -0.0611 -2.2595  1.0941
19491TIP3   OH279963   4.894   1.756   3.678 -0.1401  0.3128  0.1500
19491TIP3    H179964   4.841   1.805   3.741  1.7328  2.0002  0.5051
19491TIP3    H279965   4.985   1.779   3.700  0.6049  0.4215 -2.7178
19492TIP3   OH279966   6.358   6.462  11.182 -0.2689 -0.1614  0.6527
19492TIP3    H179967   6.264   6.464  11.167 -0.3774  2.3785  1.1499
19492TIP3    H279968   6.396   6.448  11.096 -1.0828 -0.4356  0.3311
19493TIP3   OH279969   0.866   5.907   1.365  0.2188  0.3834 -0.1053
19493TIP3    H179970   0.860   5.952   1.281  1.9299  0.8862 -0.0034
19493TIP3    H279971   0.864   5.814   1.342 -0.3751  0.5098 -0.5930
19494TIP3   OH279972   3.811   0.334   1.123 -0.4809  0.7981 -0.1285
19494TIP3    H179973   3.748   0.274   1.162  0.8887 -0.6377 -0.0488
19494TIP3    H279974   3.893   0.317   1.169  0.2869  1.7220 -1.0929
19495TIP3   OH279975   0.438   4.854  17.076  0.1022 -0.4521 -0.5614
19495TIP3    H179976   0.367   4.890  17.022  0.0410  0.9875  0.4139
19495TIP3    H279977   0.517   4.870  17.026  0.0221  0.6759 -0.3626
19496TIP3   OH279978   1.366   3.499   1.723  0.4882  0.5613  0.1504
19496TIP3    H179979   1.371   3.509   1.628 -1.2433 -0.0276 -0.0259
19496TIP3    H279980   1.449   3.536   1.755  1.7984 -0.6115 -1.6822
19497TIP3   OH279981   2.387   1.171   0.160  0.1874  0.5084  0.4020
19497TIP3    H179982   2.420   1.243   0.105  0.6611  0.5825  0.7687
19497TIP3    H279983   2.301   1.201   0.189 -0.2477  0.2842 -0.6328
19498TIP3   OH279984   1.244   5.245   5.567  0.6245  0.8982 -0.1045
19498TIP3    H179985   1.197   5.273   5.646  0.6588 -0.7792  0.5557
19498TIP3    H279986   1.174   5.228   5.504  0.1051 -2.4830  1.1587
19499TIP3   OH279987   5.832   0.553   3.857 -0.2805 -0.0719 -0.1406
19499TIP3    H179988   5.752   0.502   3.846 -0.1578 -0.7168  1.6819
19499TIP3    H279989   5.801   0.643   3.870 -0.7840 -0.4196  1.2358
19500TIP3   OH279990   3.474   2.569  15.068  0.4610 -0.2292 -0.2978
19500TIP3    H179991   3.445   2.531  15.151 -0.9061 -1.1978 -1.1891
19500TIP3    H279992   3.559   2.609  15.089  0.8426 -1.7091  1.2295
19501TIP3   OH279993   2.475   3.030  15.448 -0.2599 -0.4339 -0.0261
19501TIP3    H179994   2.504   3.083  15.374 -0.9645 -0.7962 -0.5735
19501TIP3    H279995   2.512   3.074  15.525 -0.8060  0.8571 -0.4665
19502TIP3   OH279996   5.342   5.036  17.517 -0.0608 -0.6928 -0.4064
19502TIP3    H179997   5.247   5.035  17.516 -0.0677 -0.3540 -1.5272
19502TIP3    H279998   5.367   4.946  17.537 -0.6062 -0.6001  0.7357
19503TIP3   OH279999   4.900   1.211   3.664 -0.4063 -0.1970 -0.7487
19503TIP3    H180000   4.938   1.125   3.682  0.5142  0.0408 -1.4652
19503TIP3    H280001   4.975   1.271   3.664 -1.3205  1.2551  3.0835
19504TIP3   OH280002   1.741   4.284  15.788 -0.0455 -0.4177 -0.1112
19504TIP3    H180003   1.795   4.211  15.757 -3.0688 -2.2721 -1.4309
19504TIP3    H280004   1.716   4.331  15.708  1.1894  1.6680  0.6587
19505TIP3   OH280005   5.582   4.292  12.470  0.0699  0.2115 -0.2687
19505TIP3    H180006   5.510   4.280  12.531 -0.1159 -0.0305 -0.5329
19505TIP3    H280007   5.635   4.213  12.479 -0.2647 -0.0791 -0.8270
19506TIP3   OH280008   6.076   5.298   2.254 -0.7794  0.1209  0.2881
19506TIP3    H180009   6.134   5.250   2.195  0.1166  0.5710  0.7605
19506TIP3    H280010   6.022   5.353   2.197 -1.8325 -1.4287 -0.2574
19507TIP3   OH280011   6.236   2.460   1.511  0.0838  0.3602  0.1412
19507TIP3    H180012   6.331   2.449   1.507  0.1835  1.0999  0.2130
19507TIP3    H280013   6.201   2.373   1.528  0.6464 -0.1932 -1.3980
19508TIP3   OH280014   4.479   0.233  17.414  0.6293 -0.9093  0.7183
19508TIP3    H180015   4.469   0.227  17.319 -1.3338 -0.3581  0.8364
19508TIP3    H280016   4.401   0.189  17.449  0.8483 -0.2956  2.0518
19509TIP3   OH280017   3.882   2.905  12.069 -0.6031 -0.3060 -0.0966
19509TIP3    H180018   3.910   2.815  12.051  0.9927  0.1884 -0.2907
19509TIP3    H280019   3.803   2.917  12.017 -1.9321 -2.1509  1.3295
19510TIP3   OH280020   1.865   3.866  14.855 -0.3310  0.0814 -0.7371
19510TIP3    H180021   1.821   3.929  14.912  1.1561  2.0654 -1.6268
19510TIP3    H280022   1.859   3.783  14.901  0.3002  1.4605  2.0412
19511TIP3   OH280023   1.517   1.614   6.432  0.2680  0.4028 -0.7789
19511TIP3    H180024   1.592   1.655   6.389  0.7929  0.1793 -0.1033
19511TIP3    H280025   1.470   1.688   6.471  0.3399  0.5149 -0.9020
19512TIP3   OH280026   1.947   1.060   3.646 -0.5310  0.6762 -0.0245
19512TIP3    H180027   1.919   1.078   3.736 -0.3013  1.1034 -0.0351
19512TIP3    H280028   1.870   1.021   3.604 -0.7714  0.8636  0.2394
19513TIP3   OH280029   0.695   6.577   5.334  0.4010  0.3166 -0.7689
19513TIP3    H180030   0.626   6.620   5.283 -0.0191 -0.7136 -1.0976
19513TIP3    H280031   0.750   6.649   5.366  1.0433  0.9829 -3.1885
19514TIP3   OH280032   2.277   3.141   6.836  0.5399  0.2267 -0.1847
19514TIP3    H180033   2.268   3.186   6.920  0.9276 -0.7658  0.4126
19514TIP3    H280034   2.348   3.078   6.850  0.9731  0.4113 -1.4225
19515TIP3   OH280035   6.618   1.678  16.805  0.0117  0.1134 -0.1141
19515TIP3    H180036   6.707   1.656  16.833 -0.0478  1.3612  1.1441
19515TIP3    H280037   6.583   1.731  16.876 -1.1512  1.0488 -1.3397
19516TIP3   OH280038   0.966   2.101  12.122 -0.3065 -0.7076  0.7442
19516TIP3    H180039   1.038   2.050  12.085 -0.4018 -1.8588  2.0838
19516TIP3    H280040   0.983   2.190  12.091 -0.2647 -1.5195 -1.8300
19517TIP3   OH280041   3.878   4.380   2.103 -0.1514  0.7042 -0.7058
19517TIP3    H180042   3.924   4.463   2.111  0.2004  0.5063 -0.6433
19517TIP3    H280043   3.792   4.396   2.141  0.2382  0.7881  0.1653
19518TIP3   OH280044   1.243   2.431   0.392 -0.9255 -0.1968  0.1874
19518TIP3    H180045   1.253   2.469   0.305  1.0194 -1.4668 -0.2055
19518TIP3    H280046   1.231   2.337   0.376  2.3668 -0.9256  1.2660
19519TIP3   OH280047   5.039   0.863  14.882 -0.0389  0.7253 -0.4243
19519TIP3    H180048   5.127   0.861  14.921 -0.3431  2.0420  0.3917
19519TIP3    H280049   4.991   0.926  14.936 -2.5958 -2.5098  1.4735
19520TIP3   OH280050   6.373   0.793  12.418 -0.1374 -0.3773 -0.1753
19520TIP3    H180051   6.416   0.873  12.448  1.1582 -1.1241  0.0542
19520TIP3    H280052   6.280   0.808  12.434  0.1563  0.7959  0.5357
19521TIP3   OH280053   5.368   4.266  12.623  0.2010 -0.4024 -0.2529
19521TIP3    H180054   5.294   4.297  12.571 -0.1429 -1.8202 -0.6577
19521TIP3    H280055   5.351   4.172  12.636  1.1558 -0.4419  0.9518
19522TIP3   OH280056   1.168   0.973   0.230 -0.2909 -0.4423  0.3482
19522TIP3    H180057   1.087   0.957   0.183 -0.3059 -2.5079  0.9405
19522TIP3    H280058   1.163   1.064   0.258 -3.2233 -0.9175  1.8035
19523TIP3   OH280059   1.176   5.874   0.037  0.2418 -0.2333 -0.2238
19523TIP3    H180060   1.097   5.852   0.086 -1.0148  1.2683 -1.4982
19523TIP3    H280061   1.233   5.915   0.102  0.7361 -2.7998  1.0928
19524TIP3   OH280062   2.891   3.676   2.808  0.2423 -0.2537 -0.0047
19524TIP3    H180063   2.875   3.682   2.714 -3.4760 -1.2408  0.4167
19524TIP3    H280064   2.900   3.582   2.825 -3.0254 -0.5291  0.9635
19525TIP3   OH280065   6.062   4.231  15.091  0.0376  0.3370 -0.3936
19525TIP3    H180066   6.016   4.209  15.172  0.5283  0.5619 -0.0506
19525TIP3    H280067   6.068   4.148  15.043 -0.7327  0.3075 -0.4487
19526TIP3   OH280068   1.976   4.360  12.085  0.5282  0.1014 -0.1314
19526TIP3    H180069   2.039   4.426  12.057 -1.3467  1.4347 -1.4639
19526TIP3    H280070   1.961   4.306  12.008 -1.6323  1.2713 -0.6188
19527TIP3   OH280071   4.089   0.356  15.808  0.3889 -0.8039 -0.5227
19527TIP3    H180072   4.066   0.266  15.829 -0.6682 -0.4845 -0.2399
19527TIP3    H280073   4.018   0.387  15.753  0.4152  0.0526 -0.0935
19528TIP3   OH280074   5.102   4.446  11.760 -0.0160  0.2557  0.1322
19528TIP3    H180075   5.082   4.352  11.760  0.7697  0.0796 -0.4974
19528TIP3    H280076   5.136   4.463  11.848  1.8591 -0.5230 -0.3878
19529TIP3   OH280077   1.675   0.231  12.138 -0.2017  0.0003 -0.4597
19529TIP3    H180078   1.588   0.221  12.097 -0.8829  1.2855  0.5898
19529TIP3    H280079   1.722   0.290  12.079  0.0318 -0.8378 -1.1232
19530TIP3   OH280080   4.272   3.392  16.046  1.0013 -0.5545 -0.3118
19530TIP3    H180081   4.184   3.376  16.080  0.6694  0.9310 -0.3924
19530TIP3    H280082   4.277   3.488  16.036  2.4891 -0.6407 -0.6666
19531TIP3   OH280083   5.080   5.038   5.811 -0.1937  0.5551  0.5561
19531TIP3    H180084   5.002   5.051   5.865 -0.7737 -2.0953  0.4846
19531TIP3    H280085   5.047   5.031   5.722  0.4035  1.4775  0.2396
19532TIP3   OH280086   3.788   1.101  14.171 -0.6969 -0.1371  0.3810
19532TIP3    H180087   3.873   1.103  14.126 -0.4844  0.3515  0.7939
19532TIP3    H280088   3.727   1.069  14.104 -0.1249 -0.8877  0.1956
19533TIP3   OH280089   0.700   4.073  15.875 -0.4598 -0.0052  0.2503
19533TIP3    H180090   0.617   4.042  15.913 -0.8677  0.2406 -0.4192
19533TIP3    H280091   0.696   4.044  15.784  0.7203 -1.0028  0.5046
19534TIP3   OH280092   2.094   6.654   0.490 -0.7604 -0.5576  0.0020
19534TIP3    H180093   2.065   6.710   0.418 -1.1589  0.1294  0.6901
19534TIP3    H280094   2.164   6.704   0.532  2.2097 -2.5322 -2.1712
19535TIP3   OH280095   4.190   1.212   3.132 -0.5672 -0.1476  0.2724
19535TIP3    H180096   4.224   1.149   3.195 -0.7909  0.7161  1.2939
19535TIP3    H280097   4.249   1.287   3.140 -1.1375  0.3242  0.1216
19536TIP3   OH280098   4.934   5.870   1.955  0.1878 -0.1942  0.4557
19536TIP3    H180099   4.895   5.851   1.870  0.8066  0.0824  0.1029
19536TIP3    H280100   4.992   5.944   1.939  1.0512 -0.7557  0.9072
19537TIP3   OH280101   4.851   3.799  14.406 -0.3171 -0.2683 -0.4118
19537TIP3    H180102   4.946   3.789  14.414 -0.3668 -0.7412 -0.4337
19537TIP3    H280103   4.839   3.892  14.386  0.1993 -0.4016 -1.3740
19538TIP3   OH280104   0.865   2.587   1.112 -1.0578 -0.2808 -0.5921
19538TIP3    H180105   0.829   2.570   1.024  1.0878 -1.3984 -1.3366
19538TIP3    H280106   0.847   2.507   1.161 -0.5386 -0.4183 -0.6264
19539TIP3   OH280107   5.949   4.386  13.584 -0.2447 -0.4540 -0.4653
19539TIP3    H180108   5.971   4.418  13.671  3.1620 -1.2108 -0.9317
19539TIP3    H280109   5.943   4.291  13.593  0.0944 -0.5371 -1.0403
19540TIP3   OH280110   0.843   2.385  16.238  0.1807 -0.0114 -0.2345
19540TIP3    H180111   0.787   2.355  16.167  1.1756  0.3181 -1.1717
19540TIP3    H280112   0.901   2.311  16.255 -0.1535 -0.1495  0.3679
19541TIP3   OH280113   2.510   4.407   1.341 -0.3211 -0.2527  0.5911
19541TIP3    H180114   2.477   4.464   1.409 -1.6005 -0.0676 -0.1496
19541TIP3    H280115   2.436   4.396   1.281  0.5050 -1.0929 -0.3120
19542TIP3   OH280116   2.465   1.896   2.661 -0.0958  0.3341  0.3339
19542TIP3    H180117   2.470   1.983   2.701 -1.1422  1.6001 -2.0877
19542TIP3    H280118   2.556   1.867   2.657  0.3721  1.6940  0.4520
19543TIP3   OH280119   2.644   2.994   3.236 -0.2922  0.1051  0.4749
19543TIP3    H180120   2.738   2.992   3.219 -0.1013  1.7765  1.0901
19543TIP3    H280121   2.604   2.980   3.151  0.4106 -3.2412  0.5456
19544TIP3   OH280122   3.502   6.652   0.334  0.2403  0.2899  0.1907
19544TIP3    H180123   3.581   6.662   0.388  1.1865 -0.3730 -1.0266
19544TIP3    H280124   3.430   6.666   0.395  1.2840  1.8801  1.1433
19545TIP3   OH280125   4.813   1.459   2.623  0.1447 -0.2280  0.5650
19545TIP3    H180126   4.821   1.495   2.711  1.0062  0.8507  0.0628
19545TIP3    H280127   4.837   1.531   2.565 -1.3930 -0.6157 -0.6123
19546TIP3   OH280128   0.729   4.310   2.525 -0.0979  0.1989  0.8886
19546TIP3    H180129   0.682   4.326   2.607  0.5122  2.6104  0.8599
19546TIP3    H280130   0.666   4.337   2.457 -0.3778 -1.2038  0.5615
19547TIP3   OH280131   1.715   3.656   6.104  0.6675  0.6164 -0.1402
19547TIP3    H180132   1.710   3.582   6.164 -1.3484  0.5345 -0.3571
19547TIP3    H280133   1.635   3.651   6.051  1.1984  2.0938 -1.1620
19548TIP3   OH280134   5.240   3.453   3.534 -0.3969 -0.1413 -0.4745
19548TIP3    H180135   5.162   3.405   3.508 -1.0499  0.6417  0.0181
19548TIP3    H280136   5.235   3.536   3.486  0.8244 -0.6070 -1.4759
19549TIP3   OH280137   3.984   1.822  12.540 -0.1187  0.2806 -0.5472
19549TIP3    H180138   4.056   1.839  12.480  0.4651  0.2332  0.1256
19549TIP3    H280139   4.011   1.864  12.622 -0.6597 -0.1152 -0.1585
19550TIP3   OH280140   4.370   1.922  11.668 -0.3559 -0.2228 -0.0572
19550TIP3    H180141   4.288   1.967  11.650 -0.0298 -0.0001 -1.0406
19550TIP3    H280142   4.407   1.968  11.743 -0.6811  0.2810 -0.2025
19551TIP3   OH280143   2.727   1.809  12.908  0.1715 -0.4086  0.8231
19551TIP3    H180144   2.643   1.764  12.901 -0.0668  0.0071  0.9615
19551TIP3    H280145   2.715   1.870  12.981  0.4779 -0.1078  0.6236
19552TIP3   OH280146   3.700   5.443   1.573 -0.3575  0.2265 -0.6373
19552TIP3    H180147   3.638   5.391   1.624  1.3322  0.1010  1.4224
19552TIP3    H280148   3.655   5.526   1.558 -1.4971 -0.3127 -0.3299
19553TIP3   OH280149   0.479   4.931  17.369 -0.7268 -0.4118 -0.7190
19553TIP3    H180150   0.534   4.880  17.429  3.2338  1.4682 -2.3877
19553TIP3    H280151   0.498   4.894  17.283 -2.1688  0.3140 -1.3764
19554TIP3   OH280152   3.361   4.173  13.971 -0.0238  0.1732 -0.5302
19554TIP3    H180153   3.446   4.188  14.013 -0.0602  1.3023 -0.8293
19554TIP3    H280154   3.380   4.116  13.896  0.4266  0.2000 -0.4360
19555TIP3   OH280155   6.172   2.025  15.309  0.0482  0.4382  0.4703
19555TIP3    H180156   6.095   2.027  15.253  1.0961 -0.7798 -1.1078
19555TIP3    H280157   6.137   2.021  15.398 -1.7900 -2.0121 -0.2537
19556TIP3   OH280158   3.802   3.038  13.874  0.6829 -0.3275 -0.0703
19556TIP3    H180159   3.793   2.947  13.903 -1.1102  0.4454  2.1227
19556TIP3    H280160   3.715   3.060  13.839  0.5365  1.0422  1.1003
19557TIP3   OH280161   0.652   2.471   6.120  0.0575  0.1784  0.0569
19557TIP3    H180162   0.716   2.405   6.092  1.0458  1.0416  0.1953
19557TIP3    H280163   0.588   2.474   6.050  1.2229  0.6377 -1.0265
19558TIP3   OH280164   6.614   6.366  11.276  0.0226  0.2176 -0.2819
19558TIP3    H180165   6.663   6.419  11.213  0.3430  0.0767 -0.1545
19558TIP3    H280166   6.525   6.403  11.275 -0.1922 -0.2898 -1.3983
19559TIP3   OH280167   0.442   3.829  12.096  0.1921  0.7274  0.1596
19559TIP3    H180168   0.355   3.791  12.089  0.0151  0.9216  1.1353
19559TIP3    H280169   0.497   3.757  12.128  0.7034  0.2234 -1.6828
19560TIP3   OH280170   5.186   4.696   2.019  0.3938  0.2223  0.1985
19560TIP3    H180171   5.125   4.744   2.075 -0.9362 -1.7320  0.5456
19560TIP3    H280172   5.227   4.763   1.965 -0.8003  1.7976  1.1464
19561TIP3   OH280173   0.035   1.261   5.615  0.1288 -0.1380 -0.0857
19561TIP3    H180174   0.044   1.200   5.542 -1.2458 -0.4265 -0.0385
19561TIP3    H280175   0.057   1.209   5.693 -0.5993 -0.4649 -0.0894
19562TIP3   OH280176   0.687   4.139   5.403 -0.1877 -0.1971  0.0643
19562TIP3    H180177   0.632   4.063   5.422  0.0540 -0.2867  0.4243
19562TIP3    H280178   0.736   4.153   5.484  1.2465 -0.8949 -0.6471
19563TIP3   OH280179   5.183   2.369  13.980 -0.1147 -0.0145  0.3337
19563TIP3    H180180   5.117   2.390  13.913 -1.9898  2.3940  2.7222
19563TIP3    H280181   5.141   2.391  14.063  3.1770  0.0888  2.1303
19564TIP3   OH280182   5.643   6.402   4.344 -0.1194  0.0761  0.2751
19564TIP3    H180183   5.713   6.352   4.387 -1.3660 -0.8806  1.2677
19564TIP3    H280184   5.632   6.479   4.400 -0.7691 -0.4592  0.9069
19565TIP3   OH280185   6.398   6.106   1.213 -0.4111  0.7776 -0.1349
19565TIP3    H180186   6.412   6.012   1.226  1.3335  1.0431  0.2001
19565TIP3    H280187   6.385   6.116   1.118  1.1147  0.3570 -0.4177
19566TIP3   OH280188   1.495   0.218   4.666 -0.2810  0.2946 -0.6293
19566TIP3    H180189   1.478   0.309   4.689 -0.3875  0.4013 -1.1061
19566TIP3    H280190   1.578   0.197   4.709 -0.1496  0.6817 -0.6870
19567TIP3   OH280191   2.547   3.399  13.043  0.4638 -0.4779 -0.1653
19567TIP3    H180192   2.555   3.307  13.021  1.9876 -0.6733  1.0010
19567TIP3    H280193   2.493   3.401  13.122 -0.7910 -0.2235 -1.0100
19568TIP3   OH280194   3.477   3.171  15.186  0.3673 -0.7357 -0.3485
19568TIP3    H180195   3.533   3.249  15.183 -0.5290 -0.0488  0.1178
19568TIP3    H280196   3.403   3.193  15.130  0.9141 -1.9397 -1.5797
19569TIP3   OH280197   1.914   1.595  12.460  0.5812  0.1373 -0.0217
19569TIP3    H180198   1.839   1.566  12.409 -0.2703 -0.0421  1.2779
19569TIP3    H280199   1.941   1.517  12.509  0.9392  0.4766  0.3278
19570TIP3   OH280200   2.599   6.210  13.229 -0.4498  0.2630 -0.3243
19570TIP3    H180201   2.589   6.122  13.265  0.4533  0.3144  0.0615
19570TIP3    H280202   2.554   6.266  13.292 -1.0710  0.0814 -0.5965
19571TIP3   OH280203   6.325   3.040  11.721  0.1202 -0.2328 -0.5336
19571TIP3    H180204   6.371   2.972  11.771  3.6376  2.7034  0.7354
19571TIP3    H280205   6.260   3.074  11.783 -0.2072 -1.0312 -0.4250
19572TIP3   OH280206   3.005   2.123   0.654  0.6011  0.1894  0.3930
19572TIP3    H180207   3.066   2.192   0.630 -0.4093  1.3094  0.9114
19572TIP3    H280208   3.036   2.093   0.740 -0.3403  1.7408  1.3203
19573TIP3   OH280209   5.562   5.763  11.396  0.3357  0.1220  0.3980
19573TIP3    H180210   5.637   5.798  11.348 -1.1452  3.3219  0.2233
19573TIP3    H280211   5.496   5.746  11.329  0.7020 -2.4259  0.5794
19574TIP3   OH280212   1.402   1.604  14.451  0.5746 -0.1595 -0.2717
19574TIP3    H180213   1.498   1.605  14.452  0.7636 -3.6006 -1.6690
19574TIP3    H280214   1.378   1.620  14.360 -0.1924  0.7229  0.0724
19575TIP3   OH280215   0.464   2.950   4.482 -0.3202  0.5256  0.2902
19575TIP3    H180216   0.413   2.922   4.405  0.3621  2.5494 -0.9752
19575TIP3    H280217   0.555   2.943   4.455 -0.0812  1.6890  0.7493
19576TIP3   OH280218   1.771   6.307  14.939  0.7859  0.0235  0.1915
19576TIP3    H180219   1.826   6.308  15.017 -0.0925 -0.0558  0.8375
19576TIP3    H280220   1.697   6.250  14.963  0.2820  0.3488 -0.5447
19577TIP3   OH280221   1.410   5.510  12.158  0.0543  0.0478 -0.5210
19577TIP3    H180222   1.461   5.546  12.230  0.3693  3.5720 -2.2815
19577TIP3    H280223   1.374   5.587  12.113 -1.5944 -2.0294 -3.0841
19578TIP3   OH280224   1.050   1.702  17.042  0.2857  0.3065  0.2771
19578TIP3    H180225   1.058   1.746  16.957  0.8112  1.1152  0.7387
19578TIP3    H280226   1.107   1.751  17.101  0.5491 -0.7304  0.9214
19579TIP3   OH280227   1.836   2.044   3.779  0.1287  0.5311  0.3498
19579TIP3    H180228   1.882   1.970   3.819 -1.6226 -0.5099  0.5471
19579TIP3    H280229   1.768   2.004   3.724  0.5683  1.9771 -1.3651
19580TIP3   OH280230   6.344   5.546   5.813  0.3074  0.3725 -0.2692
19580TIP3    H180231   6.358   5.598   5.734 -1.2203  0.9776 -0.1818
19580TIP3    H280232   6.383   5.599   5.883  1.8775 -0.2764 -0.6125
19581TIP3   OH280233   2.887   1.867  14.864  0.2339  0.0150 -0.2817
19581TIP3    H180234   2.920   1.915  14.940  0.7047 -0.1999 -0.3473
19581TIP3    H280235   2.887   1.931  14.793  1.1065 -0.1463 -0.4329
19582TIP3   OH280236   6.033   3.732   4.153 -0.2190  0.2102 -0.3876
19582TIP3    H180237   6.002   3.651   4.194  1.7537  0.4258  1.7330
19582TIP3    H280238   6.125   3.714   4.131 -0.5198  0.9822 -2.5089
19583TIP3   OH280239   6.272   6.444  12.274 -0.2463  0.3217  0.0238
19583TIP3    H180240   6.216   6.430  12.350 -1.3376 -1.1101 -0.9786
19583TIP3    H280241   6.319   6.362  12.263 -1.3359 -0.1267 -1.7681
19584TIP3   OH280242   3.973   4.905   4.181 -0.3380 -0.3739 -0.9307
19584TIP3    H180243   4.044   4.876   4.124 -0.2284 -0.5553 -0.7054
19584TIP3    H280244   3.911   4.949   4.122  1.7296  3.3114 -0.6858
19585TIP3   OH280245   0.383   1.039  14.674  0.3222  0.2291 -0.4322
19585TIP3    H180246   0.450   1.065  14.738  0.8748  1.2636 -1.3873
19585TIP3    H280247   0.405   0.949  14.651  0.7202  0.1901  0.0912
19586TIP3   OH280248   3.224   3.833  17.447  0.4934 -0.2840 -0.4471
19586TIP3    H180249   3.272   3.842  17.530 -1.0555 -1.1337  0.5882
19586TIP3    H280250   3.225   3.921  17.410  1.3655  0.0761  0.3729
19587TIP3   OH280251   2.316   1.085   1.143  0.1634 -1.0376 -0.0543
19587TIP3    H180252   2.295   1.175   1.170  1.3713 -1.4608  2.7235
19587TIP3    H280253   2.399   1.093   1.097  0.9901 -0.8270  1.4219
19588TIP3   OH280254   1.673   6.125   0.296 -0.1027  0.1559  0.2108
19588TIP3    H180255   1.707   6.154   0.381  1.0975  0.8345 -0.4731
19588TIP3    H280256   1.739   6.065   0.263 -0.2512  0.3897 -0.5205
19589TIP3   OH280257   2.966   2.294  15.418  0.2964  0.0439 -0.2328
19589TIP3    H180258   2.968   2.359  15.348  0.1822  1.3419  0.9295
19589TIP3    H280259   2.976   2.344  15.498  1.9670 -1.5509  0.6311
19590TIP3   OH280260   1.447   0.919   1.812 -0.0572  0.0114  0.1944
19590TIP3    H180261   1.483   0.988   1.758 -0.7469 -0.8698 -1.4715
19590TIP3    H280262   1.522   0.866   1.839  0.1183 -1.0728 -2.1773
19591TIP3   OH280263   5.146   0.062  16.109 -0.3311 -0.2660  0.1828
19591TIP3    H180264   5.215   0.105  16.058 -1.0436  2.0555  1.0394
19591TIP3    H280265   5.092   0.018  16.043  1.7138 -1.8649 -0.5253
19592TIP3   OH280266   2.867   1.097  14.747  0.0519 -0.8598 -0.4553
19592TIP3    H180267   2.904   1.043  14.817 -0.3946 -0.1973  0.3130
19592TIP3    H280268   2.942   1.122  14.693  0.7216  0.2852  0.9560
19593TIP3   OH280269   3.289   0.605  16.905 -0.2759 -0.2617 -0.2036
19593TIP3    H180270   3.320   0.538  16.844  1.7092  0.0601  0.3613
19593TIP3    H280271   3.248   0.555  16.977 -0.2156 -0.7826 -0.5233
19594TIP3   OH280272   4.871   1.742  14.187  0.0425 -0.4314 -0.7061
19594TIP3    H180273   4.806   1.696  14.240 -0.4530  1.4753  0.4477
19594TIP3    H280274   4.941   1.679  14.173  0.9038 -0.6957  3.4711
19595TIP3   OH280275   1.507   1.744   0.888  0.6032  0.0864 -0.5768
19595TIP3    H180276   1.500   1.711   0.978 -0.0641 -0.3433 -0.7752
19595TIP3    H280277   1.544   1.670   0.839  1.9380  0.6640 -0.4783
19596TIP3   OH280278   6.389   3.175   1.766  0.0296 -0.8185 -0.5407
19596TIP3    H180279   6.315   3.141   1.816 -0.1836 -0.3144 -0.5037
19596TIP3    H280280   6.350   3.237   1.705  0.5982  1.0710  0.8979
19597TIP3   OH280281   0.893   1.042  11.314 -0.0119 -0.1197  0.0673
19597TIP3    H180282   0.900   1.137  11.321 -1.3522  0.0644 -0.7361
19597TIP3    H280283   0.859   1.028  11.225  0.1934 -1.3508  0.1739
19598TIP3   OH280284   3.334   4.638  17.471  0.4112 -0.5024 -0.4354
19598TIP3    H180285   3.397   4.577  17.432  1.5517  1.5125 -1.9070
19598TIP3    H280286   3.385   4.716  17.490 -1.8206  1.7124 -2.8538
19599TIP3   OH280287   2.117   5.675   4.427 -0.1931  0.4745  0.5371
19599TIP3    H180288   2.196   5.637   4.390  0.1012  0.3787  1.2459
19599TIP3    H280289   2.047   5.651   4.366  0.8208  3.7594 -2.2211
19600TIP3   OH280290   0.499   6.577  14.532  0.4324  0.0992  0.0197
19600TIP3    H180291   0.526   6.519  14.461  1.9681  0.5223  0.2202
19600TIP3    H280292   0.573   6.578  14.592  0.2897  1.9106  0.2318
19601TIP3   OH280293   4.598   1.156  16.223  0.0112 -0.6025 -0.3896
19601TIP3    H180294   4.516   1.108  16.231  0.0725 -0.7421 -0.5676
19601TIP3    H280295   4.593   1.198  16.137  0.6385 -1.6192 -0.9486
19602TIP3   OH280296   5.004   1.343   2.436  0.2409  0.6665 -0.5098
19602TIP3    H180297   4.959   1.262   2.415  0.8455  0.0718  0.4303
19602TIP3    H280298   4.963   1.373   2.517  1.5406  0.0813  0.3923
19603TIP3   OH280299   5.823   0.135   1.656 -0.2907 -0.1283 -0.2315
19603TIP3    H180300   5.739   0.153   1.698 -0.1040 -0.3394  0.2435
19603TIP3    H280301   5.852   0.219   1.622 -0.5718 -0.0046 -0.1666
19604TIP3   OH280302   0.075   4.310   2.522 -0.1558 -1.0342 -0.1176
19604TIP3    H180303   0.038   4.394   2.495 -1.7800 -2.0056 -1.1123
19604TIP3    H280304   0.163   4.331   2.553 -0.7058  1.0917  0.1563
19605TIP3   OH280305   3.185   6.266   5.896  0.0556  0.1524  0.5153
19605TIP3    H180306   3.124   6.198   5.865 -0.3173  0.5899  0.2726
19605TIP3    H280307   3.269   6.243   5.856 -0.2937  0.3917 -0.3861
19606TIP3   OH280308   3.085   2.507  15.241  0.0981 -0.1305 -0.0178
19606TIP3    H180309   3.060   2.468  15.157  1.7174  0.0064 -0.6025
19606TIP3    H280310   3.067   2.600  15.231  2.1755  0.2117 -1.0132
19607TIP3   OH280311   6.347   1.794   2.621 -0.0013  0.2137 -0.4003
19607TIP3    H180312   6.288   1.840   2.681 -0.2189  1.4956 -1.5380
19607TIP3    H280313   6.335   1.701   2.641 -1.8907  0.4809 -0.1335
19608TIP3   OH280314   3.052   6.578   1.047  0.1947  0.2118 -0.1118
19608TIP3    H180315   3.084   6.495   1.084  1.8094  0.1837 -1.4385
19608TIP3    H280316   3.090   6.645   1.103  0.9673  0.1089 -0.4970
19609TIP3   OH280317   3.056   0.245   1.498  0.1796  0.4221 -0.0150
19609TIP3    H180318   2.979   0.221   1.447  1.1493 -0.8660 -0.9514
19609TIP3    H280319   3.117   0.282   1.434  0.3622  1.3941  0.7060
19610TIP3   OH280320   4.593   5.848   3.637 -0.3026 -0.2921 -0.1703
19610TIP3    H180321   4.534   5.922   3.621  0.9095  0.5322 -0.9857
19610TIP3    H280322   4.630   5.828   3.551 -1.7507 -2.9117 -0.3124
19611TIP3   OH280323   1.263   4.813   1.132  0.2374  0.3969  0.0732
19611TIP3    H180324   1.341   4.822   1.188 -1.1700  1.8811  1.9233
19611TIP3    H280325   1.287   4.858   1.051  1.1259  1.3448  0.8306
19612TIP3   OH280326   0.640   6.624   5.857  0.1968 -0.1020 -0.0136
19612TIP3    H180327   0.617   6.651   5.768  0.9237  0.4853 -0.0325
19612TIP3    H280328   0.736   6.627   5.859  0.2378 -1.1829  0.4630
19613TIP3   OH280329   4.209   3.097   2.712 -0.3887 -0.2091 -0.0516
19613TIP3    H180330   4.253   3.130   2.634 -1.0197  0.3235 -0.1829
19613TIP3    H280331   4.152   3.027   2.679  0.2517 -0.8122  0.1014
19614TIP3   OH280332   3.127   0.618  14.946 -0.7279  0.7512  0.3830
19614TIP3    H180333   3.205   0.635  14.894  1.5722 -2.2010  2.4783
19614TIP3    H280334   3.127   0.686  15.013  0.7817  0.1288  1.0474
19615TIP3   OH280335   4.555   0.028   2.107 -0.4668 -0.3611 -0.2555
19615TIP3    H180336   4.560   0.063   2.196 -1.8769  0.4986 -0.4771
19615TIP3    H280337   4.638   0.053   2.066 -1.2208  2.4201 -0.2573
19616TIP3   OH280338   4.484   0.365  16.505 -0.8598  0.4140 -0.0648
19616TIP3    H180339   4.432   0.412  16.440 -1.0091 -0.9890 -1.0048
19616TIP3    H280340   4.574   0.373  16.474 -1.0797 -1.6701 -1.4669
19617TIP3   OH280341   4.576   5.765  15.892 -0.6346 -0.1720  0.5494
19617TIP3    H180342   4.561   5.744  15.800 -2.9785  0.2930  0.7573
19617TIP3    H280343   4.609   5.684  15.930 -0.6650 -0.6890 -0.4844
19618TIP3   OH280344   1.614   5.530   1.242  0.5300  0.1433 -0.6147
19618TIP3    H180345   1.601   5.453   1.186 -0.9069 -0.0758 -0.0202
19618TIP3    H280346   1.567   5.600   1.198  0.7198  0.3589 -0.4755
19619TIP3   OH280347   2.814   2.105   5.433  0.2652 -0.6626  0.0562
19619TIP3    H180348   2.758   2.108   5.356 -2.5642 -0.7151  1.9916
19619TIP3    H280349   2.826   2.197   5.458 -1.6770 -0.7387  1.4313
19620TIP3   OH280350   1.130   2.634   1.614 -0.0852  0.1256 -0.3373
19620TIP3    H180351   1.134   2.678   1.699  1.4974  0.4505 -0.5586
19620TIP3    H280352   1.050   2.668   1.574 -0.1145  1.0324  0.4593
19621TIP3   OH280353   1.079   5.345   0.516  0.2324 -0.1825  0.0445
19621TIP3    H180354   1.108   5.322   0.604  1.9987 -0.8295 -0.6520
19621TIP3    H280355   1.012   5.412   0.529  1.8018  1.1253  1.8412
19622TIP3   OH280356   5.156   3.253  14.891 -0.0345 -0.4506 -0.0377
19622TIP3    H180357   5.155   3.337  14.845  0.7237 -0.2051  0.3740
19622TIP3    H280358   5.201   3.271  14.973  0.3917 -1.3192 -0.0629
19623TIP3   OH280359   1.471   6.216  15.863 -0.0551  0.2948  0.1164
19623TIP3    H180360   1.439   6.184  15.779 -0.0643  0.0984  0.1957
19623TIP3    H280361   1.422   6.165  15.928  2.3258 -1.9617  0.2822
19624TIP3   OH280362   4.752   1.299   4.973  0.1431 -0.4107  0.0723
19624TIP3    H180363   4.693   1.307   4.898 -0.4138  0.8122  0.6188
19624TIP3    H280364   4.695   1.272   5.045  0.5673 -0.9609  0.2083
19625TIP3   OH280365   1.155   5.485  15.450  0.1458 -0.7067  0.5762
19625TIP3    H180366   1.131   5.573  15.478 -2.9663 -2.0819  2.8235
19625TIP3    H280367   1.120   5.479  15.361  1.5815  0.6632 -0.1382
19626TIP3   OH280368   4.962   6.495  14.330 -0.2436 -0.2373 -0.3106
19626TIP3    H180369   5.039   6.450  14.296 -1.7303 -2.0272 -1.5519
19626TIP3    H280370   4.990   6.585  14.344  2.3920 -1.1113  0.5119
19627TIP3   OH280371   6.125   2.062  16.323 -0.3649  0.1709 -0.2455
19627TIP3    H180372   6.094   2.071  16.413  0.5044  0.1890  0.0580
19627TIP3    H280373   6.069   1.995  16.285 -2.5630  2.0546 -0.5341
19628TIP3   OH280374   0.350   5.982   0.778  0.2267 -0.2061 -0.6208
19628TIP3    H180375   0.394   5.981   0.863  0.1456  2.2134 -0.4960
19628TIP3    H280376   0.317   5.892   0.768  1.7188 -1.0204  1.0793
19629TIP3   OH280377   1.079   0.806   5.617  0.2007 -0.6231 -0.4296
19629TIP3    H180378   1.026   0.727   5.609 -0.4785 -0.3915  1.2857
19629TIP3    H280379   1.143   0.785   5.685  1.2971 -0.3424 -1.3458
19630TIP3   OH280380   2.120   4.691  16.232 -0.5244 -0.1215 -0.3481
19630TIP3    H180381   2.044   4.671  16.176 -1.9757 -1.4930  1.9679
19630TIP3    H280382   2.084   4.694  16.321  2.4433 -3.1495  1.1792
19631TIP3   OH280383   3.925   0.375  16.307  0.2211  0.1523 -0.1263
19631TIP3    H180384   3.874   0.327  16.372 -1.3722  1.6604 -0.1560
19631TIP3    H280385   4.012   0.383  16.345 -0.3205 -0.1162  1.2268
19632TIP3   OH280386   1.847   1.025  16.237 -0.2921  0.8702 -0.4219
19632TIP3    H180387   1.872   0.933  16.241 -0.5894  0.7615 -1.0604
19632TIP3    H280388   1.762   1.029  16.281 -0.3788  0.8022 -0.5819
19633TIP3   OH280389   3.534   1.160   1.721 -0.3740  0.3700 -0.2259
19633TIP3    H180390   3.492   1.234   1.764 -1.3435 -0.2989 -0.0064
19633TIP3    H280391   3.526   1.178   1.627 -1.8624 -0.1136 -0.2165
19634TIP3   OH280392   4.585   5.291   2.547  0.2238  0.5120 -0.2627
19634TIP3    H180393   4.525   5.216   2.548 -0.9156  1.3985 -0.3147
19634TIP3    H280394   4.540   5.356   2.494  1.9044  0.6912 -1.5229
19635TIP3   OH280395   5.548   3.913   1.919  0.2179  0.4796  0.0585
19635TIP3    H180396   5.633   3.898   1.876  0.4245  0.9548  0.2953
19635TIP3    H280397   5.484   3.900   1.849  0.3213 -2.0445  0.3640
19636TIP3   OH280398   2.483   2.530  15.135  0.0495 -0.0518 -0.6084
19636TIP3    H180399   2.502   2.622  15.117  0.9283  0.0563  0.7747
19636TIP3    H280400   2.395   2.530  15.172  0.3714  0.3356  0.1693
19637TIP3   OH280401   5.016   0.711   0.462  0.3684  0.3396  0.1515
19637TIP3    H180402   4.941   0.749   0.417  0.2498 -1.5922 -1.4110
19637TIP3    H280403   4.995   0.720   0.555 -1.0124  1.2856 -0.2120
19638TIP3   OH280404   0.986   1.457   1.312  0.5979  0.0031 -0.1508
19638TIP3    H180405   1.046   1.410   1.370  0.7565  0.2933 -0.0801
19638TIP3    H280406   0.965   1.394   1.243 -1.6050 -1.3274  1.5465
19639TIP3   OH280407   4.980   6.362   4.301  0.2292 -0.2227  0.7745
19639TIP3    H180408   5.022   6.365   4.387  1.8972 -0.2483 -0.0051
19639TIP3    H280409   4.897   6.407   4.314  1.4436  1.8753  1.8813
19640TIP3   OH280410   5.478   5.669  10.890 -0.3184  0.3529 -0.2746
19640TIP3    H180411   5.536   5.593  10.883  1.4388  1.6237 -0.2646
19640TIP3    H280412   5.420   5.662  10.814 -0.3448 -1.0826 -0.1616
19641TIP3   OH280413   5.681   1.542  14.733  0.2181  0.4055  0.5502
19641TIP3    H180414   5.631   1.616  14.768  0.8470  0.8351  0.5616
19641TIP3    H280415   5.771   1.575  14.728  0.5785 -0.4984  0.9394
19642TIP3   OH280416   6.586   4.688  11.749 -0.3987  0.7001 -0.0299
19642TIP3    H180417   6.661   4.725  11.703  1.4912 -1.0645  1.4321
19642TIP3    H280418   6.517   4.684  11.683  1.1667  1.2619 -1.7855
19643TIP3   OH280419   4.553   3.622   0.347  0.7046  0.3029 -0.1797
19643TIP3    H180420   4.643   3.601   0.325  0.7055 -1.0354  1.0138
19643TIP3    H280421   4.558   3.708   0.390  1.5615 -0.2607  0.8785
19644TIP3   OH280422   0.950   2.797   0.637  0.4689 -0.4521  0.0111
19644TIP3    H180423   0.995   2.717   0.612  0.5057 -0.4047 -0.0732
19644TIP3    H280424   0.892   2.770   0.708  1.2541 -0.3403  0.7081
19645TIP3   OH280425   3.553   5.450   4.328 -0.1565 -0.2516 -0.8992
19645TIP3    H180426   3.573   5.543   4.316 -0.1308 -0.3165 -1.4064
19645TIP3    H280427   3.471   5.449   4.377  0.4655  0.0258  0.1660
19646TIP3   OH280428   3.422   2.009   1.179  0.0565  0.4080 -0.2475
19646TIP3    H180429   3.506   1.966   1.161  0.2633  0.0497  1.3601
19646TIP3    H280430   3.445   2.102   1.189  0.6958  0.0784  2.1955
19647TIP3   OH280431   3.281   3.698  13.776 -0.2000  0.1705  0.1237
19647TIP3    H180432   3.226   3.631  13.817  0.4430 -0.7721 -0.5158
19647TIP3    H280433   3.356   3.650  13.741 -0.0308  1.1320 -0.9165
19648TIP3   OH280434   4.526   1.716  13.985  0.1676 -0.0875 -0.1644
19648TIP3    H180435   4.535   1.650  14.053 -0.5249  1.3984  1.4349
19648TIP3    H280436   4.473   1.785  14.025 -1.9055  0.0222 -2.8207
19649TIP3   OH280437   6.029   6.221   1.350  0.7744 -0.3603  0.2180
19649TIP3    H180438   5.993   6.209   1.262 -2.2116  4.7593  0.3455
19649TIP3    H280439   6.101   6.283   1.339 -0.4965  1.4158  1.3613
19650TIP3   OH280440   6.324   4.546  15.673  0.0995 -0.0873 -0.6042
19650TIP3    H180441   6.239   4.510  15.649 -0.7321  2.1815 -1.3893
19650TIP3    H280442   6.349   4.498  15.752 -0.5322 -2.7445 -1.9384
19651TIP3   OH280443   5.063   2.357   0.656  1.1795 -0.3574 -0.0907
19651TIP3    H180444   5.097   2.295   0.720 -0.4524 -1.5807 -0.3462
19651TIP3    H280445   5.138   2.412   0.633  2.5278 -1.8656  0.5760
19652TIP3   OH280446   2.618   3.794   0.493 -0.2666 -0.2421 -0.1447
19652TIP3    H180447   2.538   3.779   0.544  0.0026 -2.2047 -0.1969
19652TIP3    H280448   2.655   3.875   0.529 -1.7258  0.1385  0.5855
19653TIP3   OH280449   1.925   5.047  13.312 -0.1993 -0.5747 -0.3078
19653TIP3    H180450   1.856   5.103  13.276  0.2842  0.5547  0.4512
19653TIP3    H280451   2.000   5.061  13.255 -0.8198 -2.5343 -1.7026
19654TIP3   OH280452   2.045   5.394   0.504 -0.0788  0.2476  0.2779
19654TIP3    H180453   1.952   5.390   0.527 -0.0170  1.1002  0.6844
19654TIP3    H280454   2.087   5.432   0.580  0.6749 -0.5286  0.2592
19655TIP3   OH280455   6.690   0.290   1.473  0.1729 -0.2201  0.1803
19655TIP3    H180456   6.606   0.297   1.519  0.6207  2.1427  0.8109
19655TIP3    H280457   6.667   0.291   1.380 -0.5132  0.5178  0.3458
19656TIP3   OH280458   6.002   3.851   3.782  0.5825 -0.0691  0.2465
19656TIP3    H180459   6.034   3.904   3.855  2.7821  0.3748 -0.9509
19656TIP3    H280460   6.069   3.783   3.772 -0.5841 -1.1792 -0.2836
19657TIP3   OH280461   4.029   3.822  12.711  0.8427 -0.2638  0.2176
19657TIP3    H180462   4.022   3.727  12.699 -0.0665  0.0066 -1.6753
19657TIP3    H280463   4.106   3.847  12.659 -0.0046  0.2643 -0.8034
19658TIP3   OH280464   2.974   4.817  17.441 -0.0288  0.1677 -0.0983
19658TIP3    H180465   2.914   4.884  17.409  0.4842  0.9692  0.5517
19658TIP3    H280466   2.933   4.734  17.419 -0.3533  0.6918 -1.5340
19659TIP3   OH280467   2.383   3.874  13.013  0.2157 -0.4478 -0.3725
19659TIP3    H180468   2.302   3.825  12.999  1.3072 -2.3416 -0.5065
19659TIP3    H280469   2.417   3.840  13.095  0.9557  0.2032 -0.3981
19660TIP3   OH280470   4.479   0.039   1.817  0.0746  0.0467  0.3712
19660TIP3    H180471   4.558   0.078   1.779  0.4001 -0.7857  0.1526
19660TIP3    H280472   4.445   0.105   1.877  0.1478  0.9762 -0.5833
19661TIP3   OH280473   6.129   5.531  11.757  0.3489  0.6187 -0.7502
19661TIP3    H180474   6.035   5.522  11.746  0.5419 -0.6407 -1.5421
19661TIP3    H280475   6.166   5.515  11.670  1.5310 -3.4468  0.2757
19662TIP3   OH280476   1.933   2.854   3.558 -0.6208  0.2379  0.4083
19662TIP3    H180477   1.968   2.887   3.641 -0.3908 -0.7352  0.7180
19662TIP3    H280478   1.885   2.774   3.582 -0.5408 -0.0648 -0.3945
19663TIP3   OH280479   5.844   2.012   0.557  0.2398  0.0418  0.5880
19663TIP3    H180480   5.841   2.050   0.645  1.1279 -0.0959  0.6816
19663TIP3    H280481   5.935   2.022   0.529  0.1967 -0.8420  0.0902
19664TIP3   OH280482   2.887   0.765   5.846  0.0351  0.2501 -0.3142
19664TIP3    H180483   2.974   0.779   5.809  0.4305 -0.8120  0.1361
19664TIP3    H280484   2.827   0.791   5.778  0.6804  2.1448 -0.2058
19665TIP3   OH280485   6.519   2.928  12.407  0.7521  0.5575  0.7282
19665TIP3    H180486   6.442   2.878  12.433  0.1353  2.1152  2.0633
19665TIP3    H280487   6.593   2.869  12.426  0.0164 -0.1332  1.5118
19666TIP3   OH280488   3.503   5.998   6.104  0.3353 -0.3626 -0.0557
19666TIP3    H180489   3.536   6.027   6.189 -1.0197  0.2638  0.2780
19666TIP3    H280490   3.487   5.904   6.115 -1.7380  0.0721  1.0585
19667TIP3   OH280491   0.641   1.204  15.822  0.3706  1.0236  0.2620
19667TIP3    H180492   0.553   1.242  15.813 -0.1854 -0.3707 -0.4365
19667TIP3    H280493   0.673   1.240  15.905 -0.2508  2.7068 -0.1713
19668TIP3   OH280494   0.598   5.774  15.255  0.2664 -0.2094 -0.5404
19668TIP3    H180495   0.607   5.685  15.220  1.0591 -0.0943 -0.6457
19668TIP3    H280496   0.538   5.765  15.329  0.2179 -0.8044 -0.6473
19669TIP3   OH280497   5.872   3.424   0.163 -0.6387  0.5409  0.1231
19669TIP3    H180498   5.922   3.343   0.164 -2.1787 -0.4572 -0.7373
19669TIP3    H280499   5.903   3.471   0.085 -1.3809 -0.3298 -0.7233
19670TIP3   OH280500   5.018   4.170   4.656 -0.4741 -1.3155  0.2535
19670TIP3    H180501   4.969   4.235   4.706 -0.0632 -1.1945  0.5008
19670TIP3    H280502   5.062   4.220   4.588  0.3924 -1.2286  0.8592
19671TIP3   OH280503   4.098   6.714  14.916  0.0843 -0.1086  0.4207
19671TIP3    H180504   4.051   6.705  14.999 -2.2602  3.0785 -0.3951
19671TIP3    H280505   4.153   6.792  14.928 -0.6348  0.6783 -1.0931
19672TIP3   OH280506   1.190   5.163   3.721 -0.0076 -0.4116 -0.0220
19672TIP3    H180507   1.215   5.132   3.634  0.5286  1.2045 -0.4711
19672TIP3    H280508   1.095   5.151   3.724 -0.0289 -0.4861 -0.8293
19673TIP3   OH280509   2.270   1.574  13.501 -0.2966  0.5892  1.2935
19673TIP3    H180510   2.221   1.563  13.582 -1.7552  3.0894  0.8863
19673TIP3    H280511   2.361   1.554  13.524 -1.0200 -1.0805  2.8989
19674TIP3   OH280512   5.301   6.597   5.358  0.4446 -0.7072  0.1990
19674TIP3    H180513   5.386   6.557   5.337  0.2680 -1.1523  0.3088
19674TIP3    H280514   5.303   6.682   5.316  0.8364 -0.8307 -0.0376
19675TIP3   OH280515   0.033   4.417   1.137  0.3224 -0.3651  0.2238
19675TIP3    H180516  -0.020   4.341   1.161  0.3984 -1.3174 -2.3505
19675TIP3    H280517   0.108   4.414   1.196 -1.6311  0.1200  2.8960
19676TIP3   OH280518   2.403   5.987   0.097  0.1760 -0.0103 -0.5570
19676TIP3    H180519   2.324   6.032   0.064  0.6857 -0.1432 -2.0045
19676TIP3    H280520   2.403   5.903   0.052  0.0424 -0.8863  1.0254
19677TIP3   OH280521   5.640   2.604   0.435 -0.2773 -0.1053  0.5014
19677TIP3    H180522   5.618   2.601   0.529 -0.2783 -0.2352  0.4967
19677TIP3    H280523   5.735   2.596   0.433 -0.4222 -2.6986  0.3705
19678TIP3   OH280524   3.002   0.782   5.406  0.7689 -0.0288 -0.3029
19678TIP3    H180525   2.919   0.829   5.415  0.7179 -0.0799 -0.4950
19678TIP3    H280526   2.987   0.697   5.446  1.5046  0.8518  1.9843
19679TIP3   OH280527   0.288   4.925   0.297  0.0916  0.1094  0.1566
19679TIP3    H180528   0.283   4.971   0.381 -0.2117  0.6721 -0.1660
19679TIP3    H280529   0.202   4.883   0.288  0.5445 -0.9741  0.6959
19680TIP3   OH280530   1.737   4.548  17.650  0.4506  0.4216 -0.9255
19680TIP3    H180531   1.693   4.608  17.709  0.7202  1.7265 -2.0105
19680TIP3    H280532   1.675   4.475  17.639  0.4582  0.0517  1.0380
19681TIP3   OH280533   4.343   0.883   5.278 -0.0100  0.1588 -0.6396
19681TIP3    H180534   4.263   0.911   5.324 -0.3804  0.2988 -1.3562
19681TIP3    H280535   4.325   0.901   5.186 -0.7077 -3.2989 -1.3210
19682TIP3   OH280536   6.029   2.635  14.910 -0.3603  0.1399 -0.3633
19682TIP3    H180537   6.116   2.658  14.878  0.3657 -0.6125  1.0099
19682TIP3    H280538   5.971   2.650  14.835  1.3268 -2.1814 -2.2838
19683TIP3   OH280539   5.741   2.826  11.396 -0.2494  0.8472  0.3554
19683TIP3    H180540   5.720   2.913  11.430 -0.5014  0.5692  0.9170
19683TIP3    H280541   5.656   2.786  11.377 -0.1693  0.4412  0.8193
19684TIP3   OH280542   3.787   4.748   5.101  0.5413  0.6939  0.5377
19684TIP3    H180543   3.797   4.681   5.168 -3.1946 -2.1503 -1.3726
19684TIP3    H280544   3.730   4.814   5.141  1.6578  1.1324  1.4234
19685TIP3   OH280545   4.372   3.614   3.079 -0.4976  1.0269  0.1302
19685TIP3    H180546   4.466   3.606   3.097 -0.4278 -0.9131 -0.8439
19685TIP3    H280547   4.365   3.601   2.984 -1.8624 -0.3999  0.3875
19686TIP3   OH280548   1.916   1.046  16.559 -0.0411 -0.3273 -0.1371
19686TIP3    H180549   1.921   0.986  16.633 -0.5911 -2.2081 -1.5511
19686TIP3    H280550   1.925   0.990  16.482  0.8316  1.5914 -1.5181
19687TIP3   OH280551   5.734   4.477   1.497 -0.2336  0.1749  0.3407
19687TIP3    H180552   5.761   4.387   1.482  0.5053  0.6258 -1.2992
19687TIP3    H280553   5.646   4.469   1.534 -0.6441 -1.2241 -0.8091
19688TIP3   OH280554   0.274   2.373  13.600  0.2113  0.0248 -0.0173
19688TIP3    H180555   0.250   2.387  13.508 -0.6438 -2.0442 -0.1571
19688TIP3    H280556   0.212   2.426  13.649 -1.1918 -1.0411 -0.5704
19689TIP3   OH280557   5.570   2.628  12.926  0.6023 -0.1717  0.5663
19689TIP3    H180558   5.534   2.591  12.846  1.0679  1.2745 -0.3523
19689TIP3    H280559   5.628   2.560  12.960 -0.4245 -1.2178  0.2783
19690TIP3   OH280560   6.003   4.232   0.578  0.0314  0.4288 -0.0233
19690TIP3    H180561   6.083   4.206   0.532 -0.8096 -1.8771 -0.2856
19690TIP3    H280562   5.957   4.289   0.517  0.0936 -0.6076 -1.0476
19691TIP3   OH280563   1.207   6.093  14.000 -0.0272 -0.0243 -0.5414
19691TIP3    H180564   1.129   6.079  13.946  0.7983 -0.9593 -1.5428
19691TIP3    H280565   1.196   6.032  14.074 -1.0159  1.0439  0.2184
19692TIP3   OH280566   5.340   0.304   1.909 -0.1117  0.2347  0.6010
19692TIP3    H180567   5.419   0.329   1.957 -0.1337 -0.7448  1.1610
19692TIP3    H280568   5.270   0.305   1.974  0.1579 -2.7951  1.0623
19693TIP3   OH280569   1.781   1.893   0.231 -0.5379 -0.1623 -0.3031
19693TIP3    H180570   1.690   1.866   0.236 -0.5477 -0.5763 -2.0912
19693TIP3    H280571   1.779   1.979   0.188 -0.2503  1.1842  2.2145
19694TIP3   OH280572   0.102   6.490  13.288 -0.4596 -0.5970  0.3379
19694TIP3    H180573   0.007   6.491  13.292 -0.4227  0.1178  2.8422
19694TIP3    H280574   0.123   6.511  13.197 -2.6854 -0.0081 -0.0889
19695TIP3   OH280575   5.276   2.315   3.825 -1.0341 -0.0096 -0.0602
19695TIP3    H180576   5.360   2.356   3.804 -1.2548  0.0714 -0.7947
19695TIP3    H280577   5.213   2.387   3.825 -1.0669 -0.0229  0.7801
19696TIP3   OH280578   4.820   6.145  12.818 -0.4897  0.0231  0.4149
19696TIP3    H180579   4.754   6.085  12.784 -0.4974 -1.6095  3.0618
19696TIP3    H280580   4.904   6.104  12.795 -0.3717  1.1194 -1.2658
19697TIP3   OH280581   5.674   0.973  12.180 -0.0627 -0.2568 -0.0512
19697TIP3    H180582   5.620   0.930  12.112 -0.1411  0.2958 -0.3458
19697TIP3    H280583   5.758   0.929  12.175  0.1347  0.1979 -0.9524
19698TIP3   OH280584   0.487   1.143   2.075  0.0961 -0.0225 -0.0556
19698TIP3    H180585   0.501   1.178   2.163  0.0559  0.7717 -0.3531
19698TIP3    H280586   0.528   1.057   2.077 -1.5564 -0.8382  1.2947
19699TIP3   OH280587   4.215   3.907  14.813  0.5250 -0.2563  0.1232
19699TIP3    H180588   4.280   3.972  14.784  0.2561  0.0274  0.1454
19699TIP3    H280589   4.133   3.938  14.775  0.1623  0.1253  1.1973
19700TIP3   OH280590   5.279   5.589  15.350 -0.4504 -0.5206  0.2674
19700TIP3    H180591   5.276   5.662  15.288  0.2872  0.1958  1.0611
19700TIP3    H280592   5.321   5.518  15.301  0.8961  0.3025  0.2012
19701TIP3   OH280593   0.443   2.449   5.870  0.3092 -0.3242 -0.7334
19701TIP3    H180594   0.528   2.472   5.832  0.2907 -0.1935 -0.6928
19701TIP3    H280595   0.408   2.382   5.811  0.4213 -0.3487 -0.7727
19702TIP3   OH280596   1.539   6.684   3.603 -0.5967 -0.0850 -0.2905
19702TIP3    H180597   1.506   6.750   3.542  0.3395  0.2671 -0.4359
19702TIP3    H280598   1.472   6.681   3.672 -0.9089  0.6451 -0.5437
19703TIP3   OH280599   3.729   5.289   6.753  0.2503  0.2730 -0.4653
19703TIP3    H180600   3.819   5.270   6.724  0.4342 -0.9640  0.7833
19703TIP3    H280601   3.697   5.205   6.787 -1.1540  0.8521 -0.3085
19704TIP3   OH280602   4.304   6.343   3.545  0.2544  0.1447  0.0449
19704TIP3    H180603   4.256   6.419   3.577  0.5803  0.8009 -0.9787
19704TIP3    H280604   4.394   6.375   3.534  0.6100 -0.6632  0.5445
19705TIP3   OH280605   5.483   1.343   1.829 -0.0274 -0.3892 -0.3545
19705TIP3    H180606   5.504   1.296   1.910 -0.9982 -0.0556  0.0994
19705TIP3    H280607   5.415   1.405   1.854 -3.3639 -2.9586 -2.1587
19706TIP3   OH280608   2.301   3.597   2.699  0.4554  0.3985 -0.4429
19706TIP3    H180609   2.315   3.624   2.789  1.8307 -0.6191 -0.3171
19706TIP3    H280610   2.254   3.670   2.658 -0.5343  0.7074  1.1707
19707TIP3   OH280611   2.034   4.097  13.250 -0.2061 -0.3241  0.1499
19707TIP3    H180612   1.972   4.152  13.298 -0.0884  0.2512 -0.3318
19707TIP3    H280613   2.119   4.140  13.262  0.0178 -0.8271  0.3922
19708TIP3   OH280614   4.696   1.291  12.767 -0.2582  0.2073  0.0234
19708TIP3    H180615   4.756   1.290  12.841  0.1850 -1.9824 -0.2968
19708TIP3    H280616   4.711   1.375  12.724  0.3552  0.9838  1.6885
19709TIP3   OH280617   2.106   3.013   3.716 -0.0247  0.6150  0.7845
19709TIP3    H180618   2.093   2.957   3.792 -0.8158  1.6044  1.4028
19709TIP3    H280619   2.194   3.049   3.726  0.5664 -0.6273  0.2820
19710TIP3   OH280620   4.249   1.094   5.721 -0.4900  0.2310  0.0828
19710TIP3    H180621   4.168   1.144   5.717 -1.4625 -1.1238  1.8243
19710TIP3    H280622   4.226   1.008   5.687  1.1525  0.8002 -2.8285
19711TIP3   OH280623   4.077   0.537   2.587  0.0934  0.2832  0.1500
19711TIP3    H180624   4.154   0.489   2.558  2.6402  2.8192  2.0699
19711TIP3    H280625   4.075   0.615   2.531 -0.1919  0.9146  1.0076
19712TIP3   OH280626   4.828   1.824   4.648 -0.6391  0.0888  0.0934
19712TIP3    H180627   4.770   1.794   4.717 -0.4369  0.8513  0.6065
19712TIP3    H280628   4.916   1.815   4.684 -0.4428 -0.8072 -0.5801
19713TIP3   OH280629   3.062   2.774  15.160  0.3000 -0.2831 -0.1362
19713TIP3    H180630   3.040   2.856  15.203  1.1648 -0.9524  1.6827
19713TIP3    H280631   3.140   2.793  15.109  0.8489 -0.1037  0.7586
19714TIP3   OH280632   3.810   6.029   5.575 -0.2175  0.2519 -0.1724
19714TIP3    H180633   3.845   6.051   5.489 -1.5921  2.1511 -0.3117
19714TIP3    H280634   3.886   6.010   5.629  0.7934  1.0022 -1.3024
19715TIP3   OH280635   3.814   6.459  14.480  0.2269  0.1879  0.1419
19715TIP3    H180636   3.764   6.535  14.511  1.8064  0.5774  1.9212
19715TIP3    H280637   3.872   6.495  14.413  0.5333  0.4508  0.5412
19716TIP3   OH280638   0.223   6.345   2.478  0.1926 -0.0174 -0.1718
19716TIP3    H180639   0.255   6.294   2.553  1.0576  1.4804  0.5166
19716TIP3    H280640   0.211   6.280   2.409  1.2201 -1.1738  0.6910
19717TIP3   OH280641   1.241   2.669   2.962  0.5368  0.2895  0.3357
19717TIP3    H180642   1.251   2.574   2.972  1.2338  0.1968 -1.0349
19717TIP3    H280643   1.312   2.706   3.014  0.2467  0.0726  0.8995
19718TIP3   OH280644   3.384   3.739  15.723  0.3218 -0.5212 -0.2684
19718TIP3    H180645   3.479   3.753  15.716  0.0424  1.9228 -0.0241
19718TIP3    H280646   3.354   3.735  15.633  0.4373  0.6946 -0.3761
19719TIP3   OH280647   5.859   2.974   4.479 -0.2939 -0.6224  0.0252
19719TIP3    H180648   5.782   2.924   4.507  0.1928 -0.1681  2.3077
19719TIP3    H280649   5.823   3.056   4.446 -0.8318 -0.7399  0.3022
19720TIP3   OH280650   3.720   4.071   4.248 -0.2891 -0.1129 -0.5098
19720TIP3    H180651   3.775   4.131   4.299  0.4071  0.1053 -1.4843
19720TIP3    H280652   3.639   4.065   4.298  1.2309 -1.9062  2.0014
19721TIP3   OH280653   6.274   4.634  14.260 -0.0349  0.3627  0.4915
19721TIP3    H180654   6.339   4.671  14.320  0.8083  0.8630 -0.6917
19721TIP3    H280655   6.218   4.708  14.237 -0.0881  0.2672  0.3138
19722TIP3   OH280656   2.396   3.547   3.780  0.2149  0.1742  0.3475
19722TIP3    H180657   2.477   3.506   3.809 -0.6582 -0.9370  1.3011
19722TIP3    H280658   2.410   3.641   3.796  0.5567 -0.1926  2.4839
19723TIP3   OH280659   1.493   5.001  13.213 -0.0301 -0.2358  0.2172
19723TIP3    H180660   1.571   4.950  13.189 -0.3493 -0.7018  0.1546
19723TIP3    H280661   1.473   5.051  13.134  0.7946  0.6679  0.5526
19724TIP3   OH280662   0.100   4.080  14.288  0.2355 -0.3497 -0.8435
19724TIP3    H180663   0.134   4.070  14.377 -0.1391 -1.2928 -0.7943
19724TIP3    H280664   0.113   3.994  14.247 -1.5755 -0.5823 -0.9937
19725TIP3   OH280665   0.206   0.319  11.016 -0.1765  0.0605 -0.0541
19725TIP3    H180666   0.202   0.392  10.954  0.5568 -0.0361 -0.2298
19725TIP3    H280667   0.284   0.336  11.068  0.4876 -1.0123 -0.6475
19726TIP3   OH280668   2.590   3.903  16.546  0.0335 -0.1290 -0.4667
19726TIP3    H180669   2.541   3.830  16.509  0.3087 -0.5601  0.0075
19726TIP3    H280670   2.545   3.981  16.514 -0.2373 -0.5052 -1.0058
19727TIP3   OH280671   4.838   3.385  13.866  0.3923 -0.3653 -0.8168
19727TIP3    H180672   4.912   3.335  13.899  0.0939 -0.9303 -0.9974
19727TIP3    H280673   4.874   3.437  13.795  0.7637 -0.1056 -0.4476
19728TIP3   OH280674   5.151   1.956   6.793 -0.1954  0.9029 -0.2190
19728TIP3    H180675   5.215   1.892   6.824 -1.5513 -0.4660 -0.1255
19728TIP3    H280676   5.123   1.922   6.708 -0.9063  1.3975 -0.1912
19729TIP3   OH280677   3.945   6.677  17.202  0.5101 -0.0370  0.1778
19729TIP3    H180678   3.981   6.606  17.148 -1.8033 -1.1196 -0.0907
19729TIP3    H280679   3.903   6.633  17.275  0.8216  1.2283  1.1560
19730TIP3   OH280680   1.783   1.144   5.537  1.0315  0.4946  0.0554
19730TIP3    H180681   1.721   1.212   5.562  0.3411  0.1303 -0.6195
19730TIP3    H280682   1.850   1.189   5.486  0.6726  0.7113 -0.2315
19731TIP3   OH280683   5.143   5.575  13.423 -0.3242  0.0833 -0.3160
19731TIP3    H180684   5.112   5.523  13.497 -0.0721 -1.2605 -1.1191
19731TIP3    H280685   5.063   5.608  13.382 -0.6242 -1.3921 -0.9841
19732TIP3   OH280686   5.919   3.536   6.072 -0.2908 -0.2368  0.3658
19732TIP3    H180687   5.827   3.559   6.086 -0.1660  1.5580 -1.3070
19732TIP3    H280688   5.925   3.515   5.979  1.1210  0.5135  0.2512
19733TIP3   OH280689   1.818   4.944   4.237  0.6076 -0.5863  0.7713
19733TIP3    H180690   1.777   5.003   4.300  0.4432 -0.3132  0.4111
19733TIP3    H280691   1.816   4.858   4.279  1.5939 -0.1967  1.6500
19734TIP3   OH280692   5.087   6.609   1.207 -0.2418  0.2433 -0.0013
19734TIP3    H180693   5.164   6.666   1.203 -1.2370  1.6093 -1.1894
19734TIP3    H280694   5.042   6.636   1.287  0.4405 -0.4888  0.6430
19735TIP3   OH280695   5.571   0.509  11.340 -0.1197 -0.6619 -0.1661
19735TIP3    H180696   5.515   0.576  11.301  1.0239 -0.1557 -1.0290
19735TIP3    H280697   5.534   0.426  11.310 -1.4776 -0.4378  0.8120
19736TIP3   OH280698   5.107   6.369   4.552  0.5068 -0.4534 -0.2385
19736TIP3    H180699   5.199   6.348   4.566  0.5354 -0.6604 -0.7203
19736TIP3    H280700   5.085   6.429   4.624  0.6850 -1.3311  0.5777
19737TIP3   OH280701   0.446   1.602   0.943  0.0135 -0.1830  0.0599
19737TIP3    H180702   0.360   1.561   0.949  0.0752 -0.0737  2.4436
19737TIP3    H280703   0.484   1.565   0.863 -2.4915  0.3657 -1.5320
19738TIP3   OH280704   0.033   3.587   0.075 -0.4488 -0.2595  0.5253
19738TIP3    H180705   0.001   3.667   0.117 -0.2911 -0.0433  0.2429
19738TIP3    H280706   0.120   3.574   0.112 -0.1997  0.0827  0.0743
19739TIP3   OH280707   3.383   0.414   0.145  0.1580  0.2002 -0.6592
19739TIP3    H180708   3.415   0.443   0.059 -1.5415  4.2349 -0.1616
19739TIP3    H280709   3.306   0.361   0.125  0.7794 -0.3571 -1.6370
19740TIP3   OH280710   5.313   3.529   2.955 -0.0301 -0.1355 -0.6876
19740TIP3    H180711   5.348   3.556   2.870  0.0644  0.8762 -0.3510
19740TIP3    H280712   5.302   3.612   3.003  0.6862 -0.7511  0.5819
19741TIP3   OH280713   3.661   4.976  14.543 -0.3066 -0.2029 -0.3730
19741TIP3    H180714   3.619   4.981  14.628  1.3730  1.5114  0.4545
19741TIP3    H280715   3.708   5.059  14.535  2.8791 -1.9162 -1.1605
19742TIP3   OH280716   1.415   5.007  11.007  0.0672 -0.1282 -0.0907
19742TIP3    H180717   1.465   5.060  10.946  0.5023 -0.6447 -0.1949
19742TIP3    H280718   1.338   4.979  10.957 -1.3736  2.2318  0.6382
19743TIP3   OH280719   6.366   2.241  11.849 -0.5689 -0.1281  0.9515
19743TIP3    H180720   6.347   2.317  11.794 -3.0791 -1.2061  0.2034
19743TIP3    H280721   6.450   2.262  11.891  0.8029  1.3229 -2.2210
19744TIP3   OH280722   5.747   3.206  12.771 -0.0122 -0.5092 -0.4212
19744TIP3    H180723   5.721   3.116  12.793 -1.6953 -0.4920 -2.0382
19744TIP3    H280724   5.673   3.239  12.719  0.5051  1.8701  0.2740
19745TIP3   OH280725   6.697   6.407  16.438  0.2809  0.2692 -0.1865
19745TIP3    H180726   6.665   6.390  16.527 -0.2493  0.0388 -0.4140
19745TIP3    H280727   6.788   6.377  16.438  0.4893  0.8701  0.4557
19746TIP3   OH280728   3.113   5.896  11.532 -0.7383  0.5896  0.4025
19746TIP3    H180729   3.160   5.978  11.523 -0.6543  0.5626  0.5808
19746TIP3    H280730   3.068   5.884  11.449 -1.5106  1.2840  0.7045
19747TIP3   OH280731   4.343   5.783   1.177 -0.0414 -0.4224  0.4531
19747TIP3    H180732   4.320   5.871   1.208  0.4701 -0.4568  0.9252
19747TIP3    H280733   4.380   5.798   1.090  1.0129 -0.0618  0.9510
19748TIP3   OH280734   3.392   5.646   2.323  0.7561  0.2984  0.1603
19748TIP3    H180735   3.471   5.682   2.283  0.9313 -0.9872 -0.7494
19748TIP3    H280736   3.424   5.585   2.389  0.5634 -0.5452 -0.5009
19749TIP3   OH280737   1.825   3.248   5.481  0.2061 -0.2629 -0.0511
19749TIP3    H180738   1.809   3.272   5.572  0.1256 -0.2947 -0.0567
19749TIP3    H280739   1.893   3.309   5.452  2.2798 -2.0159  0.8461
19750TIP3   OH280740   0.403   6.675  16.184  0.0724 -0.5148  0.3707
19750TIP3    H180741   0.448   6.691  16.267 -0.9648  0.6677  0.7302
19750TIP3    H280742   0.345   6.600  16.202 -0.2110 -0.2070  0.7470
19751TIP3   OH280743   3.882   5.160   2.056  0.0199  0.1358  0.0749
19751TIP3    H180744   3.949   5.119   2.110  2.1301  0.1666 -2.3414
19751TIP3    H280745   3.930   5.225   2.003 -2.3005  1.7781 -0.1660
19752TIP3   OH280746   0.444   4.102  13.273 -0.1524 -0.1911  0.0174
19752TIP3    H180747   0.424   4.035  13.339  0.9502 -1.8785 -1.2791
19752TIP3    H280748   0.463   4.053  13.193 -0.8669  1.7641 -1.4358
19753TIP3   OH280749   1.196   6.716   5.808  0.3685  0.1537 -0.2778
19753TIP3    H180750   1.287   6.725   5.781  0.2635 -1.0040 -1.0835
19753TIP3    H280751   1.195   6.639   5.865 -0.0958  0.2162 -0.1969
19754TIP3   OH280752   4.723   2.601  14.602  0.1501  0.1915  0.9828
19754TIP3    H180753   4.766   2.644  14.676 -1.6054  1.1071  1.5321
19754TIP3    H280754   4.630   2.599  14.626 -0.4283  0.2393 -1.0533
19755TIP3   OH280755   3.012   3.514  15.509 -0.2409  0.1358  0.1117
19755TIP3    H180756   2.981   3.540  15.422 -0.2740 -0.3804 -0.0348
19755TIP3    H280757   3.107   3.528  15.505 -0.0186 -1.3507 -0.5476
19756TIP3   OH280758   5.168   3.655   4.213  0.3837 -0.4994 -0.0808
19756TIP3    H180759   5.147   3.726   4.152 -0.8283 -0.8222 -0.0809
19756TIP3    H280760   5.118   3.580   4.179  0.8125 -1.0566  0.5133
19757TIP3   OH280761   5.520   0.358   0.623 -0.0098  0.5125 -0.1264
19757TIP3    H180762   5.563   0.404   0.551  1.2251 -0.4963 -0.0612
19757TIP3    H280763   5.436   0.330   0.587 -0.4513  2.0881 -0.4091
19758TIP3   OH280764   6.267   2.201   0.017  0.5787  0.1689  0.1667
19758TIP3    H180765   6.208   2.128  -0.002  0.5217  0.6556 -1.6945
19758TIP3    H280766   6.340   2.160   0.065 -0.3826 -0.7476  0.8943
19759TIP3   OH280767   1.657   1.420  16.178 -0.2639 -0.0105  0.1935
19759TIP3    H180768   1.582   1.440  16.122 -1.2538 -2.2615  0.6214
19759TIP3    H280769   1.698   1.343  16.137  1.2593  0.5732  0.5293
19760TIP3   OH280770   4.433   3.927   3.499  0.1513 -0.1414  0.1119
19760TIP3    H180771   4.349   3.883   3.512  0.5802 -0.3660  2.6632
19760TIP3    H280772   4.409   4.016   3.470 -1.1671  0.5546  2.9753
19761TIP3   OH280773   1.021   6.079   6.469  0.0743  0.3220  0.0649
19761TIP3    H180774   1.009   5.986   6.454  3.3042 -0.4458  1.4401
19761TIP3    H280775   1.042   6.086   6.562 -0.6683  2.5312  0.1266
19762TIP3   OH280776   5.942   0.982   4.666  0.1411  0.6555 -0.8170
19762TIP3    H180777   5.894   0.977   4.749  2.2014  0.2732  0.4189
19762TIP3    H280778   5.958   1.076   4.653  0.7509  0.6475 -0.1843
19763TIP3   OH280779   5.876   1.928   0.148 -0.0491 -0.6499 -0.2286
19763TIP3    H180780   5.842   1.919   0.237  0.3369  1.2258  0.1594
19763TIP3    H280781   5.900   1.839   0.122  0.0192 -1.2151  1.6267
19764TIP3   OH280782   5.296   3.073   1.167 -0.1225  0.3024 -0.6974
19764TIP3    H180783   5.298   2.979   1.150 -0.1561  0.0641  0.5266
19764TIP3    H280784   5.203   3.095   1.171 -0.1731  0.8999 -3.4679
19765TIP3   OH280785   4.605   1.713   4.049 -0.3064 -0.1257  0.8122
19765TIP3    H180786   4.542   1.642   4.062  0.6220 -0.8528  1.4804
19765TIP3    H280787   4.555   1.793   4.067 -1.4658 -0.5636 -0.3291
19766TIP3   OH280788   2.151   2.068   1.324 -0.6845  0.1364 -0.2398
19766TIP3    H180789   2.099   2.004   1.374 -0.9504 -0.3920 -1.1547
19766TIP3    H280790   2.237   2.027   1.316 -0.5044  0.4281  0.1657
19767TIP3   OH280791   2.248   3.075  15.867 -0.4461 -0.2137 -0.0492
19767TIP3    H180792   2.308   3.034  15.928 -0.5512  0.9234  0.8452
19767TIP3    H280793   2.216   3.152  15.913 -0.4291  0.7437 -1.5914
19768TIP3   OH280794   6.013   1.958  13.755 -0.4391  0.0501  0.3883
19768TIP3    H180795   5.918   1.967  13.756 -0.3044  2.1534  0.1341
19768TIP3    H280796   6.038   1.963  13.847 -0.3129  5.4320  0.3980
19769TIP3   OH280797   0.966   2.703   2.396  1.0368 -0.1944 -0.2031
19769TIP3    H180798   0.904   2.772   2.422  2.6345  1.3480 -0.3255
19769TIP3    H280799   0.936   2.676   2.309 -0.5822 -0.8797  0.5126
19770TIP3   OH280800   1.026   4.633   1.807  0.0073 -0.1077 -0.4003
19770TIP3    H180801   0.964   4.642   1.880 -1.0540  0.5073 -1.3586
19770TIP3    H280802   1.011   4.545   1.773  0.0878 -0.1764 -0.2608
19771TIP3   OH280803   2.852   4.322  12.485  0.1074  0.1401  0.1241
19771TIP3    H180804   2.810   4.362  12.561  0.5499  0.7405  0.0548
19771TIP3    H280805   2.826   4.230  12.489 -1.2186  0.4883  0.0848
19772TIP3   OH280806   0.975   3.049   6.671  0.3326 -0.2521  0.1137
19772TIP3    H180807   0.950   2.990   6.743  2.9391  0.1478  1.4788
19772TIP3    H280808   0.982   3.135   6.712 -0.7085  0.5196 -1.2556
19773TIP3   OH280809   0.200   2.897   3.734  0.2789 -0.0108  0.7051
19773TIP3    H180810   0.294   2.916   3.739  0.2359  0.3405  0.2088
19773TIP3    H280811   0.194   2.804   3.756  1.0561 -0.7458 -1.8198
19774TIP3   OH280812   1.605   3.109   3.339 -0.1844  0.6432  0.2247
19774TIP3    H180813   1.603   3.081   3.431  0.1137 -0.4005 -0.0794
19774TIP3    H280814   1.545   3.050   3.295 -0.0211  0.8861 -0.3261
19775TIP3   OH280815   1.121   5.301   2.338 -0.2188 -0.2096  0.0907
19775TIP3    H180816   1.104   5.248   2.260 -2.6295 -0.3486  0.6349
19775TIP3    H280817   1.056   5.273   2.401  1.1088  0.5458  1.8768
19776TIP3   OH280818   1.944   0.643   5.844 -0.5754 -0.1054 -0.9744
19776TIP3    H180819   1.912   0.725   5.807 -2.1527 -0.1663  0.1361
19776TIP3    H280820   2.017   0.668   5.901 -1.5468  0.6730 -0.0201
19777TIP3   OH280821   1.319   3.916   4.797  0.4869 -0.1435 -0.4233
19777TIP3    H180822   1.385   3.929   4.865  0.9647 -1.1254 -0.6699
19777TIP3    H280823   1.357   3.954   4.719  0.3191  0.2003 -0.3371
19778TIP3   OH280824   0.820   4.923   2.812 -0.0364 -0.0647 -0.0675
19778TIP3    H180825   0.822   4.912   2.907  0.6802  1.2144  0.0901
19778TIP3    H280826   0.838   4.836   2.777 -1.4269 -0.7796  0.9459
19779TIP3   OH280827   5.857   1.667   5.002 -0.1709  0.0970 -0.0049
19779TIP3    H180828   5.809   1.721   4.939 -0.5601  0.2792  0.4397
19779TIP3    H280829   5.822   1.579   4.989 -1.2233  0.3552  0.8467
19780TIP3   OH280830   0.633   2.206   1.344  0.5757 -0.0289  0.2516
19780TIP3    H180831   0.669   2.125   1.380 -0.6130 -0.9640 -0.5981
19780TIP3    H280832   0.549   2.216   1.388  0.4392  0.4222 -0.1044
19781TIP3   OH280833   3.969   3.823   1.667  0.0753  0.3800  0.2989
19781TIP3    H180834   3.973   3.867   1.752  0.1510 -2.3330  1.8067
19781TIP3    H280835   4.024   3.746   1.677 -1.0638 -0.7829 -1.7219
19782TIP3   OH280836   3.166   1.987  14.910 -0.2308  0.0936 -0.1176
19782TIP3    H180837   3.145   1.896  14.932  2.8332 -0.4104  1.2501
19782TIP3    H280838   3.111   2.040  14.967 -1.3816 -0.8910 -0.2798
19783TIP3   OH280839   4.646   1.172  10.717  0.3150 -0.8104  0.5588
19783TIP3    H180840   4.593   1.182  10.637  1.8075  2.2369 -0.2068
19783TIP3    H280841   4.647   1.078  10.734 -0.9257 -1.4673 -2.4151
19784TIP3   OH280842   4.362   6.389   4.239 -0.1776 -0.1704  0.5859
19784TIP3    H180843   4.438   6.428   4.282 -1.0213  0.4540  1.5708
19784TIP3    H280844   4.308   6.464   4.214 -0.7950 -0.6325  0.5265
19785TIP3   OH280845   6.086   5.472   2.930  0.2524 -0.6635  0.5855
19785TIP3    H180846   6.032   5.398   2.902 -0.7614  0.0921  0.5080
19785TIP3    H280847   6.067   5.481   3.024 -0.8742  0.4980  0.2668
19786TIP3   OH280848   5.011   4.242   1.289  0.5865  0.0011 -0.1114
19786TIP3    H180849   5.043   4.157   1.262 -1.5061 -0.2467 -2.1088
19786TIP3    H280850   4.918   4.241   1.267  0.1327  2.2083  1.3629
19787TIP3   OH280851   0.328   1.711   4.757 -0.0839 -0.0119  0.2058
19787TIP3    H180852   0.352   1.665   4.837 -0.5767 -1.4649 -0.4578
19787TIP3    H280853   0.402   1.698   4.698  0.6312  1.7185  0.6418
19788TIP3   OH280854   5.871   5.998  17.209 -0.0401  0.0489 -0.0271
19788TIP3    H180855   5.900   5.940  17.280 -0.3705  0.1944  0.2298
19788TIP3    H280856   5.800   5.950  17.166  0.8268 -0.4890 -0.9159
19789TIP3   OH280857   0.870   5.512   3.633 -0.4972  0.1128  0.9560
19789TIP3    H180858   0.800   5.524   3.570 -0.3006  0.1464  0.7444
19789TIP3    H280859   0.832   5.454   3.700 -1.1445  1.1334  1.5107
19790TIP3   OH280860   6.625   0.242   0.955  0.6107 -0.0732 -0.4650
19790TIP3    H180861   6.619   0.147   0.959  0.0206 -0.1573 -2.5104
19790TIP3    H280862   6.636   0.262   0.862  1.6418  1.8234  0.0175
19791TIP3   OH280863   6.541   6.252   0.083 -0.4020 -0.8514 -0.5629
19791TIP3    H180864   6.511   6.173   0.128 -0.3908 -0.5651 -0.0452
19791TIP3    H280865   6.597   6.220   0.013 -1.9977 -1.4111 -1.6352
19792TIP3   OH280866   0.432   4.128  14.647 -0.5238  0.3391 -0.2364
19792TIP3    H180867   0.363   4.188  14.674 -0.4091  0.5938 -0.5044
19792TIP3    H280868   0.461   4.086  14.728 -0.0536  1.2287  0.0757
19793TIP3   OH280869   2.520   4.020   2.455  0.3839 -0.4322  0.1543
19793TIP3    H180870   2.612   4.012   2.480  0.5309 -2.1802 -0.8270
19793TIP3    H280871   2.472   4.014   2.538  1.1054 -0.0915  0.6073
19794TIP3   OH280872   1.510   5.355   3.414  0.0310 -0.2013  0.3661
19794TIP3    H180873   1.488   5.436   3.460  2.3905  0.5930  0.2430
19794TIP3    H280874   1.536   5.384   3.326  2.2907 -0.8465  0.7548
19795TIP3   OH280875   2.730   0.951   3.905 -0.2524  0.2320 -0.0191
19795TIP3    H180876   2.797   1.000   3.858  2.1098 -0.5204  2.3037
19795TIP3    H280877   2.722   0.869   3.856  0.3752  0.4053 -0.4211
19796TIP3   OH280878   2.962   2.726  13.180 -0.0967 -0.2057 -0.8818
19796TIP3    H180879   3.001   2.811  13.157  2.3113 -1.7927 -3.2136
19796TIP3    H280880   3.032   2.680  13.228 -1.9342 -0.3800  1.8818
19797TIP3   OH280881   0.707   0.723  12.921 -0.0209 -0.1792 -0.1880
19797TIP3    H180882   0.687   0.786  12.852 -2.4073  2.4605  2.6516
19797TIP3    H280883   0.777   0.765  12.971  1.5880 -1.9976 -0.8126
19798TIP3   OH280884   1.985   3.779   3.315  0.6323 -0.2832  0.4414
19798TIP3    H180885   2.020   3.696   3.346  2.2551  0.3678  0.4934
19798TIP3    H280886   1.953   3.823   3.394  0.2509 -0.6333  0.4842
19799TIP3   OH280887   1.085   5.568   5.147  0.0312  0.1718  0.0802
19799TIP3    H180888   1.053   5.478   5.146 -0.5897  0.3705  0.7111
19799TIP3    H280889   1.112   5.586   5.057 -0.6645 -0.3624 -0.2382
19800TIP3   OH280890   3.734   4.138   2.859  0.4990 -0.0002  0.1538
19800TIP3    H180891   3.798   4.068   2.849  0.0969 -0.2605 -0.7203
19800TIP3    H280892   3.759   4.202   2.792  1.9844  1.6079  2.1155
19801TIP3   OH280893   2.970   0.196  13.925  0.2108  0.1166 -0.7966
19801TIP3    H180894   2.961   0.199  14.020  0.0893 -0.6570 -0.7812
19801TIP3    H280895   3.046   0.252  13.907 -1.5431  2.7619 -0.5205
19802TIP3   OH280896   1.807   1.937   1.734 -0.1608  0.1017 -0.3040
19802TIP3    H180897   1.831   2.024   1.767 -2.4565  0.2900  1.1132
19802TIP3    H280898   1.826   1.878   1.807 -1.9568 -0.0093  0.1229
19803TIP3   OH280899   0.717   2.758  14.234  0.3924 -0.3155  0.1123
19803TIP3    H180900   0.756   2.826  14.180  1.4178  1.0001  2.3399
19803TIP3    H280901   0.769   2.680  14.217  0.4488 -0.0322 -1.0444
19804TIP3   OH280902   5.138   1.886   4.298  0.1193  0.7053 -0.3224
19804TIP3    H180903   5.205   1.823   4.323 -0.2771  0.5746  0.4323
19804TIP3    H280904   5.187   1.957   4.255  0.5984  0.0489 -0.8927
19805TIP3   OH280905   3.507   6.593  16.911 -0.1782  0.3090 -0.2508
19805TIP3    H180906   3.598   6.571  16.930 -1.0542 -2.0074  1.6709
19805TIP3    H280907   3.512   6.649  16.834  2.9751  1.7407  0.8078
19806TIP3   OH280908   0.549   2.179   2.345 -0.4538  0.3580 -0.7398
19806TIP3    H180909   0.633   2.152   2.382 -0.5527  0.4793 -0.4193
19806TIP3    H280910   0.494   2.196   2.422 -0.6701  0.5938 -0.9452
19807TIP3   OH280911   6.320   6.006  17.350 -0.2752 -0.1607  0.3157
19807TIP3    H180912   6.310   5.971  17.438 -1.6688 -0.1872  0.1617
19807TIP3    H280913   6.410   6.038  17.347  0.1299 -1.1568  1.3804
19808TIP3   OH280914   4.464   4.606   6.119 -0.5777  0.4788 -0.2284
19808TIP3    H180915   4.431   4.587   6.207  0.7139  0.1139  0.1931
19808TIP3    H280916   4.524   4.680   6.131  0.9811 -0.6858 -0.4857
19809TIP3   OH280917   2.902   6.268   6.147  0.1170  0.0590 -0.2336
19809TIP3    H180918   2.807   6.273   6.136  0.1866  2.4061 -0.1603
19809TIP3    H280919   2.919   6.176   6.169 -2.0836 -0.4759 -0.6018
19810TIP3   OH280920   3.808   6.535  12.871 -0.1438  0.0222 -0.1874
19810TIP3    H180921   3.831   6.627  12.883  1.5275 -0.5696  1.6077
19810TIP3    H280922   3.883   6.486  12.904 -0.9234 -2.0131 -1.2264
19811TIP3   OH280923   6.379   0.132  14.995 -0.3628 -0.0840  1.0668
19811TIP3    H180924   6.353   0.220  14.970  0.6046 -0.4653 -1.5268
19811TIP3    H280925   6.300   0.079  14.985  0.0001 -0.2387 -1.5218
19812TIP3   OH280926   5.523   0.528  11.025  0.3229 -0.6028  0.4704
19812TIP3    H180927   5.470   0.466  11.074  0.5497 -0.2281  1.2075
19812TIP3    H280928   5.598   0.477  10.994  0.3755 -0.7579  0.8485
19813TIP3   OH280929   2.622   5.235  12.479  0.1713  0.8241  0.2134
19813TIP3    H180930   2.613   5.140  12.472  0.7414  0.9147 -3.4887
19813TIP3    H280931   2.534   5.265  12.504 -0.5504 -0.5684 -0.5381
19814TIP3   OH280932   4.040   1.774   5.622  0.2859 -0.2466  0.2293
19814TIP3    H180933   4.094   1.699   5.597 -0.5098 -0.4293 -1.0126
19814TIP3    H280934   3.956   1.736   5.648  0.0027  0.1757 -0.0523
19815TIP3   OH280935   2.644   6.486   6.032  0.0536 -0.0592  0.1959
19815TIP3    H180936   2.670   6.413   6.088 -0.3171  0.2221  0.7456
19815TIP3    H280937   2.564   6.519   6.072  0.9739  1.5537  0.8273
19816TIP3   OH280938   4.449   1.883   2.251 -0.0735  0.2523 -0.4907
19816TIP3    H180939   4.430   1.832   2.330 -2.0889 -0.0128 -1.0934
19816TIP3    H280940   4.517   1.832   2.205 -1.0338 -1.1645 -0.3812
19817TIP3   OH280941   4.918   1.062   4.988 -0.3877  0.5291  0.4053
19817TIP3    H180942   4.833   1.097   5.015 -1.1888 -0.4002 -0.7915
19817TIP3    H280943   4.923   1.084   4.895 -0.5332 -1.6939 -0.1732
19818TIP3   OH280944   2.529   4.738  13.024  0.0079  0.9984  0.0447
19818TIP3    H180945   2.534   4.747  12.929  0.1530 -1.0602 -0.1770
19818TIP3    H280946   2.602   4.791  13.057  2.0636 -0.8831 -1.2144
19819TIP3   OH280947   6.726   0.434   3.804 -0.4765  0.5738 -0.1570
19819TIP3    H180948   6.670   0.453   3.729  1.3210  0.3582 -1.6157
19819TIP3    H280949   6.815   0.444   3.771  0.3846  0.2394  1.9016
19820TIP3   OH280950   6.661   3.575   1.965  0.0713 -0.6598 -0.5596
19820TIP3    H180951   6.684   3.665   1.989 -2.1326  0.3606 -1.8804
19820TIP3    H280952   6.668   3.525   2.046 -0.4267  1.1246  0.6446
19821TIP3   OH280953   2.467   0.395  11.115 -0.3338 -0.0002  0.5518
19821TIP3    H180954   2.543   0.346  11.146 -0.2460  1.3188  2.5702
19821TIP3    H280955   2.404   0.327  11.090  0.8642 -1.1100  0.4341
19822TIP3   OH280956   4.766   3.659  13.580 -0.8351 -0.5140  0.1196
19822TIP3    H180957   4.761   3.727  13.513 -1.3328  0.5740  1.2255
19822TIP3    H280958   4.675   3.635  13.595 -0.8763  0.4909  1.6173
19823TIP3   OH280959   6.249   1.012   4.245  0.3513 -0.6838 -0.1832
19823TIP3    H180960   6.215   0.964   4.321  0.1588 -0.8678 -0.3878
19823TIP3    H280961   6.271   1.098   4.280  0.0633 -0.6992  0.0394
19824TIP3   OH280962   2.751   2.512  15.265 -0.5934  0.3321 -0.2353
19824TIP3    H180963   2.658   2.518  15.241 -1.0174  4.0486  1.5669
19824TIP3    H280964   2.797   2.550  15.190 -0.9487  1.8860  0.2839
19825TIP3   OH280965   3.300   2.964  12.856 -0.0795 -0.0435 -0.0965
19825TIP3    H180966   3.294   3.008  12.941  0.8011 -0.9228  0.4423
19825TIP3    H280967   3.346   2.882  12.874  0.2319 -0.1992 -1.4400
19826TIP3   OH280968   2.607   5.393   5.552  0.3414  0.0013 -0.0864
19826TIP3    H180969   2.577   5.460   5.490  1.2681 -0.0283 -0.5858
19826TIP3    H280970   2.696   5.419   5.574  0.0300  0.0030  1.2476
19827TIP3   OH280971   4.715   6.272  11.525  0.3276  0.3894  0.0001
19827TIP3    H180972   4.679   6.184  11.512  2.1780 -0.5752  0.9172
19827TIP3    H280973   4.789   6.277  11.464 -0.0434  1.5093 -0.3825
19828TIP3   OH280974   1.376   1.103   3.920  0.3405 -0.0840  0.5344
19828TIP3    H180975   1.376   1.168   3.991  3.4882 -0.2883  0.8237
19828TIP3    H280976   1.386   1.019   3.964 -1.3929 -0.6101  0.0038
19829TIP3   OH280977   5.895   5.064  16.642 -0.3065 -0.4926  0.0628
19829TIP3    H180978   5.870   4.988  16.589  1.0293 -0.7686 -0.2149
19829TIP3    H280979   5.816   5.087  16.690 -0.8908 -1.7119 -0.2774
19830TIP3   OH280980   1.870   0.198  16.178 -0.7360  0.3868 -0.4757
19830TIP3    H180981   1.785   0.155  16.169 -1.9583  2.4413  0.5570
19830TIP3    H280982   1.896   0.221  16.089 -0.4210 -1.7123 -0.9637
19831TIP3   OH280983   4.996   2.319  11.882 -0.2933  0.4957  0.5459
19831TIP3    H180984   5.056   2.340  11.810 -0.8786  2.1359  0.5138
19831TIP3    H280985   5.002   2.394  11.941 -2.7321  0.9929  0.2640
19832TIP3   OH280986   6.650   4.722  14.758 -0.2054  0.0259  0.0046
19832TIP3    H180987   6.632   4.816  14.752  1.0847  0.3939  1.2784
19832TIP3    H280988   6.664   4.694  14.667 -2.9272  0.5324 -0.6382
19833TIP3   OH280989   5.646   3.520   1.172  0.0652  0.5023  0.3363
19833TIP3    H180990   5.736   3.521   1.203 -0.9193 -1.9174  3.9748
19833TIP3    H280991   5.650   3.477   1.087  2.4112  1.6549 -0.2081
19834TIP3   OH280992   4.928   4.850  16.423  0.0394  0.1332  0.2952
19834TIP3    H180993   5.002   4.873  16.480 -1.0897 -1.3236  2.5047
19834TIP3    H280994   4.968   4.813  16.345  1.6462  0.7219  0.7982
19835TIP3   OH280995   0.883   4.476  13.206 -0.3342  0.6722  0.0531
19835TIP3    H180996   0.836   4.551  13.242 -1.4727 -0.5665  1.2321
19835TIP3    H280997   0.975   4.494  13.225 -0.5530  1.8711  0.0810
19836TIP3   OH280998   0.397   5.627  17.072 -0.3913 -0.0919 -0.1676
19836TIP3    H180999   0.352   5.550  17.107 -1.1959  0.7022  0.6093
19836TIP3    H281000   0.476   5.635  17.126 -0.3166 -0.3575 -0.2355
19837TIP3   OH281001   0.266   3.955  13.459 -0.0598 -0.1205 -0.4987
19837TIP3    H181002   0.238   3.984  13.546 -0.5974  1.1732 -1.0671
19837TIP3    H281003   0.325   3.882  13.476  1.7501  1.5802  1.1126
19838TIP3   OH281004   3.130   4.529   7.106  0.5962 -0.2601  0.0975
19838TIP3    H181005   3.080   4.448   7.107 -2.0497  1.2379 -0.1077
19838TIP3    H281006   3.114   4.566   7.019  1.2666  0.7600  0.3917
19839TIP3   OH281007   2.840   4.681   6.678  0.1948 -0.3349  0.5808
19839TIP3    H181008   2.787   4.757   6.656  0.8484 -0.5998 -2.3702
19839TIP3    H281009   2.782   4.626   6.731 -0.7042  1.5947  1.6958
19840TIP3   OH281010   0.950   3.736  16.962 -0.3369 -0.8733  0.6738
19840TIP3    H181011   0.885   3.670  16.937  0.6580 -1.0719 -1.6607
19840TIP3    H281012   1.034   3.691  16.955  0.3909  0.6751 -1.3030
19841TIP3   OH281013   0.523   4.374  13.395 -0.2464 -0.2192 -0.3337
19841TIP3    H181014   0.516   4.293  13.344  0.6845  0.1763 -1.1039
19841TIP3    H281015   0.479   4.353  13.478  1.5920 -2.1564  0.2570
19842TIP3   OH281016   5.682   2.237   1.302 -0.4515  0.5044 -0.6649
19842TIP3    H181017   5.766   2.276   1.278  1.2862 -1.8221  1.0909
19842TIP3    H281018   5.661   2.275   1.387 -0.3458 -0.0433 -0.3859
19843TIP3   OH281019   1.301   5.187   4.995 -0.0573  0.2817  0.3984
19843TIP3    H181020   1.333   5.277   4.993 -0.2552  0.3462 -0.0285
19843TIP3    H281021   1.335   5.147   4.915 -0.3919  0.1299  0.3264
19844TIP3   OH281022   2.270   3.458  13.054  0.3749 -0.9095 -0.2222
19844TIP3    H181023   2.363   3.478  13.040  0.4119 -1.0033 -0.1142
19844TIP3    H281024   2.225   3.541  13.041  0.3534 -1.0862 -1.3788
19845TIP3   OH281025   5.254   3.119  15.798  0.5120 -0.0777  0.0649
19845TIP3    H181026   5.274   3.057  15.728 -0.3024  0.0462 -0.2893
19845TIP3    H281027   5.183   3.077  15.847  0.7606  0.0485  0.5348
19846TIP3   OH281028   6.729   2.988   4.896  0.2934  0.3431  0.8001
19846TIP3    H181029   6.722   3.083   4.891  0.2622  0.2993 -0.3468
19846TIP3    H281030   6.798   2.972   4.960  0.5934  1.1472  0.6845
19847TIP3   OH281031   2.887   6.326   2.533  0.0779  0.5164  0.1821
19847TIP3    H181032   2.888   6.275   2.452  1.6911 -0.4563  0.7704
19847TIP3    H281033   2.797   6.356   2.542 -0.7469 -1.5825 -0.6051
19848TIP3   OH281034   2.007   1.004  12.963  0.1389 -0.3514  0.4525
19848TIP3    H181035   2.081   1.049  13.005  0.2544 -0.7914  0.7192
19848TIP3    H281036   2.029   0.911  12.968 -0.0710 -0.4403 -0.1546
19849TIP3   OH281037   4.795   4.143  11.474 -0.2199 -0.2112 -0.2836
19849TIP3    H181038   4.734   4.202  11.428 -1.1501  0.9292  2.2136
19849TIP3    H281039   4.859   4.202  11.513  0.4587 -1.1306 -0.0024
19850TIP3   OH281040   5.778   6.297  14.858  0.1080 -0.1837  0.5638
19850TIP3    H181041   5.723   6.375  14.850 -0.0919 -0.4639 -1.1373
19850TIP3    H281042   5.764   6.249  14.776  2.1841 -0.7229  0.4649
19851TIP3   OH281043   1.532   2.876  14.836  0.6273  0.0635 -0.0686
19851TIP3    H181044   1.548   2.948  14.774 -0.3089  0.6541  0.3630
19851TIP3    H281045   1.560   2.798  14.788 -1.1512  0.3647 -1.7181
19852TIP3   OH281046   5.071   6.492   2.086  0.8437  0.1358 -0.3658
19852TIP3    H181047   5.133   6.546   2.135  2.1643  0.2374 -2.0483
19852TIP3    H281048   4.987   6.505   2.130  1.6406  1.5447  0.8113
19853TIP3   OH281049   1.111   2.205  16.987 -0.0348 -0.8012 -0.2735
19853TIP3    H181050   1.042   2.143  16.961 -1.0956  0.6225 -0.9998
19853TIP3    H281051   1.122   2.261  16.911 -0.0337  0.7119  0.8081
19854TIP3   OH281052   5.537   5.159  15.228  0.4498 -0.5548 -0.2380
19854TIP3    H181053   5.582   5.240  15.252 -0.0938 -0.1691 -0.5042
19854TIP3    H281054   5.586   5.125  15.153 -1.2862  1.3328 -2.3748
19855TIP3   OH281055   5.712   2.952  12.867  0.1741  0.4309  0.4151
19855TIP3    H181056   5.755   2.949  12.952 -0.6524 -0.2939  0.8353
19855TIP3    H281057   5.619   2.939  12.887 -0.1159  0.9496 -0.5406
19856TIP3   OH281058   0.997   3.611   5.905 -0.0851  0.3960 -0.5089
19856TIP3    H181059   0.950   3.529   5.886 -0.2511  0.7118 -1.5165
19856TIP3    H281060   1.090   3.588   5.898 -0.1084  0.1120  0.0328
19857TIP3   OH281061   4.582   4.141   0.906 -0.5871 -0.6299 -0.3348
19857TIP3    H181062   4.565   4.085   0.982  0.4890  0.9022  1.0865
19857TIP3    H281063   4.537   4.223   0.926 -0.4579 -0.2692 -1.4554
19858TIP3   OH281064   0.911   0.577   1.717 -0.3745  0.1685 -0.4799
19858TIP3    H181065   0.817   0.590   1.703 -0.1604  1.2156 -0.9943
19858TIP3    H281066   0.918   0.487   1.748 -1.7862  0.7810  1.8119
19859TIP3   OH281067   4.179   2.247   1.554  0.2859 -0.0958 -0.1245
19859TIP3    H181068   4.190   2.280   1.464 -0.5090 -1.4384 -0.7417
19859TIP3    H281069   4.143   2.159   1.543 -1.7147  0.4406  1.5420
19860TIP3   OH281070   0.997   4.766   2.200  0.7347  0.9271 -0.2702
19860TIP3    H181071   0.953   4.844   2.235 -0.0892 -0.2695  1.5079
19860TIP3    H281072   0.948   4.744   2.121 -0.8231  0.6238  0.7436
19861TIP3   OH281073   2.701   2.460   0.878  0.2606  0.4188  0.0716
19861TIP3    H181074   2.665   2.491   0.795 -1.5350  0.5239  0.8587
19861TIP3    H281075   2.631   2.407   0.917  0.9916  0.5450  1.6198
19862TIP3   OH281076   1.550   3.051   1.357 -0.3482  0.4575  0.0772
19862TIP3    H181077   1.498   2.980   1.322  0.9610 -0.5853  0.1678
19862TIP3    H281078   1.625   3.008   1.399  1.1241  1.9001 -0.9215
19863TIP3   OH281079   6.174   5.588   0.694 -0.2173  0.2335 -0.5582
19863TIP3    H181080   6.090   5.615   0.729 -0.1703  1.1236 -1.0819
19863TIP3    H281081   6.176   5.626   0.606  0.6164  0.0005 -0.6482
19864TIP3   OH281082   2.264   6.495  10.743  0.3055 -0.0460  0.2005
19864TIP3    H181083   2.323   6.568  10.721 -0.6743  0.8615  0.5041
19864TIP3    H281084   2.184   6.513  10.694  0.0939 -1.0082  0.1684
19865TIP3   OH281085   2.253   6.345   4.083  0.0517 -0.1331 -0.5195
19865TIP3    H181086   2.342   6.317   4.063  0.1982 -0.6760  0.8208
19865TIP3    H281087   2.216   6.369   3.998  1.3281 -0.3161 -1.1449
19866TIP3   OH281088   0.387   1.163  17.489  0.5967  0.2767  0.3764
19866TIP3    H181089   0.343   1.239  17.452 -0.5039  0.1893  1.4476
19866TIP3    H281090   0.345   1.150  17.574  1.7610 -0.6571  0.8314
19867TIP3   OH281091   2.821   5.582   3.719 -0.4600 -0.0558  0.3551
19867TIP3    H181092   2.916   5.577   3.733 -0.1861 -0.6884 -1.4483
19867TIP3    H281093   2.785   5.518   3.780  0.4783 -1.2487 -0.2757
19868TIP3   OH281094   4.678   3.291   5.034 -0.0102 -0.3030 -0.2057
19868TIP3    H181095   4.684   3.339   4.951  0.7053  2.2474  1.2226
19868TIP3    H281096   4.767   3.293   5.069 -0.6143  0.1406  1.3662
19869TIP3   OH281097   2.028   0.737   0.576  0.3978  0.1178  0.4721
19869TIP3    H181098   1.981   0.657   0.599 -1.6404  1.9496  3.5188
19869TIP3    H281099   2.088   0.751   0.649  0.8132  1.2678 -0.0717
19870TIP3   OH281100   2.416   4.125  11.701  0.2706  0.2955 -0.7121
19870TIP3    H181101   2.381   4.060  11.639 -2.2718  0.6022  0.2977
19870TIP3    H281102   2.422   4.078  11.784 -0.1594  0.9368 -0.3108
19871TIP3   OH281103   0.003   5.948  14.319  0.0981 -0.1837  0.1721
19871TIP3    H181104   0.002   5.903  14.404  3.5112  0.9093  0.9596
19871TIP3    H281105   0.075   5.908  14.272  1.0278  2.0661 -0.4486
19872TIP3   OH281106   0.342   3.695   6.514  0.1154  0.0398 -0.6321
19872TIP3    H181107   0.250   3.714   6.493  0.2768 -1.0823 -2.6206
19872TIP3    H281108   0.375   3.649   6.437  2.5634  1.0243 -0.2706
19873TIP3   OH281109   1.654   2.675  14.681  0.0604 -0.3173 -0.0274
19873TIP3    H181110   1.710   2.623  14.624 -0.1355 -0.9381  0.3402
19873TIP3    H281111   1.688   2.657  14.769 -0.5220 -0.4521  0.1699
19874TIP3   OH281112   1.076   2.480  14.500  0.3263  0.4235 -0.3832
19874TIP3    H181113   1.006   2.468  14.436  0.4305  1.5384 -0.7255
19874TIP3    H281114   1.031   2.507  14.580  0.4271  3.5379 -1.2287
19875TIP3   OH281115   5.377   2.601   4.269 -0.1327  0.0905  0.3571
19875TIP3    H181116   5.299   2.556   4.236  0.4170  0.3074 -1.3551
19875TIP3    H281117   5.397   2.667   4.203  1.2471  0.3421  0.9725
19876TIP3   OH281118   1.389   3.435  13.594 -0.2348 -0.3695 -0.2322
19876TIP3    H181119   1.380   3.491  13.672 -3.1489  0.6261 -1.1673
19876TIP3    H281120   1.483   3.421  13.586  0.5547  3.2970  0.8551
19877TIP3   OH281121   4.919   5.557   4.022  0.5087  0.3193  0.5741
19877TIP3    H181122   4.897   5.487   3.960  1.3985  2.6594 -2.6744
19877TIP3    H281123   5.004   5.532   4.058  0.9227 -0.2018 -0.7120
19878TIP3   OH281124   6.285   2.712   6.291  0.3211 -0.4253  0.3393
19878TIP3    H181125   6.342   2.647   6.330  0.0277 -0.7841  0.1730
19878TIP3    H281126   6.196   2.679   6.306  0.2103 -0.7958 -1.0014
19879TIP3   OH281127   2.014   5.178   5.629  1.0325 -0.1742 -0.0969
19879TIP3    H181128   2.079   5.245   5.648  0.9595 -0.2577  0.4613
19879TIP3    H281129   2.053   5.127   5.557  1.2355  0.2545 -0.2922
19880TIP3   OH281130   4.663   1.542   0.508  0.1844  0.7305 -0.1603
19880TIP3    H181131   4.737   1.490   0.538 -0.5052  0.1469  0.6022
19880TIP3    H281132   4.669   1.539   0.412  0.6512 -0.0380 -0.1203
19881TIP3   OH281133   2.614   6.005  11.331  0.0039 -0.6800 -0.5369
19881TIP3    H181134   2.678   6.043  11.271 -1.4152  1.0803 -1.0218
19881TIP3    H281135   2.544   5.973  11.274 -0.6665 -0.3467  0.0862
19882TIP3   OH281136   6.692   4.444   0.243 -0.4053  0.0032  0.1259
19882TIP3    H181137   6.699   4.350   0.261 -1.7990 -0.6638 -2.3607
19882TIP3    H281138   6.603   4.466   0.271 -0.5872  0.2324 -0.6229
19883TIP3   OH281139   0.622   5.756   1.138  0.2005  0.5331  0.0423
19883TIP3    H181140   0.590   5.693   1.202 -2.0297  1.3322 -0.1570
19883TIP3    H281141   0.704   5.789   1.175  0.3171 -0.9044  1.1712
19884TIP3   OH281142   4.234   1.737  12.696 -0.1771 -0.6406  0.2533
19884TIP3    H181143   4.222   1.642  12.703 -1.3658 -0.3954  2.0898
19884TIP3    H281144   4.270   1.763  12.781 -0.3113  0.6241 -0.0573
19885TIP3   OH281145   5.490   4.310   2.291  0.1545 -0.1736  0.0932
19885TIP3    H181146   5.445   4.272   2.366  1.6053 -0.6683  0.7556
19885TIP3    H281147   5.426   4.305   2.220 -0.3732 -2.1206  0.6454
19886TIP3   OH281148   0.538   3.890  11.456 -0.0171 -0.2087  0.1566
19886TIP3    H181149   0.576   3.806  11.432  1.5687  0.0129  1.6304
19886TIP3    H281150   0.497   3.874  11.541 -2.1562 -0.1080 -0.7969
19887TIP3   OH281151   6.699   3.087  17.204  0.0508  0.4323 -0.1376
19887TIP3    H181152   6.773   3.145  17.223 -1.3074  1.7238  1.6170
19887TIP3    H281153   6.725   3.038  17.126  1.5770  2.8794 -1.2605
19888TIP3   OH281154   1.391   1.391   2.677  0.1320  0.1511 -0.6209
19888TIP3    H181155   1.360   1.474   2.712  0.8273 -0.0145  0.4506
19888TIP3    H281156   1.335   1.374   2.601 -0.7678  1.0291 -0.1773
19889TIP3   OH281157   1.246   6.344   2.320 -0.0941 -0.1477 -0.3405
19889TIP3    H181158   1.285   6.257   2.323  0.6902  0.0823  4.7193
19889TIP3    H281159   1.152   6.328   2.334  0.0610 -0.2553  0.6772
19890TIP3   OH281160   0.332   2.462   5.232  0.3578  0.6633 -0.0026
19890TIP3    H181161   0.372   2.454   5.318 -0.3879  0.1953  0.3110
19890TIP3    H281162   0.255   2.516   5.246  0.6654  1.2585 -0.5334
19891TIP3   OH281163   0.323   5.112  12.721  0.1906  0.0470  0.0329
19891TIP3    H181164   0.375   5.099  12.641  0.9506  2.3879  0.0626
19891TIP3    H281165   0.281   5.028  12.736  2.2122 -1.2914 -1.2700
19892TIP3   OH281166   2.825   5.938   5.896  0.0831 -0.0438 -0.2800
19892TIP3    H181167   2.771   6.013   5.920 -0.9728 -0.7512 -0.3908
19892TIP3    H281168   2.882   5.971   5.827 -0.2806  0.6872 -0.2429
19893TIP3   OH281169   1.863   2.487   4.255  0.2162 -0.1426  0.3894
19893TIP3    H181170   1.879   2.430   4.330 -1.4910 -0.8749  0.2212
19893TIP3    H281171   1.828   2.567   4.293  0.1350 -0.1957  0.4259
19894TIP3   OH281172   5.148   5.619   3.588  0.0596  0.0332  0.1558
19894TIP3    H181173   5.074   5.664   3.629 -0.9778 -0.8044 -0.7422
19894TIP3    H281174   5.139   5.637   3.495 -1.2885 -3.1173 -0.4679
19895TIP3   OH281175   1.367   1.483  11.119  0.0872 -0.3474  0.1320
19895TIP3    H181176   1.332   1.465  11.206 -0.8325  2.7794  0.5423
19895TIP3    H281177   1.291   1.510  11.067  0.9985  0.5954 -0.7768
19896TIP3   OH281178   4.026   1.893   2.753  0.5107  0.0837  0.1120
19896TIP3    H181179   4.077   1.894   2.672 -0.2584 -2.7398 -0.4962
19896TIP3    H281180   3.942   1.932   2.729  0.9988  1.1870  0.1317
19897TIP3   OH281181   4.796   6.616   2.963  0.1224  0.5191  0.0176
19897TIP3    H181182   4.759   6.578   2.884 -1.0957  0.4816  0.5806
19897TIP3    H281183   4.795   6.544   3.027  0.1096  0.8283  0.3688
19898TIP3   OH281184   3.181   4.494   4.436  0.1274  0.0254  0.1728
19898TIP3    H181185   3.218   4.540   4.360  0.5458  1.1348  1.0237
19898TIP3    H281186   3.119   4.432   4.398  0.7043  0.1912 -1.1114
19899TIP3   OH281187   3.443   5.107  12.678  0.4191  0.2562 -0.3507
19899TIP3    H181188   3.511   5.087  12.742  1.7608  0.9233 -1.5194
19899TIP3    H281189   3.489   5.153  12.608 -1.2177  0.5734 -1.2563
19900TIP3   OH281190   2.192   1.247  13.627  0.5297  0.0499  0.5619
19900TIP3    H181191   2.255   1.319  13.632  0.3368  0.3772 -1.0144
19900TIP3    H281192   2.180   1.219  13.717  3.7773 -0.7773  0.8868
19901TIP3   OH281193   1.759   1.134   2.469 -0.0039  0.8430  0.5943
19901TIP3    H181194   1.699   1.174   2.532 -0.6839  0.9478 -0.1064
19901TIP3    H281195   1.751   1.040   2.485 -0.4920  0.8471  0.3862
19902TIP3   OH281196   2.549   1.122   1.004 -0.1825 -0.2216  0.2505
19902TIP3    H181197   2.582   1.181   0.937 -0.8258 -1.1186 -0.8845
19902TIP3    H281198   2.611   1.131   1.076  0.2995  1.0561 -0.2910
19903TIP3   OH281199   1.796   2.249   1.405  0.1789  0.4414  0.0326
19903TIP3    H181200   1.853   2.316   1.368 -0.7719  0.8704 -0.7147
19903TIP3    H281201   1.777   2.190   1.331 -2.1611  1.5995 -0.3768
19904TIP3   OH281202   5.209   0.024   2.919  0.5885  0.4143  0.0323
19904TIP3    H181203   5.195  -0.048   2.857  0.8070  0.5239 -0.1483
19904TIP3    H281204   5.122   0.058   2.936  0.5122  0.2960 -0.1134
19905TIP3   OH281205   6.520   0.323  11.191  0.2667  0.2514 -0.0116
19905TIP3    H181206   6.552   0.384  11.125 -0.0965  0.3042 -0.1396
19905TIP3    H281207   6.425   0.324  11.181  0.2100  0.2473  0.4996
19906TIP3   OH281208   6.086   5.656  10.802  0.0456 -0.1094  1.0372
19906TIP3    H181209   6.153   5.612  10.749 -0.2296 -0.3594  0.8956
19906TIP3    H281210   6.017   5.591  10.813  0.2305 -0.1699  1.9595
19907TIP3   OH281211   3.989   4.366  11.440 -0.4835  0.7693  0.2698
19907TIP3    H181212   3.938   4.406  11.369  1.2798  0.7498 -1.0945
19907TIP3    H281213   3.973   4.272  11.430 -0.8531  0.8144  0.4130
19908TIP3   OH281214   0.690   6.614  12.699 -0.2119 -0.3872 -0.0683
19908TIP3    H181215   0.756   6.657  12.754 -1.7670  0.9037  0.8880
19908TIP3    H281216   0.719   6.631  12.610  0.4984  0.5931  0.3304
19909TIP3   OH281217   5.310   4.999   2.177  0.4214 -0.2416 -0.5731
19909TIP3    H181218   5.237   5.057   2.157  0.8401  0.4136 -0.2176
19909TIP3    H281219   5.279   4.946   2.250  0.4071  0.2319 -0.2348
19910TIP3   OH281220   4.297   2.282   0.899 -0.0192  0.1801 -0.2940
19910TIP3    H181221   4.246   2.315   0.824  0.0707 -0.4340 -0.6307
19910TIP3    H281222   4.387   2.309   0.880  0.0220 -0.0749 -0.4693
19911TIP3   OH281223   5.490   1.611   0.509  0.4324 -0.8169  0.0883
19911TIP3    H181224   5.412   1.649   0.549  1.4667  0.3532  1.0496
19911TIP3    H281225   5.481   1.633   0.416  1.6945  3.3330  0.7339
19912TIP3   OH281226   3.827   5.076  10.986 -0.4477 -0.1714 -0.2203
19912TIP3    H181227   3.795   5.131  10.914  0.3394  0.7550  0.1091
19912TIP3    H281228   3.758   5.082  11.053 -0.5051  0.1884 -0.3081
19913TIP3   OH281229   3.126   4.345  12.438 -0.0925 -0.4013 -0.3624
19913TIP3    H181230   3.031   4.332  12.434 -0.3745  1.3626 -0.4418
19913TIP3    H281231   3.138   4.437  12.411  1.6936 -0.7751 -0.9618
19914TIP3   OH281232   2.847   5.235   2.285  0.0373  0.3682  0.1139
19914TIP3    H181233   2.771   5.256   2.232 -0.1615  1.9961  1.0032
19914TIP3    H281234   2.813   5.180   2.355 -0.0793  0.0582 -0.1797
19915TIP3   OH281235   3.161   6.522  12.620  0.0779  0.8371  0.5065
19915TIP3    H181236   3.081   6.512  12.672 -1.1091  0.6860 -1.2451
19915TIP3    H281237   3.198   6.434  12.616 -1.7575  0.0683 -1.7457
19916TIP3   OH281238   4.722   5.624  12.827  0.1439 -0.3194  0.1850
19916TIP3    H181239   4.816   5.638  12.836  0.3028 -1.1394 -0.0599
19916TIP3    H281240   4.713   5.575  12.745 -0.4649 -0.4787  0.3390
19917TIP3   OH281241   2.379   0.346   2.442 -0.1764 -0.2856  0.3876
19917TIP3    H181242   2.456   0.296   2.470  0.4211  0.1045 -0.5118
19917TIP3    H281243   2.415   0.427   2.405 -1.0872  0.4668  1.0966
19918TIP3   OH281244   1.863   0.926   0.699  0.0945  0.0539  0.2189
19918TIP3    H181245   1.884   0.857   0.637 -0.5910  1.1994 -1.3475
19918TIP3    H281246   1.908   0.900   0.780 -0.4797 -2.4013 -0.1782
19919TIP3   OH281247   0.489   3.925   3.002 -0.5452 -0.1523 -0.1890
19919TIP3    H181248   0.513   3.945   3.092 -0.8326  0.3627 -0.2259
19919TIP3    H281249   0.408   3.875   3.008 -1.0292  0.6117 -0.1917
19920TIP3   OH281250   1.603   1.201   3.755 -0.1130 -0.2153  0.6550
19920TIP3    H181251   1.512   1.184   3.782 -0.9642  1.4366 -0.9336
19920TIP3    H281252   1.595   1.238   3.667  2.2024 -1.0121  0.0381
19921TIP3   OH281253   0.628   2.203   0.768  0.1237  0.1066  0.0129
19921TIP3    H181254   0.570   2.127   0.760  0.6127 -0.2032 -0.6275
19921TIP3    H281255   0.594   2.250   0.844 -0.6622 -0.3373 -0.0466
19922TIP3   OH281256   2.390   2.880   4.481  0.3649 -0.2985 -1.2199
19922TIP3    H181257   2.398   2.861   4.387  0.2481  0.5814 -1.4239
19922TIP3    H281258   2.454   2.950   4.496  0.9784 -1.0134 -0.4621
19923TIP3   OH281259   6.536   5.351   1.730 -0.1485  0.0710 -0.5057
19923TIP3    H181260   6.530   5.447   1.736 -1.6238  0.0701 -1.2304
19923TIP3    H281261   6.450   5.325   1.696  0.1709 -1.5334 -0.1411
19924TIP3   OH281262   4.860   3.859  17.639 -0.5860 -0.3680  0.2787
19924TIP3    H181263   4.772   3.893  17.656 -0.7489  0.2648 -1.6695
19924TIP3    H281264   4.916   3.908  17.699 -1.4483 -0.1999  0.9683
19925TIP3   OH281265   0.196   4.105  13.987  0.5837  0.0025  0.2790
19925TIP3    H181266   0.196   4.016  14.023  2.3319 -0.3885 -0.5731
19925TIP3    H281267   0.135   4.153  14.043  0.3593 -1.4833  1.3909
19926TIP3   OH281268   2.109   2.630  15.917 -0.6336 -0.6478  0.0293
19926TIP3    H181269   2.062   2.711  15.895  2.4808  1.1755 -0.5851
19926TIP3    H281270   2.072   2.564  15.859 -1.8527  0.8615 -0.9787
19927TIP3   OH281271   2.029   1.618   5.590  0.0029 -0.3089 -0.7857
19927TIP3    H181272   1.975   1.635   5.667  1.2672  0.0160  0.0513
19927TIP3    H281273   2.017   1.694   5.534 -3.5070 -1.9065 -2.5504
19928TIP3   OH281274   6.146   3.528   1.077 -0.0667  0.2031  0.4138
19928TIP3    H181275   6.220   3.474   1.103 -0.9253 -1.2803 -0.0810
19928TIP3    H281276   6.125   3.499   0.988 -1.9794 -0.3176  0.9831
19929TIP3   OH281277   3.439   3.270   6.277  0.2086 -0.0127 -0.1225
19929TIP3    H181278   3.347   3.288   6.298 -0.0008 -0.7121 -0.4106
19929TIP3    H281279   3.437   3.186   6.231  0.9893 -0.0069 -0.1783
19930TIP3   OH281280   0.104   4.022   4.424 -0.0076  0.5601  0.2857
19930TIP3    H181281   0.172   3.991   4.484 -1.8388 -0.4466  1.9520
19930TIP3    H281282   0.040   3.951   4.422  0.0793  0.3987 -3.1673
19931TIP3   OH281283   3.806   6.241   2.476 -0.3725  0.0088  0.1980
19931TIP3    H181284   3.748   6.183   2.427  0.8193 -1.0034 -0.0680
19931TIP3    H281285   3.893   6.223   2.442  0.3981 -0.1028  2.0948
19932TIP3   OH281286   2.606   0.949   3.641 -0.3693 -0.6228 -0.5178
19932TIP3    H181287   2.659   0.987   3.571 -0.8281 -0.9558 -1.0511
19932TIP3    H281288   2.611   1.013   3.712  0.9382 -0.7600 -0.4646
19933TIP3   OH281289   4.184   6.349   3.257  0.1578  0.5581  0.0050
19933TIP3    H181290   4.163   6.442   3.250  1.2574  0.9452  1.3413
19933TIP3    H281291   4.220   6.340   3.345  0.6831 -1.0152 -0.3509
19934TIP3   OH281292   4.489   1.284   1.600  0.5741 -0.3431 -0.0182
19934TIP3    H181293   4.568   1.328   1.632  0.2750 -0.7255  1.2985
19934TIP3    H281294   4.513   1.192   1.596  0.0728 -0.5252  0.8481
19935TIP3   OH281295   2.827   1.534   1.455 -0.0621 -0.2375 -0.5541
19935TIP3    H181296   2.869   1.559   1.538 -1.1099 -0.7363  0.1452
19935TIP3    H281297   2.892   1.478   1.413  0.2218 -0.5366  0.2488
19936TIP3   OH281298   5.203   4.316  14.095 -0.1677  0.0111  0.4162
19936TIP3    H181299   5.241   4.346  14.012  1.8577  0.4350  1.4420
19936TIP3    H281300   5.110   4.309  14.076  0.0468  1.3373 -1.5407
19937TIP3   OH281301   4.087   4.088   7.302 -0.3784  0.3336 -0.0602
19937TIP3    H181302   4.050   4.161   7.352  0.2779  0.7257 -0.1327
19937TIP3    H281303   4.130   4.033   7.367 -0.3916  0.3086 -0.0726
19938TIP3   OH281304   6.065   5.553  15.760 -0.5109 -0.4570 -0.6468
19938TIP3    H181305   6.140   5.517  15.712 -0.5334 -0.7089 -0.4923
19938TIP3    H281306   6.075   5.518  15.848 -0.5845 -0.1605 -0.5205
19939TIP3   OH281307   2.162   3.004  17.276 -0.1044  0.2945  0.1059
19939TIP3    H181308   2.074   2.967  17.282 -0.0072 -0.1944 -1.1413
19939TIP3    H281309   2.209   2.964  17.348 -0.0411 -2.0201 -1.1173
19940TIP3   OH281310   1.149   3.795   6.084  0.2821  0.0081 -0.2904
19940TIP3    H181311   1.181   3.716   6.129  1.4789 -0.6325 -2.1396
19940TIP3    H281312   1.227   3.829   6.039 -0.2966  2.0878  0.2058
19941TIP3   OH281313   2.149   5.394   4.817  0.7219 -0.5028 -0.1296
19941TIP3    H181314   2.222   5.420   4.761  0.0397  0.6445 -0.5080
19941TIP3    H281315   2.097   5.334   4.763  1.7751 -1.9484  0.4096
19942TIP3   OH281316   2.497   1.506  11.159 -0.3042  0.3064  0.0308
19942TIP3    H181317   2.513   1.599  11.170 -1.8423  0.9714 -2.5012
19942TIP3    H281318   2.403   1.499  11.141  0.1606 -1.3739 -2.3319
19943TIP3   OH281319   4.303   5.202  14.510  0.3116 -0.0174  0.0514
19943TIP3    H181320   4.244   5.263  14.465 -0.4635 -0.9648 -0.2309
19943TIP3    H281321   4.299   5.229  14.602 -0.9204 -0.3470  0.1124
19944TIP3   OH281322   1.370   6.577   5.503 -0.4188  0.6036  0.1085
19944TIP3    H181323   1.284   6.619   5.509 -0.3621  0.9022 -0.9198
19944TIP3    H281324   1.385   6.568   5.409  0.3724 -0.0803  0.2905
19945TIP3   OH281325   4.309   5.523   6.458 -0.9497 -0.0681  0.0332
19945TIP3    H181326   4.243   5.477   6.510  0.3802 -0.4728  1.4522
19945TIP3    H281327   4.278   5.614   6.454 -2.3391 -0.5455 -0.6639
19946TIP3   OH281328   2.526   0.459   3.401 -0.1588 -0.2139  0.2239
19946TIP3    H181329   2.445   0.439   3.353 -0.2893  3.0162 -1.1804
19946TIP3    H281330   2.496   0.503   3.480  0.1641  0.6831 -0.1359
19947TIP3   OH281331   0.787   1.626  15.866  0.2406  0.2222 -0.1618
19947TIP3    H181332   0.812   1.711  15.830  0.4710 -0.3693 -1.4370
19947TIP3    H281333   0.756   1.576  15.791  0.6602 -1.0280  0.4651
19948TIP3   OH281334   5.583   0.834   1.956 -0.3163 -0.0983  0.3487
19948TIP3    H181335   5.651   0.786   2.003 -0.9527 -1.1801  0.2151
19948TIP3    H281336   5.628   0.871   1.880 -0.1542 -2.2162 -0.6584
19949TIP3   OH281337   3.337   5.595  15.364 -0.3626  0.4236  0.2058
19949TIP3    H181338   3.258   5.601  15.418 -0.3890  1.1721  0.0995
19949TIP3    H281339   3.308   5.617  15.276 -0.5680 -2.0183 -0.4091
19950TIP3   OH281340   5.748   1.499  13.442 -0.5314 -0.1308  0.4711
19950TIP3    H181341   5.707   1.453  13.515 -1.6610 -0.5031 -0.3625
19950TIP3    H281342   5.772   1.584  13.477 -1.7834 -0.0050  1.0850
19951TIP3   OH281343   6.376   6.432   0.356 -0.5290 -0.3146  0.4213
19951TIP3    H181344   6.410   6.452   0.269  0.2717 -0.3577  0.7191
19951TIP3    H281345   6.385   6.514   0.405  0.2322 -0.6402  0.8415
19952TIP3   OH281346   4.176   5.781  15.885 -0.1628  0.0512  0.1146
19952TIP3    H181347   4.116   5.787  15.811 -0.7222  0.2424  0.5760
19952TIP3    H281348   4.211   5.692  15.879  1.2879  0.6762 -1.4889
19953TIP3   OH281349   6.081   3.884  14.640  0.0427  0.4150  0.4605
19953TIP3    H181350   6.145   3.870  14.710  2.2470 -0.8467 -1.6608
19953TIP3    H281351   6.075   3.979  14.632  2.6550  0.6267 -0.0136
19954TIP3   OH281352   1.583   0.169  17.036 -0.3699 -0.3527 -0.2141
19954TIP3    H181353   1.577   0.151  16.942  1.6288 -1.2814 -0.2138
19954TIP3    H281354   1.649   0.108  17.067  0.1309  1.0180  1.5227
19955TIP3   OH281355   2.925   1.182  13.893 -0.4887 -0.4326 -0.3516
19955TIP3    H181356   2.903   1.156  13.804 -1.3976 -0.4719 -0.1221
19955TIP3    H281357   3.020   1.174  13.897 -0.5724 -2.1795 -0.7826
19956TIP3   OH281358   3.206   3.202   2.110  0.1989  0.2884  0.0868
19956TIP3    H181359   3.177   3.231   2.197 -1.5012 -0.4350 -0.2078
19956TIP3    H281360   3.242   3.281   2.069  1.7234  0.4929  1.6899
19957TIP3   OH281361   5.652   6.274  13.681  0.3649  0.3402 -0.2693
19957TIP3    H181362   5.565   6.236  13.691  0.7382 -0.3059  0.6139
19957TIP3    H281363   5.702   6.241  13.756  1.2880  0.9373 -0.6010
19958TIP3   OH281364   0.315   4.356   5.387  0.2933  0.2955 -0.2030
19958TIP3    H181365   0.258   4.376   5.312 -1.1664 -1.2814  0.4329
19958TIP3    H281366   0.276   4.404   5.460 -0.3919 -0.9331  0.2752
19959TIP3   OH281367   4.890   4.724   0.301 -0.3855 -0.3388 -0.0893
19959TIP3    H181368   4.820   4.789   0.298 -1.3049 -1.3247 -0.8785
19959TIP3    H281369   4.857   4.650   0.251  1.9712 -0.1287 -2.1904
19960TIP3   OH281370   3.033   6.311   3.316 -0.3838 -0.1920  0.0711
19960TIP3    H181371   3.028   6.272   3.403 -1.0869 -0.9728 -0.3120
19960TIP3    H281372   3.120   6.351   3.313  0.2300 -1.4501  0.5974
19961TIP3   OH281373   1.055   0.569   5.799 -0.6681  0.4850  0.2908
19961TIP3    H181374   1.129   0.532   5.847 -0.1388  1.7876  0.5183
19961TIP3    H281375   1.050   0.517   5.719  0.5710  0.4575  0.2157
19962TIP3   OH281376   6.055   5.484   0.970  0.0862 -0.0472 -0.5809
19962TIP3    H181377   6.023   5.466   1.059  2.2084 -2.1382 -0.1116
19962TIP3    H281378   6.139   5.438   0.966  1.0763  1.7676 -3.0040
19963TIP3   OH281379   4.706   4.325  16.355  0.3759  0.0527  0.1112
19963TIP3    H181380   4.630   4.351  16.407  1.6796  1.9679  1.1780
19963TIP3    H281381   4.768   4.398  16.365  0.8257  0.4330 -3.9602
19964TIP3   OH281382   5.462   5.036   0.091 -0.0186 -0.0526  0.4778
19964TIP3    H181383   5.540   5.079   0.126 -0.2011  1.5367 -0.9355
19964TIP3    H281384   5.434   5.092   0.018 -2.6487 -0.4050  1.1172
19965TIP3   OH281385   2.347   6.531  13.375  0.1806  0.4789  0.0949
19965TIP3    H181386   2.329   6.514  13.283  1.6738  0.0193 -0.1401
19965TIP3    H281387   2.371   6.623  13.378  1.2152  0.2341 -0.1823
19966TIP3   OH281388   4.902   0.203   4.539 -0.0587 -0.1056 -0.4156
19966TIP3    H181389   4.851   0.174   4.615 -1.2281 -2.8259 -2.0721
19966TIP3    H281390   4.969   0.135   4.528  1.3264  1.2727 -0.7127
19967TIP3   OH281391   4.061   6.209   1.332 -0.1740 -0.0486 -0.1848
19967TIP3    H181392   3.994   6.256   1.382  0.1071 -0.5838  0.7266
19967TIP3    H281393   4.137   6.267   1.335 -0.0322 -0.2577  0.3695
19968TIP3   OH281394   1.498   3.937   4.995 -0.6308  0.6696  0.4845
19968TIP3    H181395   1.561   3.865   4.991 -0.3307  0.9573 -1.8915
19968TIP3    H281396   1.546   4.007   5.040  0.3190  0.4564 -0.1453
19969TIP3   OH281397   6.572   0.356   0.697 -0.1379  0.7143 -0.0458
19969TIP3    H181398   6.507   0.309   0.645 -0.4406  0.0508  0.9133
19969TIP3    H281399   6.522   0.427   0.738 -0.1919  0.3788  0.4644
19970TIP3   OH281400   1.328   6.189  17.004  0.3032 -0.4986  0.2969
19970TIP3    H181401   1.347   6.111  17.057  1.7831 -0.1579  0.3030
19970TIP3    H281402   1.401   6.195  16.943 -0.4523  0.1713 -0.5742
19971TIP3   OH281403   4.754   0.271   2.892  0.2787  0.4098  0.0385
19971TIP3    H181404   4.663   0.259   2.919  0.6268 -0.8312  0.7849
19971TIP3    H281405   4.749   0.292   2.799 -0.7354 -1.0108 -0.2705
19972TIP3   OH281406   5.288   0.137   5.278 -0.4134  0.7460 -0.0498
19972TIP3    H181407   5.223   0.190   5.232 -1.5430  0.1023  0.7483
19972TIP3    H281408   5.344   0.201   5.321 -1.4197  1.3246  0.4463
19973TIP3   OH281409   0.986   0.623   0.239 -0.1445  0.6677 -0.0505
19973TIP3    H181410   0.982   0.527   0.236  0.6814  0.5848  1.0410
19973TIP3    H281411   0.946   0.646   0.322  2.5197  1.0279  1.2307
19974TIP3   OH281412   2.952   4.825   1.344 -0.1522 -0.2235 -0.0460
19974TIP3    H181413   2.949   4.800   1.437  0.1926 -2.9868 -0.7039
19974TIP3    H281414   2.868   4.796   1.308 -0.0010  0.1907 -0.7486
19975TIP3   OH281415   2.916   6.277   1.002 -0.7623 -0.8449 -0.3114
19975TIP3    H181416   2.830   6.255   0.966 -0.7296 -3.2335  0.9128
19975TIP3    H281417   2.978   6.234   0.943 -0.5825 -1.9686  0.6598
19976TIP3   OH281418   5.407   4.871  13.506  0.3306 -0.0512  0.1381
19976TIP3    H181419   5.399   4.832  13.593  0.7137 -0.6467 -0.0812
19976TIP3    H281420   5.425   4.963  13.522 -1.6559  0.2872  0.6626
19977TIP3   OH281421   5.443   6.460   4.798 -0.1141  0.2768 -0.1584
19977TIP3    H181422   5.518   6.421   4.752  1.3819  0.7186  1.7386
19977TIP3    H281423   5.425   6.399   4.870 -0.8499  0.7384  0.0588
19978TIP3   OH281424   4.255   6.384  14.399 -0.0380 -0.6562  0.1954
19978TIP3    H181425   4.178   6.351  14.352  0.3819 -1.2410 -0.0980
19978TIP3    H281426   4.299   6.440  14.336 -0.3112 -0.1786  0.4223
19979TIP3   OH281427   2.900   3.453   0.090 -0.0788  0.5509 -0.3889
19979TIP3    H181428   2.910   3.539   0.049  1.3948  0.4724 -0.2582
19979TIP3    H281429   2.973   3.448   0.152 -2.5896  0.9867  2.9228
19980TIP3   OH281430   6.203   0.174   3.166 -0.1406  0.1492  0.0641
19980TIP3    H181431   6.293   0.205   3.174 -0.4797  0.6193  2.6850
19980TIP3    H281432   6.163   0.233   3.102  0.7080  1.6493  0.8625
19981TIP3   OH281433   6.182   4.283  15.845 -0.3375 -0.5825  0.2424
19981TIP3    H181434   6.255   4.222  15.840  2.2373  2.3046 -0.6436
19981TIP3    H281435   6.209   4.349  15.909 -1.8575  0.9081 -0.5414
19982TIP3   OH281436   0.382   3.894  11.732 -0.3944  0.4902 -0.3365
19982TIP3    H181437   0.337   3.823  11.686 -0.3404 -0.6258  1.2259
19982TIP3    H281438   0.313   3.958  11.750 -0.7355  0.2012 -0.6055
19983TIP3   OH281439   2.696   4.431   2.354  0.1479  0.2919 -0.6163
19983TIP3    H181440   2.752   4.413   2.429 -1.6117 -0.1755  0.6560
19983TIP3    H281441   2.735   4.382   2.282  2.7798  2.0081 -0.4904
19984TIP3   OH281442   5.293   3.497  12.228  0.0259 -0.4536  0.5934
19984TIP3    H181443   5.337   3.574  12.192  1.9106 -1.6108  0.3092
19984TIP3    H281444   5.256   3.527  12.311  0.8132  0.7346  0.5344
19985TIP3   OH281445   2.613   6.395   2.458 -0.1141  0.0343  0.1534
19985TIP3    H181446   2.531   6.347   2.468 -0.7277  0.5684 -1.9424
19985TIP3    H281447   2.592   6.485   2.483 -0.5976  0.4921 -1.7692
19986TIP3   OH281448   2.923   1.393  14.664  0.9504 -0.0109  0.3619
19986TIP3    H181449   2.878   1.403  14.748 -2.7666 -1.8842 -1.1580
19986TIP3    H281450   2.932   1.482  14.631 -1.7358  0.5409  0.8703
19987TIP3   OH281451   3.003   1.152  12.850  0.7113  0.1085  0.2521
19987TIP3    H181452   2.926   1.102  12.822 -1.1898  3.8540 -1.9396
19987TIP3    H281453   2.972   1.202  12.926  2.6378 -1.8688  2.5275
19988TIP3   OH281454   4.565   0.916   5.420  0.8584 -0.2607 -0.3102
19988TIP3    H181455   4.484   0.950   5.381  1.1138  1.4136  0.5120
19988TIP3    H281456   4.594   0.848   5.360 -0.2340  0.3165 -1.5397
19989TIP3   OH281457   2.166   0.859   2.758 -0.7839 -0.2275  0.0794
19989TIP3    H181458   2.142   0.932   2.701 -1.2187  0.0078  0.5561
19989TIP3    H281459   2.204   0.794   2.699 -0.1078  0.5013 -0.3042
19990TIP3   OH281460   6.374   1.415  13.092  0.4809  0.4287 -0.7055
19990TIP3    H181461   6.290   1.380  13.120  0.9848  0.5798  1.0987
19990TIP3    H281462   6.396   1.364  13.014 -0.4538 -0.8239 -0.1870
19991TIP3   OH281463   1.643   6.326   4.655  0.6015 -0.1616 -0.2361
19991TIP3    H181464   1.604   6.264   4.716  0.4199 -0.8382 -1.0270
19991TIP3    H281465   1.569   6.357   4.602  0.7098  0.6391  0.0619
19992TIP3   OH281466   4.774   3.623  12.889 -0.0196  0.5120  0.0377
19992TIP3    H181467   4.851   3.579  12.926  1.4440  1.9774 -1.1008
19992TIP3    H281468   4.758   3.697  12.949  0.9482  1.5620 -0.9532
19993TIP3   OH281469   0.042   3.297  14.472 -0.2219  0.0703  0.2781
19993TIP3    H181470   0.027   3.351  14.550 -0.6687 -0.5217  0.6178
19993TIP3    H281471   0.094   3.223  14.504  0.4151  0.3060 -0.1879
19994TIP3   OH281472   5.498   2.754   3.002  0.2500 -0.3415 -0.1440
19994TIP3    H181473   5.434   2.756   3.072 -1.3767 -1.9365 -1.4963
19994TIP3    H281474   5.571   2.703   3.038  0.1272  0.1804  0.8804
19995TIP3   OH281475   0.645   2.191   0.040  0.4990  0.1632 -0.4369
19995TIP3    H181476   0.720   2.248   0.026  1.0293 -0.7783 -1.5245
19995TIP3    H281477   0.620   2.161  -0.047 -0.1366 -0.8026  0.0559
19996TIP3   OH281478   4.457   5.130  15.789 -0.4568  0.2744 -0.2694
19996TIP3    H181479   4.463   5.217  15.750  2.2687  0.2128 -0.2300
19996TIP3    H281480   4.503   5.139  15.873 -1.2454 -0.9207  0.3227
19997TIP3   OH281481   1.304   0.110   4.510  0.2908  0.2925 -0.3023
19997TIP3    H181482   1.375   0.095   4.448  0.1136 -0.2831 -0.3719
19997TIP3    H281483   1.348   0.140   4.590  0.5512  0.6436 -0.5781
19998TIP3   OH281484   3.571   4.473  13.090 -0.6710 -0.7854  0.0201
19998TIP3    H181485   3.559   4.435  13.003 -0.8639 -1.9838  0.5536
19998TIP3    H281486   3.581   4.567  13.074 -0.7576 -0.9830 -1.2861
19999TIP3   OH281487   0.557   5.222   4.246  0.6817  0.1014  0.4464
19999TIP3    H181488   0.570   5.296   4.306 -0.1540  0.0891  0.6530
19999TIP3    H281489   0.555   5.261   4.159  0.7932  0.2550  0.5120
20000TIP3   OH281490   0.259   3.847   3.708 -0.3049 -0.4801  0.3004
20000TIP3    H181491   0.249   3.923   3.764 -1.5276  0.4142 -1.0441
20000TIP3    H281492   0.348   3.854   3.673 -0.9247  1.2765 -1.0534
20001TIP3   OH281493   4.154   5.382  15.682  0.1798 -0.7965  0.0000
20001TIP3    H181494   4.086   5.402  15.617  0.1508  1.5211  0.6755
20001TIP3    H281495   4.151   5.287  15.689 -0.9458 -1.0060 -2.1725
20002TIP3   OH281496   1.326   6.332   0.623 -0.1249  0.2418  0.2561
20002TIP3    H181497   1.315   6.416   0.580 -0.4636  0.4160  0.6710
20002TIP3    H281498   1.418   6.328   0.647 -0.4733  1.3610  1.9742
20003TIP3   OH281499   1.723   2.401   1.631 -0.2971 -0.5752 -0.6963
20003TIP3    H181500   1.757   2.361   1.551  1.2715 -0.8551  0.0766
20003TIP3    H281501   1.635   2.430   1.608  0.5759  0.5251 -2.9395
20004TIP3   OH281502   6.516   0.645  11.345  0.3810  0.2512  0.7213
20004TIP3    H181503   6.527   0.672  11.437  1.0084 -0.3657  0.8343
20004TIP3    H281504   6.532   0.550  11.346 -1.0065 -0.0133  0.2043
20005TIP3   OH281505   4.475   0.922  15.088 -0.3008  0.3050 -0.3386
20005TIP3    H181506   4.554   0.868  15.083 -0.6498 -0.2560  0.0783
20005TIP3    H281507   4.506   1.007  15.120 -0.3394 -1.1096  4.2083
20006TIP3   OH281508   6.013   2.173   3.220  0.1866 -0.6128 -0.5501
20006TIP3    H181509   6.087   2.233   3.226 -0.7069  0.3597  1.4273
20006TIP3    H281510   5.962   2.206   3.146  0.1450  0.5569 -0.0154
20007TIP3   OH281511   1.370   4.541  12.196 -0.1463 -0.4868 -0.0325
20007TIP3    H181512   1.339   4.515  12.109 -0.9528 -1.7825  0.6181
20007TIP3    H281513   1.368   4.637  12.194 -0.2774 -0.4983 -1.3892
20008TIP3   OH281514   4.521   5.013   3.932 -0.4150 -0.6978  1.4298
20008TIP3    H181515   4.447   4.956   3.953 -0.1255 -1.1206  1.3232
20008TIP3    H281516   4.598   4.961   3.955 -0.1667  0.2426  2.7816
20009TIP3   OH281517   5.398   3.903  11.499  0.2007 -0.4119  0.7027
20009TIP3    H181518   5.421   3.877  11.410 -0.5683  0.2945  0.2868
20009TIP3    H281519   5.478   3.944  11.533  0.1656  0.3252 -0.0621
20010TIP3   OH281520   6.592   3.097  12.596  0.5971 -0.7879  0.2442
20010TIP3    H181521   6.589   3.046  12.514  0.6514 -0.5140  0.0710
20010TIP3    H281522   6.672   3.150  12.588  2.2436 -2.8751  1.7322
20011TIP3   OH281523   2.573   3.131  12.800  0.8392  0.4266 -0.3185
20011TIP3    H181524   2.639   3.195  12.828  1.2175 -0.6685  1.5082
20011TIP3    H281525   2.491   3.179  12.800  1.1369  0.9704  0.8545
20012TIP3   OH281526   3.024   1.095  16.518  0.2669 -0.2529  0.0175
20012TIP3    H181527   3.118   1.114  16.527  0.4695 -1.0864 -0.2623
20012TIP3    H281528   3.015   1.061  16.429 -0.2726 -0.3318  0.0996
20013TIP3   OH281529   3.403   0.817  11.247 -0.0361 -0.0397 -0.5607
20013TIP3    H181530   3.445   0.839  11.164  0.7327 -0.9857 -0.4401
20013TIP3    H281531   3.359   0.898  11.274  1.7374  1.0310 -0.6942
20014TIP3   OH281532   0.558   1.108   2.941  0.0812  0.0429  0.5608
20014TIP3    H181533   0.636   1.058   2.964 -0.4653 -0.4365  1.4574
20014TIP3    H281534   0.510   1.051   2.882  0.1973  0.1528  0.3605
20015TIP3   OH281535   1.288   2.972   3.672 -0.1261  0.4007  0.0909
20015TIP3    H181536   1.301   2.881   3.648 -3.4711 -0.1569 -0.1594
20015TIP3    H281537   1.292   3.020   3.589 -0.4022  0.1682 -0.0576
20016TIP3   OH281538   2.164   2.395  16.619 -0.2724 -0.1240  0.1404
20016TIP3    H181539   2.090   2.445  16.583 -0.7159  0.4744  1.8028
20016TIP3    H281540   2.130   2.358  16.701  1.5105  0.8982  1.4107
20017TIP3   OH281541   0.410   1.985   3.975 -0.1618 -0.0379 -0.4965
20017TIP3    H181542   0.495   1.994   3.934  0.2421 -1.4812 -0.0362
20017TIP3    H281543   0.397   1.891   3.983 -0.5466  0.1630  1.9925
20018TIP3   OH281544   4.183   5.778   3.762  0.3068  0.2994 -0.1991
20018TIP3    H181545   4.203   5.728   3.841  0.4992 -0.3570 -0.6563
20018TIP3    H281546   4.226   5.862   3.777 -0.9568  0.7687  1.0569
20019TIP3   OH281547   2.594   0.836   0.126 -0.3353 -0.1606 -0.5104
20019TIP3    H181548   2.589   0.740   0.133  3.3553 -0.6228 -1.8987
20019TIP3    H281549   2.577   0.854   0.034 -1.4931  0.6014 -0.1552
20020TIP3   OH281550   5.463   5.246   3.395  0.2772 -0.3273 -0.2748
20020TIP3    H181551   5.430   5.168   3.351 -0.0498 -0.9087  0.9515
20020TIP3    H281552   5.384   5.294   3.421  0.4724  0.7727 -1.5735
20021TIP3   OH281553   4.413   4.214   0.208  0.1571 -0.3460  0.4306
20021TIP3    H181554   4.406   4.230   0.302  3.8517 -0.6312  0.9195
20021TIP3    H281555   4.397   4.120   0.198  0.2735 -0.4118  0.8521
20022TIP3   OH281556   1.657   2.841   5.538  0.2753 -0.1491 -0.1919
20022TIP3    H181557   1.573   2.820   5.498  0.3638 -1.8960  0.4756
20022TIP3    H281558   1.688   2.759   5.575  1.8411  0.6638  0.4156
20023TIP3   OH281559   4.585   0.082  13.278  0.1533  0.1568  0.1808
20023TIP3    H181560   4.545   0.001  13.247 -0.8690  0.9314 -0.5884
20023TIP3    H281561   4.529   0.111  13.350  0.5545  0.1442  0.4993
20024TIP3   OH281562   1.754   2.469  17.287 -0.0930  0.0261  0.1974
20024TIP3    H181563   1.806   2.477  17.207 -0.5535 -1.3195 -0.2588
20024TIP3    H281564   1.819   2.451  17.355  0.1087 -1.2647 -0.3055
20025TIP3   OH281565   5.573   3.201   5.473 -0.5468 -0.1205  0.3827
20025TIP3    H181566   5.483   3.205   5.507 -0.5473  1.3275  0.2771
20025TIP3    H281567   5.587   3.108   5.454 -2.3121 -0.2703 -0.3935
20026TIP3   OH281568   1.301   0.209   6.059  0.1835  0.1612 -0.4196
20026TIP3    H181569   1.353   0.129   6.065  2.0415  1.3928  1.3804
20026TIP3    H281570   1.235   0.199   6.128 -1.3843 -0.9096 -1.9714
20027TIP3   OH281571   2.444   2.303  12.130  0.0470 -0.2507  0.5448
20027TIP3    H181572   2.506   2.246  12.086 -0.2993 -0.1054 -0.1501
20027TIP3    H281573   2.484   2.321  12.215  0.6090 -0.7413  0.3913
20028TIP3   OH281574   4.746   1.797  13.116  0.2865 -0.5921  0.0478
20028TIP3    H181575   4.829   1.798  13.165  0.4370  1.0659 -0.1808
20028TIP3    H281576   4.684   1.756  13.176  1.1488 -1.4488  0.3964
20029TIP3   OH281577   2.138   3.153   6.178  0.3946 -0.3795 -0.4924
20029TIP3    H181578   2.046   3.164   6.150  0.6571 -0.3958 -1.4181
20029TIP3    H281579   2.133   3.144   6.273 -0.3945  1.5751 -0.2854
20030TIP3   OH281580   0.033   3.810   0.959  0.1081 -0.7067 -0.7346
20030TIP3    H181581  -0.005   3.868   0.892 -0.0677  0.0657  0.0195
20030TIP3    H281582  -0.022   3.731   0.956  0.0880 -0.6724 -1.4844
20031TIP3   OH281583   1.931   4.534  12.898 -0.2853 -0.9173 -0.3796
20031TIP3    H181584   1.976   4.573  12.973  0.5414 -0.9560 -0.8513
20031TIP3    H281585   1.943   4.440  12.909  1.9280 -0.8628 -1.8093
20032TIP3   OH281586   4.239   0.689   1.589  0.1821  0.2566 -0.5576
20032TIP3    H181587   4.203   0.773   1.616 -0.5496  0.0751 -0.9545
20032TIP3    H281588   4.208   0.677   1.499  0.0174 -0.5791 -0.3978
20033TIP3   OH281589   3.986   2.533   1.971 -0.5369  0.2320 -0.1605
20033TIP3    H181590   4.030   2.466   1.918  1.0165 -0.9461  2.4253
20033TIP3    H281591   3.979   2.609   1.913 -0.8387 -1.5864 -2.6707
20034TIP3   OH281592   2.601   1.946   3.562 -0.0759 -0.5808  0.1315
20034TIP3    H181593   2.622   1.970   3.472 -0.3254  1.4936  0.5712
20034TIP3    H281594   2.506   1.933   3.563 -0.1542 -0.0383  0.1932
20035TIP3   OH281595   6.107   3.357  16.812 -0.4873  0.1569 -0.1561
20035TIP3    H181596   6.020   3.335  16.845  0.3641  0.3711  2.5681
20035TIP3    H281597   6.144   3.273  16.785 -0.5995 -0.4026  1.3099
20036TIP3   OH281598   5.003   1.776   1.002  0.2150  0.3898  0.0167
20036TIP3    H181599   5.069   1.753   1.067  1.6615  1.5857 -0.9581
20036TIP3    H281600   4.940   1.830   1.049  1.1712  1.1435  0.4565
20037TIP3   OH281601   5.933   3.786   3.509  0.5540 -0.2904  0.4221
20037TIP3    H181602   5.917   3.853   3.576 -3.3218 -2.6573  2.1924
20037TIP3    H281603   5.935   3.704   3.557 -0.8524 -1.9607 -2.1448
20038TIP3   OH281604   2.431   1.413  16.849  0.0989 -0.1135 -0.6755
20038TIP3    H181605   2.466   1.325  16.838 -0.1055 -0.1883 -0.7159
20038TIP3    H281606   2.500   1.470  16.814  1.1486 -0.1268  1.2107
20039TIP3   OH281607   2.185   4.474   1.575 -0.4038  0.0121 -0.4679
20039TIP3    H181608   2.260   4.414   1.578 -0.9402 -0.7194 -1.2340
20039TIP3    H281609   2.171   4.490   1.482 -1.2679  0.0419 -0.3403
20040TIP3   OH281610   3.044   5.587   2.756  0.1402  0.3376 -0.3653
20040TIP3    H181611   2.971   5.525   2.752 -0.4302  0.9794 -0.0346
20040TIP3    H281612   3.119   5.537   2.725 -0.6382 -0.0141 -1.7660
20041TIP3   OH281613   5.780   1.942   1.702  0.0939 -0.0934  0.0112
20041TIP3    H181614   5.812   2.007   1.639 -0.6401 -1.1886 -1.5462
20041TIP3    H281615   5.712   1.894   1.655 -0.7986 -0.6829  1.7994
20042TIP3   OH281616   1.350   3.462  17.210 -0.2430  1.1963 -0.3232
20042TIP3    H181617   1.431   3.425  17.176 -0.4337  0.1525  0.3197
20042TIP3    H281618   1.309   3.391  17.258 -2.1287  1.3448 -1.6001
20043TIP3   OH281619   1.919   0.797  13.131  0.2593 -0.6164  0.4519
20043TIP3    H181620   1.849   0.792  13.196 -0.6761  1.5852 -0.2934
20043TIP3    H281621   1.967   0.877  13.154  0.4750 -0.3053 -0.9917
20044TIP3   OH281622   6.226   4.273  16.560  0.2285  0.5233 -0.5826
20044TIP3    H181623   6.295   4.237  16.615  0.4182  0.9016 -0.5688
20044TIP3    H281624   6.151   4.216  16.575 -0.2837  1.6178  1.4390
20045TIP3   OH281625   3.496   3.552  16.592  0.0757  0.5440  0.3932
20045TIP3    H181626   3.439   3.583  16.663  0.7409  1.1319  0.6885
20045TIP3    H281627   3.569   3.511  16.637  0.3202  0.5864  0.0385
20046TIP3   OH281628   2.958   1.802  12.190 -0.0351  0.0586  0.1100
20046TIP3    H181629   2.996   1.736  12.248 -0.1073 -0.2040 -0.1363
20046TIP3    H281630   2.891   1.845  12.243 -0.3653 -0.4379  0.1064
20047TIP3   OH281631   6.296   3.513   3.901 -0.3781  0.1282  0.4968
20047TIP3    H181632   6.236   3.444   3.931 -0.0050  0.4588  2.1225
20047TIP3    H281633   6.383   3.472   3.906 -0.3976 -0.3212 -1.7625
20048TIP3   OH281634   4.877   6.158   6.467 -0.0746 -0.2237  0.0960
20048TIP3    H181635   4.919   6.072   6.459  0.5567  0.1108 -0.3032
20048TIP3    H281636   4.842   6.159   6.556 -0.7173 -1.1639 -0.1356
20049TIP3   OH281637   5.076   2.807   2.984  0.2708 -1.1487 -0.0067
20049TIP3    H181638   5.102   2.889   3.025 -0.4762 -1.2438  0.6922
20049TIP3    H281639   5.131   2.800   2.906  0.4742 -0.0860  0.0298
20050TIP3   OH281640   1.966   3.177   2.796 -0.1026 -0.3287  0.4589
20050TIP3    H181641   1.972   3.239   2.869 -1.5000 -0.6871  0.9150
20050TIP3    H281642   1.876   3.187   2.764  0.8934  0.9457 -2.2771
20051TIP3   OH281643   0.848   3.881  16.550 -0.3599 -0.7995 -0.0487
20051TIP3    H181644   0.761   3.915  16.528 -0.8946 -1.5213  0.8994
20051TIP3    H281645   0.852   3.796  16.506 -0.3765 -1.0401  0.4129
20052TIP3   OH281646   0.431   2.040   0.466  0.1307  0.3019 -0.0282
20052TIP3    H181647   0.465   2.017   0.380  1.3388  0.3218  0.4176
20052TIP3    H281648   0.494   2.003   0.528  0.0764  1.5184  0.8070
20053TIP3   OH281649   6.250   3.933   1.769 -0.3786 -0.0313 -0.2718
20053TIP3    H181650   6.344   3.915   1.778 -0.1664  0.5229 -1.3081
20053TIP3    H281651   6.209   3.847   1.778  0.3482 -0.5105 -1.3014
20054TIP3   OH281652   4.341   0.959   4.551 -0.3332  0.0959  0.4071
20054TIP3    H181653   4.274   0.909   4.598 -1.1132  0.9678  0.2581
20054TIP3    H281654   4.326   1.050   4.577  0.4546  0.3702 -0.0551
20055TIP3   OH281655   0.605   0.106   2.771  0.4514 -0.0715  0.5367
20055TIP3    H181656   0.591   0.201   2.766  1.5667  0.0787 -0.1264
20055TIP3    H281657   0.553   0.078   2.845 -0.6271  0.9248  0.1827
20056TIP3   OH281658   3.379   5.564   5.555  0.1219  0.2158 -0.0988
20056TIP3    H181659   3.390   5.478   5.596  2.0355  0.4385 -0.0350
20056TIP3    H281660   3.433   5.623   5.608  1.5362  0.7772 -2.0586
20057TIP3   OH281661   1.581   6.222  13.516  0.6495  0.3532 -0.3957
20057TIP3    H181662   1.638   6.258  13.448 -0.9466  1.5268 -1.2034
20057TIP3    H281663   1.617   6.136  13.535  2.0317  0.6107 -1.6425
20058TIP3   OH281664   3.350   1.730  12.534  0.5711  0.0529  0.0805
20058TIP3    H181665   3.380   1.732  12.442  0.4171  0.9510  0.0439
20058TIP3    H281666   3.407   1.665  12.575  0.9030 -0.0836 -0.5665
20059TIP3   OH281667   3.318   6.043   0.562  1.0375  0.3340 -0.5353
20059TIP3    H181668   3.378   5.968   0.556  0.9598  0.2401 -0.1631
20059TIP3    H281669   3.263   6.035   0.484 -0.6979 -1.5068  0.7689
20060TIP3   OH281670   0.156   3.510  11.756  0.6912  0.5613 -0.2282
20060TIP3    H181671   0.100   3.469  11.822  0.9166  0.9681  0.2151
20060TIP3    H281672   0.116   3.485  11.672  0.0243  0.5892  0.0762
20061TIP3   OH281673   1.687   4.018  16.651  0.1746 -0.0171 -0.3562
20061TIP3    H181674   1.682   4.114  16.653 -1.1331 -0.0238 -1.6529
20061TIP3    H281675   1.715   3.994  16.740  1.3959  1.5818 -0.2575
20062TIP3   OH281676   3.149   2.547   4.255  0.3334  0.4042  0.2483
20062TIP3    H181677   3.194   2.464   4.239 -0.7728 -0.6504  2.1498
20062TIP3    H281678   3.095   2.561   4.177  1.3974 -0.0649 -0.5896
20063TIP3   OH281679   5.329   3.858  14.729 -0.3257 -0.5744 -0.3050
20063TIP3    H181680   5.371   3.894  14.807  0.3253 -0.9112 -0.4903
20063TIP3    H281681   5.388   3.883  14.657  0.3627 -2.3324 -0.4035
20064TIP3   OH281682   1.056   6.115   6.752  0.1677 -0.3699  0.1733
20064TIP3    H181683   1.006   6.182   6.799 -0.2249 -0.4447 -0.1330
20064TIP3    H281684   1.124   6.087   6.814 -1.2373 -1.5228  1.2421
20065TIP3   OH281685   2.756   4.140   1.223 -0.8516 -0.4177 -0.2808
20065TIP3    H181686   2.821   4.128   1.154 -0.5935 -0.8221  0.0291
20065TIP3    H281687   2.765   4.231   1.250 -0.6255 -0.3908 -0.4496
20066TIP3   OH281688   4.499   2.514  17.329 -0.4979 -0.6092  0.0916
20066TIP3    H181689   4.470   2.423  17.342  0.5324 -0.6264  3.0810
20066TIP3    H281690   4.593   2.506  17.309 -0.4508 -0.2215  0.1531
20067TIP3   OH281691   4.594   2.119  17.184 -0.1058 -0.1188  0.2908
20067TIP3    H181692   4.515   2.093  17.231  0.1824 -0.4503  0.5992
20067TIP3    H281693   4.569   2.117  17.091 -1.2261  2.3483  0.4558
20068TIP3   OH281694   3.382   4.574  11.729 -0.1257 -0.2061 -0.1345
20068TIP3    H181695   3.385   4.666  11.757 -0.4253 -0.2171 -0.0542
20068TIP3    H281696   3.456   4.564  11.670 -0.0059  0.0508 -0.0303
20069TIP3   OH281697   6.361   4.893   3.222 -0.3224  0.5381 -0.0243
20069TIP3    H181698   6.297   4.955   3.188 -0.1460  0.1528 -1.1071
20069TIP3    H281699   6.399   4.852   3.144 -0.4583 -0.9486  0.6451
20070TIP3   OH281700   2.429   3.027  16.114  0.2130 -0.5156  0.4834
20070TIP3    H181701   2.498   2.962  16.102  2.7011  1.8369  0.9824
20070TIP3    H281702   2.460   3.081  16.187 -1.9241  0.9882  0.3649
20071TIP3   OH281703   3.506   6.275   3.092 -0.6012  0.0537  0.2118
20071TIP3    H181704   3.451   6.233   3.026 -2.2330  0.8424  0.9895
20071TIP3    H281705   3.534   6.357   3.052  1.1468 -0.9218 -0.6648
20072TIP3   OH281706   4.477   5.211  16.796  0.1943  0.7563 -0.3382
20072TIP3    H181707   4.446   5.298  16.824 -0.7614  0.2627  0.1923
20072TIP3    H281708   4.489   5.162  16.877  0.6884  0.3685 -0.6384
20073TIP3   OH281709   3.778   2.730   1.409  0.3670 -0.4253  0.1425
20073TIP3    H181710   3.838   2.670   1.455  0.7443 -1.2445 -1.3595
20073TIP3    H281711   3.804   2.724   1.317 -0.4857  1.0392 -0.2234
20074TIP3   OH281712   4.090   1.648   2.897  0.3106 -0.4011 -0.1456
20074TIP3    H181713   4.116   1.655   2.989 -0.3820  0.6198 -0.0072
20074TIP3    H281714   4.056   1.735   2.876 -2.6878 -1.5319 -0.4091
20075TIP3   OH281715   2.943   2.138   3.028  0.1159 -0.2881  0.0098
20075TIP3    H181716   2.962   2.223   3.068 -0.2665  0.3040 -1.0407
20075TIP3    H281717   3.000   2.134   2.952 -0.6726 -0.4794 -0.5814
20076TIP3   OH281718   0.380   4.640   2.128  0.4067  0.3646  0.3558
20076TIP3    H181719   0.297   4.635   2.081  0.4623 -1.1590  0.3857
20076TIP3    H281720   0.446   4.620   2.062  0.6683  0.5295  0.5667
20077TIP3   OH281721   3.376   4.300  11.814 -0.2621 -0.2254  0.2477
20077TIP3    H181722   3.389   4.262  11.727  0.0231 -0.9066  0.5797
20077TIP3    H281723   3.364   4.393  11.798 -0.4020 -0.3753 -0.5385
20078TIP3   OH281724   5.799   1.758   6.258  0.3618  0.9272 -0.3291
20078TIP3    H181725   5.789   1.666   6.233 -0.0362  1.0514 -0.6281
20078TIP3    H281726   5.854   1.796   6.188  1.7463  0.5891  0.5394
20079TIP3   OH281727   1.051   0.512   2.526 -0.9139  0.1518 -0.1883
20079TIP3    H181728   1.042   0.453   2.451  0.0699 -1.3699  0.8505
20079TIP3    H281729   1.118   0.471   2.582  0.6669  2.8137  0.0474
20080TIP3   OH281730   0.156   1.256   5.079 -0.1147  0.3874  0.3700
20080TIP3    H181731   0.180   1.209   5.159 -2.2440 -2.7222 -0.6382
20080TIP3    H281732   0.229   1.240   5.019 -0.0682 -0.2481  0.5897
20081TIP3   OH281733   6.346   4.551  16.505 -0.1365  0.0847  0.3149
20081TIP3    H181734   6.409   4.510  16.445 -0.4630 -0.1098  0.1035
20081TIP3    H281735   6.299   4.477  16.544 -3.0955  0.2247 -2.5661
20082TIP3   OH281736   5.360   0.068   0.606 -0.0469  0.0998 -0.1786
20082TIP3    H181737   5.389   0.136   0.544 -0.7670  0.8426  0.2923
20082TIP3    H281738   5.279   0.034   0.568  0.4851 -0.7669 -0.5920
20083TIP3   OH281739   0.715   5.964  17.158 -0.2016 -0.1484  0.1873
20083TIP3    H181740   0.620   5.952  17.168 -0.2106  0.5856  1.2747
20083TIP3    H281741   0.753   5.900  17.218 -0.0277 -0.2911 -0.0802
20084TIP3   OH281742   0.698   1.000  11.015  0.1500 -0.0979 -0.0114
20084TIP3    H181743   0.625   1.035  10.965 -1.0011 -1.0890  0.8848
20084TIP3    H281744   0.743   1.077  11.050 -1.3766  0.5534  0.6395
20085TIP3   OH281745   5.118   4.276   4.437 -0.1655  0.1810 -0.0839
20085TIP3    H181746   5.158   4.358   4.409 -0.4800  0.7084  0.9442
20085TIP3    H281747   5.189   4.212   4.436  0.7477  1.1066  1.7210
20086TIP3   OH281748   2.494   2.390   2.981 -1.0012 -0.0571 -0.7258
20086TIP3    H181749   2.516   2.317   3.039  0.2045  0.0245 -1.0470
20086TIP3    H281750   2.405   2.416   3.006 -1.0158 -0.9165  0.1363
20087TIP3   OH281751   5.025   4.038   3.054  0.0188  0.5967 -0.0459
20087TIP3    H181752   5.098   4.021   2.993  0.9722  2.1850  0.5894
20087TIP3    H281753   5.053   4.114   3.104 -1.6006  0.5188  1.0504
20088TIP3   OH281754   2.294   5.798  14.529  0.1818 -0.2098  0.2766
20088TIP3    H181755   2.301   5.748  14.447 -0.7078  1.6139 -0.9821
20088TIP3    H281756   2.364   5.862  14.524 -0.0116  0.0518  0.8419
20089TIP3   OH281757   1.992   0.153   5.988 -0.2517  0.4842 -0.1928
20089TIP3    H181758   2.060   0.108   5.937  0.4065  1.1411  0.0750
20089TIP3    H281759   1.957   0.086   6.046 -0.5113 -0.0963 -1.0106
20090TIP3   OH281760   3.394   4.900   3.861 -0.1358  0.7982 -0.5915
20090TIP3    H181761   3.322   4.953   3.895 -0.8602 -0.0147 -0.8360
20090TIP3    H281762   3.434   4.860   3.938  0.6006  1.8951 -0.3743
20091TIP3   OH281763   4.200   5.837   3.444  0.0462  0.0824 -0.0285
20091TIP3    H181764   4.256   5.898   3.492  1.8097 -1.2061 -0.3494
20091TIP3    H281765   4.217   5.752   3.484  0.7957 -0.8531 -2.1701
20092TIP3   OH281766   2.403   1.940   0.279  0.1922  0.0035  0.0975
20092TIP3    H181767   2.368   1.992   0.351 -1.1374 -1.4650  0.5722
20092TIP3    H281768   2.373   1.984   0.200  2.1218  1.9419  0.3606
20093TIP3   OH281769   1.036   2.463   4.304 -0.0505 -0.4940  0.1888
20093TIP3    H181770   0.994   2.476   4.219  1.0705  0.8473 -0.2044
20093TIP3    H281771   0.964   2.442   4.363 -1.3952  2.0135 -0.3860
20094TIP3   OH281772   4.978   1.347  14.354  0.3391 -0.0753 -0.4786
20094TIP3    H181773   4.925   1.269  14.336  1.0003 -0.3152 -1.4026
20094TIP3    H281774   4.949   1.375  14.441 -0.9356 -0.5035 -0.7378
20095TIP3   OH281775   1.726   5.292   6.829  0.1529 -0.0579  0.7180
20095TIP3    H181776   1.746   5.200   6.841  0.6117 -0.0771 -0.1038
20095TIP3    H281777   1.661   5.312   6.897 -1.0982 -1.3571 -0.0428
20096TIP3   OH281778   4.561   3.631  11.005 -0.0426  0.7238  0.1691
20096TIP3    H181779   4.593   3.541  11.002 -0.0407  0.6570  1.6285
20096TIP3    H281780   4.536   3.651  10.915  0.9255 -0.3771 -0.3609
20097TIP3   OH281781   6.541   3.925  12.427  0.1712  0.0710  0.1705
20097TIP3    H181782   6.558   4.008  12.470 -1.8900  0.9485 -0.5944
20097TIP3    H281783   6.451   3.931  12.396  0.9042 -1.2429 -2.5881
20098TIP3   OH281784   2.468   4.159  16.494  0.5993 -0.3241 -0.0152
20098TIP3    H181785   2.456   4.218  16.420 -0.6191 -1.4601 -0.7530
20098TIP3    H281786   2.427   4.204  16.568  1.4430  0.6178 -0.0917
20099TIP3   OH281787   2.518   1.741  11.486  0.0307 -0.2325  0.0264
20099TIP3    H181788   2.572   1.663  11.502  0.7431  0.4627  1.0976
20099TIP3    H281789   2.527   1.793  11.565 -2.5415 -0.2448  0.3910
20100TIP3   OH281790   3.834   6.512   3.910 -0.0882  0.1514 -0.0250
20100TIP3    H181791   3.841   6.534   3.817 -0.8960 -2.8415 -0.8770
20100TIP3    H281792   3.917   6.470   3.931 -0.1304  0.3160  0.4917
20101TIP3   OH281793   1.367   6.679   0.057  0.1720 -0.7290 -0.0647
20101TIP3    H181794   1.377   6.774   0.061  0.0392 -0.7421  2.5289
20101TIP3    H281795   1.443   6.645   0.104  0.0020 -1.8871 -0.6041
20102TIP3   OH281796   2.422   5.620  11.092 -0.7165  0.3627 -0.0973
20102TIP3    H181797   2.476   5.697  11.071  0.6026 -0.1108  1.3705
20102TIP3    H281798   2.484   5.556  11.126 -1.8767 -1.1785 -0.7890
20103TIP3   OH281799   2.876   1.589   4.961  0.0707  0.1909  0.1485
20103TIP3    H181800   2.816   1.523   4.927 -0.3029 -0.3159  1.7077
20103TIP3    H281801   2.955   1.579   4.907 -0.3343 -0.8590 -0.2892
20104TIP3   OH281802   3.017   6.205  13.849 -0.5028 -0.3147  0.2587
20104TIP3    H181803   2.983   6.262  13.917 -0.3346  0.5589 -0.3730
20104TIP3    H281804   2.945   6.195  13.787  0.3871  1.8021 -1.2481
20105TIP3   OH281805   4.613   1.990   5.575  0.4815  0.1257  0.7299
20105TIP3    H181806   4.662   2.073   5.573  1.1731 -0.2768  0.6642
20105TIP3    H281807   4.676   1.925   5.545  0.1469 -0.5296  1.4372
20106TIP3   OH281808   4.587   0.986  11.767  0.0153  0.3088  0.2614
20106TIP3    H181809   4.575   1.073  11.804 -3.2455  0.3160 -0.5338
20106TIP3    H281810   4.562   0.927  11.838  0.9998  0.0482  0.3990
20107TIP3   OH281811   3.525   5.278   5.585 -0.5033 -0.0525 -0.0390
20107TIP3    H181812   3.545   5.192   5.622  0.5250  0.4193  0.5597
20107TIP3    H281813   3.610   5.323   5.583 -0.5098  0.0223 -2.8498
20108TIP3   OH281814   2.817   5.505   3.453 -0.1492  0.3399 -0.1589
20108TIP3    H181815   2.833   5.587   3.406 -1.8717  0.3402 -0.8167
20108TIP3    H281816   2.822   5.529   3.546 -0.0604  1.0624 -0.3431
20109TIP3   OH281817   2.697   5.123   4.029 -0.4411  0.2099  0.0771
20109TIP3    H181818   2.690   5.148   3.936  2.1287 -1.8354 -0.8052
20109TIP3    H281819   2.626   5.060   4.042 -0.0973 -0.4204 -0.9154
20110TIP3   OH281820   2.160   0.710  16.694  0.1901 -0.3745 -0.2149
20110TIP3    H181821   2.138   0.724  16.602  0.2868 -0.0182 -0.1846
20110TIP3    H281822   2.238   0.762  16.709 -0.7111  0.8414  0.4612
20111TIP3   OH281823   2.009   0.811   4.142 -0.6262 -0.4406  0.2354
20111TIP3    H181824   2.022   0.718   4.158 -1.5129 -0.3270  1.7139
20111TIP3    H281825   2.069   0.855   4.202 -1.4554 -0.0453  0.7888
20112TIP3   OH281826   3.796   2.324  16.441  0.3732  0.1398 -0.4228
20112TIP3    H181827   3.840   2.366  16.368  1.0423 -3.2935 -2.1922
20112TIP3    H281828   3.861   2.324  16.511  0.9747  0.4691 -0.9655
20113TIP3   OH281829   5.288   0.901  14.966  0.3200 -0.2755 -0.5560
20113TIP3    H181830   5.359   0.866  15.020 -1.1581 -0.2776  1.5122
20113TIP3    H281831   5.322   0.984  14.932  1.1459 -0.0246  0.8090
20114TIP3   OH281832   0.514   3.931   2.615 -0.4246 -0.2003 -0.0227
20114TIP3    H181833   0.581   3.869   2.644 -0.8397 -0.6952 -0.1056
20114TIP3    H281834   0.525   4.007   2.672  0.6984  0.0314 -0.5308
20115TIP3   OH281835   3.178   5.122  16.405  0.2151 -0.8044 -0.0204
20115TIP3    H181836   3.234   5.151  16.333  0.0358  1.7977  0.7675
20115TIP3    H281837   3.092   5.111  16.365  0.2995 -0.2087 -0.3850
20116TIP3   OH281838   3.774   1.028   5.871 -0.6678 -0.3324  0.5416
20116TIP3    H181839   3.691   1.056   5.908  0.4235  1.4897  1.8139
20116TIP3    H281840   3.759   1.025   5.776 -1.8754  1.1666  0.6446
20117TIP3   OH281841   3.980   5.792  17.413  0.5389 -0.1882  0.0052
20117TIP3    H181842   4.037   5.840  17.473  0.3614 -0.2069  0.1901
20117TIP3    H281843   4.017   5.704  17.410  1.2929  0.1516 -0.8987
20118TIP3   OH281844   2.970   1.332   1.308  0.2455 -0.2314  0.0382
20118TIP3    H181845   2.910   1.363   1.240 -0.5994 -1.0577  0.3843
20118TIP3    H281846   3.031   1.275   1.263 -0.6521 -1.2198  0.0410
20119TIP3   OH281847   3.778   6.638   2.115  0.0572 -0.0331  0.4843
20119TIP3    H181848   3.836   6.564   2.098  0.0141  0.3250 -1.5140
20119TIP3    H281849   3.829   6.696   2.172 -0.0330 -1.6831  2.3743
20120TIP3   OH281850   3.997   1.018   0.745 -0.2413  0.3196  0.1808
20120TIP3    H181851   3.926   0.966   0.783 -0.9622  0.0501 -1.4603
20120TIP3    H281852   4.077   0.976   0.776 -0.8117 -0.9798 -0.0402
20121TIP3   OH281853   4.408   1.554  14.524 -0.0982  0.0819  0.0571
20121TIP3    H181854   4.445   1.604  14.451 -0.1126 -1.7177 -1.2353
20121TIP3    H281855   4.482   1.505  14.560 -0.6469 -1.4684 -0.8229
20122TIP3   OH281856   1.045   5.865   5.191 -0.3373 -0.2630  0.1160
20122TIP3    H181857   1.047   5.772   5.172 -2.4543 -0.3234 -0.0261
20122TIP3    H281858   1.002   5.905   5.116 -1.5185  0.5237  1.1594
20123TIP3   OH281859   4.194   3.865  16.757  0.0131 -0.5253  0.1724
20123TIP3    H181860   4.284   3.884  16.732 -0.3161  2.0511  0.7195
20123TIP3    H281861   4.198   3.848  16.851 -0.1367  0.3841  0.3563
20124TIP3   OH281862   0.576   2.869  11.633  0.3163 -0.0864 -0.4450
20124TIP3    H181863   0.667   2.847  11.653  1.3383  1.6230 -2.7693
20124TIP3    H281864   0.534   2.784  11.619  1.4135 -0.9165  0.9977
20125TIP3   OH281865   6.425   3.611  16.376  0.2160 -0.5779  0.1416
20125TIP3    H181866   6.390   3.558  16.305  0.1215  1.1046 -1.1263
20125TIP3    H281867   6.518   3.622  16.355  0.0472  0.4693 -0.0890
20126TIP3   OH281868   4.005   6.037   4.729 -0.2195  0.1924  0.2820
20126TIP3    H181869   3.999   6.010   4.637  3.0884 -1.6507  0.4432
20126TIP3    H281870   3.998   6.132   4.726 -0.7567  0.1316 -1.8249
20127TIP3   OH281871   0.849   0.468   2.717 -0.1414 -0.0239  0.2231
20127TIP3    H181872   0.917   0.478   2.650  1.0191 -2.3043  0.9634
20127TIP3    H281873   0.769   0.450   2.668  0.4576 -0.5262 -0.5879
20128TIP3   OH281874   2.292   4.739  15.363 -0.3015 -0.0640  0.2968
20128TIP3    H181875   2.327   4.650  15.358 -0.3135 -0.0721  0.3676
20128TIP3    H281876   2.255   4.754  15.276 -4.3618 -1.7625  1.5300
20129TIP3   OH281877   4.397   4.329   3.570 -0.7309 -0.1132  0.0442
20129TIP3    H181878   4.395   4.260   3.504 -0.5093  0.2896 -0.3847
20129TIP3    H281879   4.375   4.409   3.522 -2.0959 -0.0441  0.7383
20130TIP3   OH281880   3.407   1.021  15.907 -0.0259 -0.4581 -0.6375
20130TIP3    H181881   3.410   0.926  15.908 -1.1545 -0.5054  0.7902
20130TIP3    H281882   3.498   1.048  15.921  0.0490 -1.3561  0.7291
20131TIP3   OH281883   4.314   3.832  12.633 -0.3397 -0.3286 -0.1209
20131TIP3    H181884   4.326   3.788  12.549  1.3755  1.2177 -0.7447
20131TIP3    H281885   4.316   3.925  12.612 -2.3033  0.1108  1.3620
20132TIP3   OH281886   1.712   5.250  15.223  0.1695 -0.4088 -0.1039
20132TIP3    H181887   1.777   5.295  15.277 -0.6343  1.0170 -0.2785
20132TIP3    H281888   1.693   5.312  15.152 -1.4772 -0.7243  0.0264
20133TIP3   OH281889   5.612   5.263  13.921  0.0849  0.0625  0.1645
20133TIP3    H181890   5.525   5.227  13.939  0.8705 -1.2907  1.3955
20133TIP3    H281891   5.601   5.358  13.935 -1.3903  0.0407 -0.6094
20134TIP3   OH281892   6.547   4.202   6.028  0.1526  0.0211  0.7047
20134TIP3    H181893   6.576   4.123   6.073 -1.5246 -0.8053  0.4190
20134TIP3    H281894   6.456   4.214   6.057  0.4682  2.0764  1.0283
20135TIP3   OH281895   4.844   3.233  13.238  0.0677  0.3414 -0.5920
20135TIP3    H181896   4.939   3.236  13.241  0.0396  3.1062  0.6029
20135TIP3    H281897   4.819   3.307  13.183 -1.4130 -0.4716 -1.0658
20136TIP3   OH281898   0.253   2.174   3.827  0.2469 -0.7230 -0.2579
20136TIP3    H181899   0.193   2.107   3.793  2.1086 -2.4334 -0.3277
20136TIP3    H281900   0.307   2.128   3.891  0.1926  1.2574  1.3004
20137TIP3   OH281901   3.454   0.339   6.127  0.2422 -0.3901 -0.8162
20137TIP3    H181902   3.410   0.274   6.182  0.3003  0.1101 -0.1662
20137TIP3    H281903   3.395   0.414   6.129  0.1819 -0.4128 -1.5559
20138TIP3   OH281904   3.029   2.062   3.589  0.4588 -0.1565  0.0137
20138TIP3    H181905   3.116   2.075   3.551  1.0327 -1.0894  0.9413
20138TIP3    H281906   3.035   1.978   3.635 -0.6673  0.1748  0.8177
20139TIP3   OH281907   3.119   3.127  17.643 -0.7696 -0.1685  0.5133
20139TIP3    H181908   3.084   3.147  17.730  1.2185 -2.0587  1.8613
20139TIP3    H281909   3.042   3.100  17.592 -1.9252  0.6080  1.7734
20140TIP3   OH281910   2.074   3.623  16.514  0.5261 -0.1067  0.0007
20140TIP3    H181911   2.007   3.647  16.577  1.4509  0.3118  0.8501
20140TIP3    H281912   2.154   3.664  16.547  0.4062  3.4645 -3.4203
20141TIP3   OH281913   6.439   2.606   1.177 -0.0834  0.4862  0.4165
20141TIP3    H181914   6.357   2.599   1.129  0.3468 -0.3816 -0.2152
20141TIP3    H281915   6.470   2.695   1.158  0.2584  0.0513 -1.2381
20142TIP3   OH281916   4.159   6.077   1.710 -0.8105 -0.0848  0.4056
20142TIP3    H181917   4.159   6.127   1.792  1.7176 -0.5237  0.7747
20142TIP3    H281918   4.115   5.995   1.731 -1.3698  0.3505  0.9435
20143TIP3   OH281919   4.261   1.143   0.262  0.4635  0.2573 -0.4882
20143TIP3    H181920   4.322   1.133   0.190  0.7895 -0.9695 -0.0686
20143TIP3    H281921   4.221   1.056   0.273 -1.5437  1.0637 -0.8949
20144TIP3   OH281922   0.211   6.445   0.422 -0.4448 -0.3218 -0.2182
20144TIP3    H181923   0.132   6.449   0.369 -0.5109 -2.6632 -0.4131
20144TIP3    H281924   0.193   6.378   0.488  0.7829  0.2789  0.7877
20145TIP3   OH281925   0.801   4.420  14.714 -0.2327  0.1230  0.0115
20145TIP3    H181926   0.883   4.374  14.699  0.0226  0.8671 -0.9651
20145TIP3    H281927   0.827   4.503  14.755 -0.3399  1.0084 -1.6416
20146TIP3   OH281928   0.326   1.566  11.546  0.0626  0.0282  0.1454
20146TIP3    H181929   0.297   1.506  11.614  2.8272 -2.6089 -0.7349
20146TIP3    H281930   0.320   1.515  11.465  1.2622  1.3892 -0.8700
20147TIP3   OH281931   3.893   3.353  12.961 -0.3559 -0.0012 -1.0032
20147TIP3    H181932   3.922   3.290  12.895  0.2800 -0.1049 -0.6316
20147TIP3    H281933   3.974   3.386  13.000 -0.7261 -0.0152 -0.2005
20148TIP3   OH281934   0.283   5.799   2.208 -0.5940  0.4742  0.6055
20148TIP3    H181935   0.272   5.877   2.153  0.0643  0.3703  0.3257
20148TIP3    H281936   0.251   5.727   2.153  3.7724 -0.2707 -1.3535
20149TIP3   OH281937   4.298   3.633  13.387  0.2378 -0.3999 -0.0356
20149TIP3    H181938   4.266   3.716  13.352 -1.0596 -0.3826  1.1495
20149TIP3    H281939   4.339   3.591  13.312  1.7697  1.6872 -0.4723
20150TIP3   OH281940   5.577   5.192  14.294  0.0386 -0.4050  0.6224
20150TIP3    H181941   5.629   5.268  14.267 -1.5558  0.6393  0.3524
20150TIP3    H281942   5.641   5.129  14.325  1.3723  1.3622  1.6490
20151TIP3   OH281943   0.557   3.089  14.817 -0.6092 -0.2120 -0.4426
20151TIP3    H181944   0.509   3.011  14.789  1.7763 -2.1690  0.4885
20151TIP3    H281945   0.633   3.092  14.757  1.4558 -1.0561  1.9532
20152TIP3   OH281946   3.262   3.162  13.050 -0.3907 -0.4395  0.4598
20152TIP3    H181947   3.322   3.199  12.985 -0.4065 -0.2751  0.5387
20152TIP3    H281948   3.280   3.210  13.130  0.3182 -1.3045  0.8404
20153TIP3   OH281949   6.280   2.645  16.099 -1.0638 -0.8402  0.0189
20153TIP3    H181950   6.247   2.562  16.134 -1.6061 -0.4138  0.5384
20153TIP3    H281951   6.209   2.677  16.043  0.1645 -1.9861 -2.3120
20154TIP3   OH281952   5.726   4.151   4.133  0.4743  0.7269  0.1734
20154TIP3    H181953   5.806   4.122   4.177  1.6121 -0.2824 -2.3400
20154TIP3    H281954   5.666   4.076   4.141  0.9464  0.2587 -0.5879
20155TIP3   OH281955   0.256   0.712   5.038  0.2594  0.2051  0.4697
20155TIP3    H181956   0.273   0.653   4.964  0.6906 -0.1780  0.8659
20155TIP3    H281957   0.165   0.697   5.061  0.1403  0.2814  0.0544
20156TIP3   OH281958   0.650   2.519   1.866  0.4585 -0.3807 -0.3084
20156TIP3    H181959   0.656   2.614   1.880  3.1761 -0.3675 -0.9548
20156TIP3    H281960   0.680   2.505   1.776 -2.0916 -1.7369 -1.0535
20157TIP3   OH281961   1.719   6.548   5.550 -0.4426  0.0812 -0.7807
20157TIP3    H181962   1.683   6.600   5.622  0.1196  0.9228 -1.0951
20157TIP3    H281963   1.690   6.593   5.471  2.9534  2.0608 -1.0765
20158TIP3   OH281964   3.376   2.288   2.026 -0.1815 -0.0069  0.3608
20158TIP3    H181965   3.368   2.370   1.978 -2.3527 -0.7866 -0.7374
20158TIP3    H281966   3.411   2.225   1.963  0.0609 -0.2725  0.7548
20159TIP3   OH281967   2.949   4.188   6.283 -0.0069 -0.2366  0.0524
20159TIP3    H181968   2.928   4.266   6.335 -0.3625 -0.0846 -0.3086
20159TIP3    H281969   3.035   4.206   6.245 -1.2416  1.2511 -2.3162
20160TIP3   OH281970   6.169   4.318  16.290  0.2158  0.4794  0.0488
20160TIP3    H181971   6.219   4.311  16.371  0.8680  1.3297 -0.2621
20160TIP3    H281972   6.131   4.231  16.277 -0.3185  0.4564  1.5243
20161TIP3   OH281973   1.322   6.628   3.767  0.4396  0.7809  0.7010
20161TIP3    H181974   1.361   6.610   3.852  1.0207  1.7254  0.6498
20161TIP3    H281975   1.305   6.722   3.768  1.2983  0.9794 -0.5628
20162TIP3   OH281976   2.820   2.893   0.473 -0.2432  0.3277  0.4681
20162TIP3    H181977   2.794   2.870   0.562  0.0406  0.7016  0.6513
20162TIP3    H281978   2.837   2.809   0.431 -1.1335  0.1114  0.5291
20163TIP3   OH281979   2.418   3.136   2.902 -0.1577 -0.6780  0.3536
20163TIP3    H181980   2.365   3.175   2.833 -0.4890 -1.8263 -0.0501
20163TIP3    H281981   2.408   3.196   2.976 -0.5356  0.0787 -0.2929
20164TIP3   OH281982   0.243   2.262   5.667  0.2489  0.5428 -0.3060
20164TIP3    H181983   0.191   2.205   5.611  1.9058  0.8085 -2.2268
20164TIP3    H281984   0.293   2.203   5.723  1.5556  0.0430 -1.9168
20165TIP3   OH281985   6.358   4.096  17.632  0.0776 -0.0703 -0.4332
20165TIP3    H181986   6.435   4.055  17.671 -0.6541  0.1607  1.3426
20165TIP3    H281987   6.288   4.032  17.645 -0.6915  0.9941  0.7909
20166TIP3   OH281988   0.129   4.842   2.893 -0.7379  0.1889  0.5937
20166TIP3    H181989   0.069   4.856   2.966 -1.8866 -2.4639  0.2533
20166TIP3    H281990   0.212   4.818   2.935 -1.3694 -1.2460  1.0743
20167TIP3   OH281991   5.514   1.752   5.208  0.2108 -0.2957  0.1806
20167TIP3    H181992   5.542   1.666   5.241  1.0957 -0.3568 -0.6918
20167TIP3    H281993   5.511   1.807   5.286 -0.9925 -1.2588  0.8513
20168TIP3   OH281994   5.139   3.474  13.945 -0.4148  0.0815  0.1691
20168TIP3    H181995   5.187   3.407  13.993  0.2196  0.3847 -0.0358
20168TIP3    H281996   5.085   3.517  14.012  0.7167  0.7246  0.6909
20169TIP3   OH281997   0.563   6.324   5.310 -0.0049  0.0986 -0.4117
20169TIP3    H181998   0.536   6.312   5.400  0.2518  0.2631 -0.3115
20169TIP3    H281999   0.598   6.413   5.306 -0.4077  0.2444 -0.7743
20170TIP3   OH282000   5.934   3.668  12.441  0.0018  0.1651 -0.2186
20170TIP3    H182001   5.945   3.762  12.425  0.0034 -0.0334 -1.4616
20170TIP3    H282002   5.847   3.648  12.405 -0.1456 -0.2469  0.3545
20171TIP3   OH282003   5.769   3.647   5.066 -0.5857 -0.4599 -0.3766
20171TIP3    H182004   5.776   3.736   5.101  0.1805 -0.0202 -1.5420
20171TIP3    H282005   5.800   3.590   5.136  0.2545  0.3280 -0.0885
20172TIP3   OH282006   4.234   6.073   6.009  0.0265 -0.4935  0.0252
20172TIP3    H182007   4.295   6.147   5.998 -0.7687  0.3898  1.2344
20172TIP3    H282008   4.169   6.106   6.071 -2.8179 -0.7076 -2.6325
20173TIP3   OH282009   1.685   3.881  17.293  0.3982 -0.1029  0.1238
20173TIP3    H182010   1.628   3.824  17.241  0.6324 -1.4024  1.2126
20173TIP3    H282011   1.760   3.826  17.316  0.3927  0.4667  1.6367
20174TIP3   OH282012   5.129   3.298   3.852 -0.1012  0.5846  0.0939
20174TIP3    H182013   5.115   3.274   3.944  2.5481  2.4021  1.0703
20174TIP3    H282014   5.091   3.386   3.844 -1.7269 -0.1666 -1.0489
20175TIP3   OH282015   5.652   4.708  11.278  0.4983  0.3872 -0.3118
20175TIP3    H182016   5.666   4.803  11.281  1.5993  0.3037 -1.7312
20175TIP3    H282017   5.661   4.685  11.185 -0.5816 -0.9982 -0.1053
20176TIP3   OH282018   6.293   5.906  13.843  0.2657 -0.1061  0.0353
20176TIP3    H182019   6.346   5.972  13.799  0.1985 -0.1210 -0.0682
20176TIP3    H282020   6.336   5.892  13.927  0.1240  0.2727  0.1729
20177TIP3   OH282021   5.971   6.099   0.095  0.3851 -0.0909 -0.4381
20177TIP3    H182022   5.937   6.039   0.161  0.0337  2.5597  2.0134
20177TIP3    H282023   5.900   6.108   0.032  0.2706 -1.8061 -0.5969
20178TIP3   OH282024   2.684   5.262  11.555  0.3833  0.0143 -0.1856
20178TIP3    H182025   2.692   5.167  11.569  1.9136  0.1787  0.2047
20178TIP3    H282026   2.711   5.275  11.464  1.2895  0.1810  0.0939
20179TIP3   OH282027   5.798   1.282   1.404 -0.1040 -0.2227 -0.2917
20179TIP3    H182028   5.862   1.340   1.445  1.0896 -1.7357  0.0606
20179TIP3    H282029   5.731   1.269   1.472  0.0718  0.0390 -0.0663
20180TIP3   OH282030   1.754   5.950  14.923  0.5574 -0.6512 -0.0786
20180TIP3    H182031   1.798   6.005  14.858 -1.1226  2.0817  0.9211
20180TIP3    H282032   1.735   5.868  14.877  1.3258  0.3648 -2.3257
20181TIP3   OH282033   6.425   3.066   6.744  0.0592  0.6396  0.5415
20181TIP3    H182034   6.514   3.091   6.768  0.2447  0.3339  0.1795
20181TIP3    H282035   6.399   3.130   6.678 -0.3434  1.3025  1.3151
20182TIP3   OH282036   1.796   1.211   0.938 -0.2820 -0.3578 -0.1231
20182TIP3    H182037   1.760   1.137   0.987  2.3832 -0.4966  1.8482
20182TIP3    H282038   1.866   1.173   0.885 -0.1660  0.4878 -0.6015
20183TIP3   OH282039   1.834   3.739  12.305 -0.6070  0.0102 -0.6728
20183TIP3    H182040   1.784   3.821  12.312 -0.9406 -0.2586  0.1603
20183TIP3    H282041   1.780   3.682  12.251  0.0992  0.6808 -2.1412
20184TIP3   OH282042   6.283   0.787   0.201 -0.9469  0.4712 -0.3772
20184TIP3    H182043   6.274   0.723   0.271  0.5033  0.4264 -0.2016
20184TIP3    H282044   6.235   0.749   0.128 -1.4886 -0.0339  0.2245
20185TIP3   OH282045   5.472   4.239  16.909 -0.3155 -0.3715 -0.2585
20185TIP3    H182046   5.405   4.180  16.942  0.1725 -1.1508 -0.6444
20185TIP3    H282047   5.523   4.263  16.986 -1.4186  0.7558  0.1528
20186TIP3   OH282048   5.769   0.220  13.306  0.4668 -0.5657  0.2433
20186TIP3    H182049   5.824   0.162  13.254  2.3479  0.2781  1.1823
20186TIP3    H282050   5.694   0.239  13.250  2.8215  1.0645 -2.6250
20187TIP3   OH282051   2.309   0.320   4.642  0.0895 -0.0040  0.0510
20187TIP3    H182052   2.327   0.406   4.604 -1.5215 -0.1249 -1.0668
20187TIP3    H282053   2.382   0.265   4.613  1.8949  1.2612  1.9356
20188TIP3   OH282054   4.571   6.548   5.720 -0.8327 -0.3029  0.1360
20188TIP3    H182055   4.552   6.468   5.671 -1.2652 -0.8123  1.1285
20188TIP3    H282056   4.498   6.607   5.699 -0.4497 -0.1007 -0.6936
20189TIP3   OH282057   0.316   6.648   1.338 -0.3098 -0.0789  0.2972
20189TIP3    H182058   0.405   6.657   1.371 -0.9004  0.5656  1.7940
20189TIP3    H282059   0.263   6.704   1.395 -1.6540 -0.2981 -0.6772
20190TIP3   OH282060   4.226   5.314   3.658 -0.1537  0.3738  0.0155
20190TIP3    H182061   4.290   5.264   3.708 -0.0138  1.6100  1.1065
20190TIP3    H282062   4.151   5.323   3.716 -0.3979  0.9381 -0.3732
20191TIP3   OH282063   5.528   3.264   1.087 -0.0595 -0.1920 -0.3080
20191TIP3    H182064   5.498   3.352   1.109  1.0204 -0.0621  0.7826
20191TIP3    H282065   5.472   3.205   1.138 -0.0906 -0.0742 -0.2065
20192TIP3   OH282066   1.351   6.184   3.766  0.1725 -0.8274 -0.4060
20192TIP3    H182067   1.354   6.091   3.788  0.2099 -1.3692 -2.5218
20192TIP3    H282068   1.258   6.206   3.772  0.1848 -0.9153  0.3011
20193TIP3   OH282069   0.707   1.079  11.539  0.1826  0.2741 -0.6895
20193TIP3    H182070   0.670   0.992  11.554  0.5755 -0.2201 -2.3833
20193TIP3    H282071   0.797   1.062  11.513  0.7332  1.3015  0.4665
20194TIP3   OH282072   4.335   2.273   1.889 -0.6659 -0.1668  0.6165
20194TIP3    H182073   4.316   2.204   1.952  1.8295 -0.1495  1.4727
20194TIP3    H282074   4.335   2.228   1.804  2.3934 -1.6986  1.2723
20195TIP3   OH282075   5.823   6.392  12.064 -0.3266  0.5470  0.4623
20195TIP3    H182076   5.793   6.455  12.129 -3.4976 -0.8576  0.5595
20195TIP3    H282077   5.877   6.331  12.113  0.5153  1.6379  0.9220
20196TIP3   OH282078   5.808   1.982   5.555 -0.0324 -0.5330 -0.3328
20196TIP3    H182079   5.784   2.034   5.479  0.1913  1.3116  0.8008
20196TIP3    H282080   5.901   2.002   5.569 -0.0666 -0.8652  0.4012
20197TIP3   OH282081   4.875   2.874   1.646  0.0267 -0.1512  0.5492
20197TIP3    H182082   4.901   2.863   1.738 -1.7266  0.8146  1.2006
20197TIP3    H282083   4.958   2.871   1.598  0.9208 -1.5290  2.0443
20198TIP3   OH282084   3.733   0.355   2.143  0.1249 -0.1739 -0.1995
20198TIP3    H182085   3.751   0.304   2.221 -0.6322  0.2574  0.2717
20198TIP3    H282086   3.782   0.311   2.073  1.1418 -0.3143  0.5852
20199TIP3   OH282087   2.903   5.748   0.008  0.3894 -0.1913 -0.7571
20199TIP3    H182088   2.914   5.768  -0.085  0.0125  0.8969 -0.5818
20199TIP3    H282089   2.857   5.664   0.010 -0.6051  0.3170 -1.5625
20200TIP3   OH282090   2.231   4.712  16.571 -0.0914  0.0007 -0.0514
20200TIP3    H182091   2.149   4.745  16.534  0.8011  1.4173 -0.8162
20200TIP3    H282092   2.289   4.788  16.574  1.8655 -1.3465 -1.3335
20201TIP3   OH282093   3.193   0.145  11.600 -0.7475 -0.0544  0.1292
20201TIP3    H182094   3.127   0.118  11.536  0.8286 -1.7702 -0.8530
20201TIP3    H282095   3.239   0.217  11.557  1.2329 -2.1102 -1.3863
20202TIP3   OH282096   5.460   1.346   3.448 -0.0954 -0.1381  0.8834
20202TIP3    H182097   5.475   1.394   3.530  0.2847 -0.8176  1.2138
20202TIP3    H282098   5.376   1.380   3.416  0.3582  1.0628  0.8868
20203TIP3   OH282099   5.512   5.716   5.996 -0.1327 -0.2046 -0.1258
20203TIP3    H182100   5.517   5.749   6.086 -1.9708 -2.8159  1.0477
20203TIP3    H282101   5.426   5.742   5.965  0.4559  0.6022 -1.1703
20204TIP3   OH282102   1.211   0.317  13.982 -0.1154  0.6798  0.1458
20204TIP3    H182103   1.178   0.245  13.930 -1.1194 -1.2557  3.2114
20204TIP3    H282104   1.293   0.284  14.019 -0.5043  1.1446  1.4586
20205TIP3   OH282105   3.736   6.238   4.663 -0.4924  0.1771 -0.4024
20205TIP3    H182106   3.693   6.240   4.577 -0.0029  0.6329 -0.6397
20205TIP3    H282107   3.664   6.242   4.726 -0.8020  0.8690 -0.7952
20206TIP3   OH282108   3.533   1.790   5.886  0.1547  0.4520  0.1274
20206TIP3    H182109   3.527   1.769   5.979 -0.8149 -1.8781 -0.3964
20206TIP3    H282110   3.461   1.851   5.870 -0.8606 -0.5864  0.5768
20207TIP3   OH282111   6.097   5.847   0.246 -1.2317  0.2014 -0.0038
20207TIP3    H182112   6.111   5.890   0.162 -1.8938 -1.7086 -1.1713
20207TIP3    H282113   6.001   5.841   0.254 -1.1691  0.1582  0.7690
20208TIP3   OH282114   4.660   5.774  13.923  0.3659 -0.3036 -0.1242
20208TIP3    H182115   4.586   5.825  13.956  0.7630  0.5048 -0.4295
20208TIP3    H282116   4.630   5.739  13.840  0.7448  1.1489 -0.9134
20209TIP3   OH282117   6.485   4.899   5.228 -0.3512  0.9127 -0.3431
20209TIP3    H182118   6.550   4.966   5.208  0.4505  0.1226 -0.4639
20209TIP3    H282119   6.455   4.868   5.143 -1.4387  1.7846 -0.2870
20210TIP3   OH282120   6.024   2.312  15.648  0.0296  0.4340  0.4894
20210TIP3    H182121   5.987   2.273  15.568  1.8331 -0.1139 -0.1167
20210TIP3    H282122   5.997   2.404  15.644 -2.7741 -0.2633  1.0327
20211TIP3   OH282123   4.360   4.405   1.822 -0.2237 -0.0614 -0.0762
20211TIP3    H182124   4.436   4.349   1.837 -0.9881 -0.9506  0.5969
20211TIP3    H282125   4.338   4.394   1.730  0.1035 -0.2553 -0.1297
20212TIP3   OH282126   6.500   2.817   4.552  0.7204 -0.4886 -0.0911
20212TIP3    H182127   6.450   2.757   4.608 -0.8099 -0.3476 -1.2512
20212TIP3    H282128   6.520   2.892   4.609  0.4634 -0.9853  0.6621
20213TIP3   OH282129   5.980   2.957  14.776 -0.6373 -0.4376 -0.6335
20213TIP3    H182130   5.935   2.908  14.844 -1.2472 -0.2952 -0.9338
20213TIP3    H282131   5.932   3.039  14.769 -0.7192 -0.5472 -1.3996
20214TIP3   OH282132   2.710   3.147   2.365  0.7234 -0.1071 -0.2707
20214TIP3    H182133   2.715   3.154   2.460 -2.6878  0.3319  0.0049
20214TIP3    H282134   2.718   3.054   2.346 -5.5433 -1.4450  1.3698
20215TIP3   OH282135   5.002   1.605   1.653  0.2916  0.0637 -0.1491
20215TIP3    H182136   5.062   1.537   1.623 -0.7166 -0.2445 -1.5957
20215TIP3    H282137   4.918   1.561   1.662  0.1181  0.6172  1.2581
20216TIP3   OH282138   5.928   4.359   1.094 -0.3337  0.2954  0.2915
20216TIP3    H182139   5.969   4.359   1.008 -0.3760 -0.5967  0.2604
20216TIP3    H282140   5.834   4.358   1.076 -0.3398 -0.4853  0.3341
20217TIP3   OH282141   6.529   6.194   5.213 -0.5706  0.0910 -0.6961
20217TIP3    H182142   6.527   6.229   5.302 -1.1721 -1.5435 -0.0231
20217TIP3    H282143   6.476   6.114   5.218 -0.3827 -0.1793 -2.4601
20218TIP3   OH282144   4.759   4.560  16.533 -0.1816  0.1845 -0.1673
20218TIP3    H182145   4.801   4.643  16.509  0.1682  0.5293  1.4917
20218TIP3    H282146   4.687   4.586  16.591 -0.0600 -0.6789  0.3818
20219TIP3   OH282147   5.768   3.522   1.815 -0.1874  0.9082 -0.2550
20219TIP3    H182148   5.790   3.482   1.899  0.4367  1.9031  0.0745
20219TIP3    H282149   5.673   3.510   1.806 -0.4516  1.7275  1.1146
20220TIP3   OH282150   4.240   6.602   2.579  0.7217  0.0334  0.1235
20220TIP3    H182151   4.248   6.609   2.675 -0.5537  0.5135  0.2121
20220TIP3    H282152   4.147   6.588   2.564  0.7908  0.7762 -1.1046
20221TIP3   OH282153   3.290   1.776  13.912  0.0447  0.4894 -0.0256
20221TIP3    H182154   3.294   1.871  13.919  0.4987  0.4051  1.0494
20221TIP3    H282155   3.204   1.752  13.948  0.2075  0.4504  0.3448
20222TIP3   OH282156   4.666   3.282  13.431  0.4880 -0.3379 -0.1503
20222TIP3    H182157   4.740   3.252  13.378  0.1654 -0.1598 -0.7027
20222TIP3    H282158   4.589   3.252  13.385  0.2006 -0.0855  0.1609
20223TIP3   OH282159   2.052   3.849  12.203 -0.4743 -0.4643  0.1367
20223TIP3    H182160   1.983   3.810  12.256 -0.2862  0.3816  1.0177
20223TIP3    H282161   2.039   3.943  12.210  0.5007 -0.3011 -0.0448
20224TIP3   OH282162   5.224   4.124  11.933  0.0613  0.0083 -0.1475
20224TIP3    H182163   5.286   4.051  11.927  0.1663  0.2052 -2.1959
20224TIP3    H282164   5.185   4.129  11.846 -2.1021  0.5557  0.8026
20225TIP3   OH282165   0.088   6.308   4.686  0.2792  0.6347  0.8998
20225TIP3    H182166   0.167   6.259   4.663 -0.0136  0.0417  1.1353
20225TIP3    H282167   0.044   6.323   4.603  0.0743 -0.0209  0.8865
20226TIP3   OH282168   3.860   5.490  15.969  1.0307  0.0602  0.4183
20226TIP3    H182169   3.890   5.403  15.997 -1.8777 -1.5150 -0.9768
20226TIP3    H282170   3.915   5.511  15.894  1.7703 -0.5572  0.7716
20227TIP3   OH282171   6.387   6.034   2.941  0.1372  0.0008 -0.4775
20227TIP3    H182172   6.350   6.009   3.026  0.2626 -0.3559 -0.5260
20227TIP3    H282173   6.481   6.043   2.957  0.6009 -2.7133 -1.1373
20228TIP3   OH282174   6.389   5.151  17.640 -0.2049 -0.3574 -0.5077
20228TIP3    H182175   6.467   5.182  17.593  0.5995  0.3772  1.2203
20228TIP3    H282176   6.331   5.228  17.641  1.1640  0.7656  2.4714
20229TIP3   OH282177   1.958   6.509  15.657  0.3080 -0.2148 -0.5070
20229TIP3    H182178   2.040   6.528  15.703 -0.2695  1.2664 -0.0241
20229TIP3    H282179   1.950   6.579  15.593 -0.7166 -0.1625 -0.3378
20230TIP3   OH282180   3.529   5.772  15.483  0.1683 -0.3499 -0.4902
20230TIP3    H182181   3.529   5.775  15.579 -0.9617 -0.3109 -0.4828
20230TIP3    H282182   3.453   5.717  15.461  1.0467 -1.2664 -1.3462
20231TIP3   OH282183   3.048   4.788  15.313  0.1757 -0.9114 -0.4353
20231TIP3    H182184   3.061   4.710  15.259 -0.1931 -0.6113 -0.9668
20231TIP3    H282185   3.091   4.858  15.264 -1.8782 -0.2399 -1.3691
20232TIP3   OH282186   2.004   5.397  12.967 -0.0954  0.3391  0.2196
20232TIP3    H182187   1.934   5.337  12.941 -1.3736  2.3415 -1.2149
20232TIP3    H282188   2.023   5.373  13.058 -2.6993 -0.2376  0.6763
20233TIP3   OH282189   0.799   1.676  12.653 -0.2123 -0.5385 -0.0438
20233TIP3    H182190   0.894   1.662  12.648 -0.1521 -0.8403  1.4393
20233TIP3    H282191   0.765   1.640  12.571  0.7707 -2.0339  0.1590
20234TIP3   OH282192   2.944   0.114  10.699 -0.2494  0.8949 -0.2071
20234TIP3    H182193   2.969   0.167  10.775  0.9246 -0.7705  0.6416
20234TIP3    H282194   2.849   0.109  10.704 -0.1843  0.4450  1.4823
20235LIG      S82195   3.517   2.700  15.951 -0.5458  0.2099  0.0275
20235LIG     F182196   2.936   4.168  16.649  0.9109 -0.0909 -0.0047
20235LIG     F282197   2.851   3.977  16.692  0.3317  0.5638  0.1990
20235LIG      O82198   3.066   3.973  16.480  0.1139  0.4824 -0.7747
20235LIG     N182199   3.671   2.838  16.220  0.5782 -0.0813 -0.1704
20235LIG     N282200   3.650   3.623  16.172  0.1651 -0.0344 -0.4734
20235LIG     N382201   3.696   3.440  16.088  0.4382 -0.2305  0.4524
20235LIG     N482202   3.670   3.563  16.054 -0.7837  0.2326 -0.1833
20235LIG     N582203   2.981   3.970  16.273  0.2520 -0.1351  0.1217
20235LIG     N682204   2.888   4.013  16.351  0.3862 -0.4290  0.5455
20235LIG     C182205   3.692   2.695  16.187  0.0577 -0.2588  0.7380
20235LIG     C282206   3.537   2.886  16.175  0.8400 -0.4699  0.1557
20235LIG     C382207   3.787   2.927  16.203 -0.1030  0.0747 -0.4340
20235LIG     C482208   3.679   2.674  16.032  0.0783  0.3383 -0.6079
20235LIG     C582209   3.521   2.878  16.017 -0.2150 -0.8574 -0.2410
20235LIG     C682210   3.774   3.058  16.284  0.8491  0.5148  1.0622
20235LIG     C782211   3.759   3.178  16.219  0.5486  0.1428 -0.6562
20235LIG     C882212   3.789   3.047  16.418 -0.7875 -0.4762  0.2313
20235LIG     C982213   3.734   3.300  16.294  0.4493  1.1188  0.3564
20235LIG    C1082214   3.700   3.423  16.227  0.3588 -0.2449 -0.1297
20235LIG    C1182215   3.770   3.164  16.495 -0.0716  0.1241  0.0469
20235LIG    C1282216   3.736   3.284  16.437 -0.4522 -0.3754  0.5497
20235LIG    C1382217   3.617   3.766  16.170 -0.6491 -0.5314  0.1112
20235LIG    C1482218   3.663   3.542  16.279  0.1514  0.0117 -0.5220
20235LIG    C1582219   3.479   3.801  16.213  0.3374  0.2635 -0.3783
20235LIG    C1682220   3.455   3.841  16.347  0.1559  0.6439 -0.2907
20235LIG    C1782221   3.374   3.815  16.123  0.5704  0.2440 -0.5377
20235LIG    C1882222   3.216   3.893  16.300  0.0602  0.7509 -0.1716
20235LIG    C1982223   3.329   3.886  16.392 -0.7484  0.8465  0.4254
20235LIG    C2082224   3.242   3.851  16.170  0.2677 -0.5560 -0.2312
20235LIG    C2182225   3.090   3.944  16.350 -0.8089 -0.9310 -0.4783
20235LIG    C2282226   2.934   4.009  16.473  0.3618  0.5144 -0.2703
20235LIG    C2382227   2.869   4.068  16.592 -0.2038  0.2534  0.2170
20235LIG     H182228   3.608   2.640  16.234  1.0001 -1.1094  1.4764
20235LIG     H282229   3.789   2.658  16.227  1.0492 -0.8039 -1.9469
20235LIG     H382230   3.528   2.990  16.214 -1.2184 -0.1294 -1.0787
20235LIG     H482231   3.458   2.824  16.222  0.2459 -1.0402 -1.4965
20235LIG     H582232   3.805   2.950  16.096  0.6208 -0.4653 -0.4317
20235LIG     H682233   3.875   2.866  16.232 -0.0466 -0.4847 -1.6727
20235LIG     H782234   3.760   2.737  15.989 -0.0061  0.9630  0.1124
20235LIG     H882235   3.715   2.570  16.017  1.9170  0.5615  1.6704
20235LIG     H982236   3.436   2.934  15.974 -1.5231 -0.7473  2.3282
20235LIG    H1082237   3.606   2.934  15.971 -0.5906 -1.1541 -1.3108
20235LIG    H1182238   3.727   3.171  16.117  0.1206  0.2827 -0.5320
20235LIG    H1282239   3.800   2.955  16.474 -0.7488  0.3377  1.6085
20235LIG    H1382240   3.703   3.365  16.500 -1.7272 -0.1855 -0.3316
20235LIG    H1482241   3.777   3.160  16.603  2.3033 -0.6711 -0.0587
20235LIG    H1582242   3.634   3.819  16.074  2.2227  1.3177  1.4753
20235LIG    H1682243   3.690   3.810  16.242 -1.4604  0.8501  0.1096
20235LIG    H1782244   3.635   3.570  16.380  0.4639 -3.2088  0.5550
20235LIG    H1882245   3.535   3.822  16.417 -0.6454 -0.6283  0.3268
20235LIG    H1982246   3.380   3.790  16.019 -2.8338 -1.9338 -0.3659
20235LIG    H2082247   3.306   3.928  16.489 -1.4311  2.7462 -0.5144
20235LIG    H2182248   3.160   3.853  16.100 -0.1326  1.9721  0.2113
20235LIG    H2282249   2.773   4.118  16.580 -1.3640 -1.8265  0.3341
   6.73790   6.73790  17.68566
